     Message from routine get_command_line:
     unexpected argument # 4     :-in

     Program PWSCF v.6.7MaX starts on 30Jun2022 at 22:30: 2 

     This program is part of the open-source Quantum ESPRESSO suite
     for quantum simulation of materials; please cite
         "P. Giannozzi et al., J. Phys.:Condens. Matter 21 395502 (2009);
         "P. Giannozzi et al., J. Phys.:Condens. Matter 29 465901 (2017);
          URL http://www.quantum-espresso.org", 
     in publications or presentations arising from this work. More details at
     http://www.quantum-espresso.org/quote

     Parallel version (MPI), running on   120 processors

     MPI processes distributed on     1 nodes
     K-points division:     npool     =       8
     R & G space division:  proc/nbgrp/npool/nimage =      15
     Waiting for input...
     Reading input from standard input
Warning: card &CELL ignored
Warning: card / ignored

     Current dimensions of program PWSCF are:
     Max number of different atomic species (ntypx) = 10
     Max number of k-points (npk) =  40000
     Max angular momentum in pseudopotentials (lmaxx) =  3

     IMPORTANT: XC functional enforced from input :
     Exchange-correlation= PBE
                           (   1   4   3   4   0   0   0)
     Any further DFT definition will be discarded
     Please, verify this is what you really want


     -------------------------------------------------
     Parameters for Dispersion (Grimme-D2) Correction:
     -------------------------------------------------
       atom      VdW radius       C_6     

        N          2.640         42.670

     Subspace diagonalization in iterative solution of the eigenvalue problem:
     one sub-group per band group will be used
     scalapack distributed-memory algorithm (size of sub-group:  3*  3 procs)


     Parallelization info
     --------------------
     sticks:   dense  smooth     PW     G-vecs:    dense   smooth      PW
     Min        3636    1818    468               639190   225950   29545
     Max        3637    1819    470               639197   225953   29547
     Sum       54553   27281   7033              9587919  3389267  443191



     bravais-lattice index     =            0
     lattice parameter (alat)  =      37.7945  a.u.
     unit-cell volume          =   53986.6760 (a.u.)^3
     number of atoms/cell      =            1
     number of atomic types    =            1
     number of electrons       =         5.00
     number of Kohn-Sham states=            7
     kinetic-energy cutoff     =      60.0000  Ry
     charge density cutoff     =     480.0000  Ry
     scf convergence threshold =      1.0E-08
     mixing beta               =       0.7000
     number of iterations used =           10  plain     mixing
     energy convergence thresh.=      7.3E-07
     force convergence thresh. =      3.9E-04
     Exchange-correlation= PBE
                           (   1   4   3   4   0   0   0)
     nstep                     =           50


     Effective Screening Medium Method
     =================================
     Boundary Conditions: Metal-Slab-Metal
     field strength                   =    -0.05 Ry/a.u.
     grid points for fit at edges     =        4 


     celldm(1)=  37.794522  celldm(2)=   0.000000  celldm(3)=   0.000000
     celldm(4)=   0.000000  celldm(5)=   0.000000  celldm(6)=   0.000000

     crystal axes: (cart. coord. in units of alat)
               a(1) = (   1.000000   0.000000   0.000000 )  
               a(2) = (   0.000000   1.000000   0.000000 )  
               a(3) = (   0.000000   0.000000   1.000000 )  

     reciprocal axes: (cart. coord. in units 2 pi/alat)
               b(1) = (  1.000000  0.000000  0.000000 )  
               b(2) = (  0.000000  1.000000  0.000000 )  
               b(3) = (  0.000000  0.000000  1.000000 )  


     PseudoPot. # 1 for N  read from file:
     ../../SSSP/N.pbe-n-radius_5.UPF
     MD5 check sum: 16739722b17309cd8fe442a2ace49922
     Pseudo is Ultrasoft + core correction, Zval =  5.0
     Generated using "atomic" code by A. Dal Corso  v.5.1
     Using radial grid of 1085 points,  4 beta functions with: 
                l(1) =   0
                l(2) =   0
                l(3) =   1
                l(4) =   1
     Q(r) pseudized with 0 coefficients 


     atomic species   valence    mass     pseudopotential
        N              5.00    14.00700     N ( 1.00)

     Starting magnetic structure 
     atomic species   magnetization
        N            0.100

     No symmetry found



   Cartesian axes

     site n.     atom                  positions (alat units)
         1           N   tau(   1) = (   0.5000000   0.5000000   0.0000000  )

     number of k points=    10  Methfessel-Paxton smearing, width (Ry)=  0.0100
                       cart. coord. in units 2pi/alat
        k(    1) = (   0.0000000   0.0000000   0.0000000), wk =   0.0625000
        k(    2) = (   0.0000000   0.2500000   0.0000000), wk =   0.1250000
        k(    3) = (   0.0000000  -0.5000000   0.0000000), wk =   0.0625000
        k(    4) = (   0.2500000   0.0000000   0.0000000), wk =   0.1250000
        k(    5) = (   0.2500000   0.2500000   0.0000000), wk =   0.1250000
        k(    6) = (   0.2500000  -0.5000000   0.0000000), wk =   0.1250000
        k(    7) = (   0.2500000  -0.2500000   0.0000000), wk =   0.1250000
        k(    8) = (  -0.5000000   0.0000000   0.0000000), wk =   0.0625000
        k(    9) = (  -0.5000000   0.2500000   0.0000000), wk =   0.1250000
        k(   10) = (  -0.5000000  -0.5000000   0.0000000), wk =   0.0625000

     Dense  grid:  9587919 G-vectors     FFT dimensions: ( 270, 270, 270)

     Smooth grid:  3389267 G-vectors     FFT dimensions: ( 192, 192, 192)

     Estimated max dynamical RAM per process >     364.64 MB

     Estimated total dynamical RAM >      42.73 GB
     Generating pointlists ...
     new r_m :   0.4125 (alat units) 15.5902 (a.u.) for type    1

     Initial potential from superposition of free atoms

     starting charge    4.99999, renormalised to    5.00000

     negative rho (up, down):  9.787E-05 8.007E-05
     Starting wfcs are    4 randomized atomic wfcs +    3 random wfcs

     total cpu time spent up to now is       21.3 secs

     Self-consistent Calculation

     iteration #  1     ecut=    60.00 Ry     beta= 0.70
     Davidson diagonalization with overlap
     c_bands:  5 eigenvalues not converged
     c_bands:  5 eigenvalues not converged
     c_bands:  3 eigenvalues not converged
     ethr =  1.00E-04,  avg # of iterations = 20.8

     negative rho (up, down):  1.486E-05 1.562E-05

     total cpu time spent up to now is       59.7 secs

     total energy              =     -15.97674124 Ry
     estimated scf accuracy    <       5.40014185 Ry

     total magnetization       =     0.00 Bohr mag/cell
     absolute magnetization    =     0.08 Bohr mag/cell

     iteration #  2     ecut=    60.00 Ry     beta= 0.70
     Davidson diagonalization with overlap
     ethr =  1.00E-02,  avg # of iterations =  7.5

     negative rho (up, down):  2.224E-04 2.280E-04

     total cpu time spent up to now is       78.1 secs

     total energy              =     -20.32057428 Ry
     estimated scf accuracy    <       4.79236975 Ry

     total magnetization       =     0.00 Bohr mag/cell
     absolute magnetization    =     0.11 Bohr mag/cell

     iteration #  3     ecut=    60.00 Ry     beta= 0.70
     Davidson diagonalization with overlap
     ethr =  1.00E-02,  avg # of iterations =  2.7

     negative rho (up, down):  2.247E-04 1.948E-04

     total cpu time spent up to now is       94.7 secs

     total energy              =     -19.83478058 Ry
     estimated scf accuracy    <       1.34552263 Ry

     total magnetization       =     0.53 Bohr mag/cell
     absolute magnetization    =     0.53 Bohr mag/cell

     iteration #  4     ecut=    60.00 Ry     beta= 0.70
     Davidson diagonalization with overlap
     ethr =  1.00E-02,  avg # of iterations =  1.6

     negative rho (up, down):  1.908E-04 1.293E-04

     total cpu time spent up to now is      110.5 secs

     total energy              =     -19.67601591 Ry
     estimated scf accuracy    <       0.46906499 Ry

     total magnetization       =     0.50 Bohr mag/cell
     absolute magnetization    =     0.50 Bohr mag/cell

     iteration #  5     ecut=    60.00 Ry     beta= 0.70
     Davidson diagonalization with overlap
     ethr =  9.38E-03,  avg # of iterations =  2.2

     negative rho (up, down):  1.719E-04 8.880E-05

     total cpu time spent up to now is      126.5 secs

     total energy              =     -19.64408416 Ry
     estimated scf accuracy    <       0.18415006 Ry

     total magnetization       =     0.75 Bohr mag/cell
     absolute magnetization    =     0.75 Bohr mag/cell

     iteration #  6     ecut=    60.00 Ry     beta= 0.70
     Davidson diagonalization with overlap
     ethr =  3.68E-03,  avg # of iterations =  3.0

     negative rho (up, down):  1.507E-04 8.705E-05

     total cpu time spent up to now is      142.7 secs

     total energy              =     -19.66532836 Ry
     estimated scf accuracy    <       0.02273382 Ry

     total magnetization       =     1.26 Bohr mag/cell
     absolute magnetization    =     1.27 Bohr mag/cell

     iteration #  7     ecut=    60.00 Ry     beta= 0.70
     Davidson diagonalization with overlap
     ethr =  4.55E-04,  avg # of iterations =  6.4

     negative rho (up, down):  2.177E-04 1.253E-04

     total cpu time spent up to now is      160.4 secs

     total energy              =     -19.69464851 Ry
     estimated scf accuracy    <       0.13610286 Ry

     total magnetization       =     1.24 Bohr mag/cell
     absolute magnetization    =     1.28 Bohr mag/cell

     iteration #  8     ecut=    60.00 Ry     beta= 0.70
     Davidson diagonalization with overlap
     ethr =  4.55E-04,  avg # of iterations =  1.0

     negative rho (up, down):  2.284E-04 1.402E-04

     total cpu time spent up to now is      176.2 secs

     total energy              =     -19.69299655 Ry
     estimated scf accuracy    <       0.13681642 Ry

     total magnetization       =     1.25 Bohr mag/cell
     absolute magnetization    =     1.29 Bohr mag/cell

     iteration #  9     ecut=    60.00 Ry     beta= 0.70
     Davidson diagonalization with overlap
     ethr =  4.55E-04,  avg # of iterations =  1.0

     negative rho (up, down):  2.395E-04 1.491E-04

     total cpu time spent up to now is      192.1 secs

     total energy              =     -19.67748727 Ry
     estimated scf accuracy    <       0.13553087 Ry

     total magnetization       =     1.25 Bohr mag/cell
     absolute magnetization    =     1.28 Bohr mag/cell

     iteration # 10     ecut=    60.00 Ry     beta= 0.70
     Davidson diagonalization with overlap
     ethr =  4.55E-04,  avg # of iterations =  1.0

     negative rho (up, down):  2.297E-04 2.397E-04

     total cpu time spent up to now is      208.2 secs

     total energy              =     -19.69157628 Ry
     estimated scf accuracy    <       0.15803184 Ry

     total magnetization       =     2.05 Bohr mag/cell
     absolute magnetization    =     2.06 Bohr mag/cell

     iteration # 11     ecut=    60.00 Ry     beta= 0.70
     Davidson diagonalization with overlap
     ethr =  4.55E-04,  avg # of iterations =  1.0

     negative rho (up, down):  2.618E-04 3.161E-04

     total cpu time spent up to now is      224.3 secs

     total energy              =     -19.69336628 Ry
     estimated scf accuracy    <       0.21397329 Ry

     total magnetization       =     2.15 Bohr mag/cell
     absolute magnetization    =     2.17 Bohr mag/cell

     iteration # 12     ecut=    60.00 Ry     beta= 0.70
     Davidson diagonalization with overlap
     ethr =  4.55E-04,  avg # of iterations =  1.0

     negative rho (up, down):  5.117E-04 3.267E-04

     total cpu time spent up to now is      240.4 secs

     total energy              =     -19.76396692 Ry
     estimated scf accuracy    <       0.22260185 Ry

     total magnetization       =     2.18 Bohr mag/cell
     absolute magnetization    =     2.19 Bohr mag/cell

     iteration # 13     ecut=    60.00 Ry     beta= 0.70
     Davidson diagonalization with overlap
     ethr =  4.55E-04,  avg # of iterations =  1.2

     negative rho (up, down):  3.048E-04 3.919E-04

     total cpu time spent up to now is      256.8 secs

     total energy              =     -19.03923147 Ry
     estimated scf accuracy    <       4.82846306 Ry

     total magnetization       =     0.06 Bohr mag/cell
     absolute magnetization    =     0.12 Bohr mag/cell

     iteration # 14     ecut=    60.00 Ry     beta= 0.70
     Davidson diagonalization with overlap
     ethr =  4.55E-04,  avg # of iterations =  5.2

     negative rho (up, down):  2.246E-04 2.511E-04

     total cpu time spent up to now is      275.7 secs

     total energy              =     -19.79915516 Ry
     estimated scf accuracy    <       0.30563655 Ry

     total magnetization       =     1.96 Bohr mag/cell
     absolute magnetization    =     1.96 Bohr mag/cell

     iteration # 15     ecut=    60.00 Ry     beta= 0.70
     Davidson diagonalization with overlap
     ethr =  4.55E-04,  avg # of iterations =  1.4

     negative rho (up, down):  3.862E-04 2.602E-04

     total cpu time spent up to now is      292.1 secs

     total energy              =     -19.72960187 Ry
     estimated scf accuracy    <       0.31045808 Ry

     total magnetization       =     1.96 Bohr mag/cell
     absolute magnetization    =     1.97 Bohr mag/cell

     iteration # 16     ecut=    60.00 Ry     beta= 0.70
     Davidson diagonalization with overlap
     ethr =  4.55E-04,  avg # of iterations =  1.4

     negative rho (up, down):  5.677E-02 6.311E-02

     total cpu time spent up to now is      308.1 secs

     total energy              =     -19.62516205 Ry
     estimated scf accuracy    <       0.19764006 Ry

     total magnetization       =     1.68 Bohr mag/cell
     absolute magnetization    =     1.73 Bohr mag/cell

     iteration # 17     ecut=    60.00 Ry     beta= 0.70
     Davidson diagonalization with overlap
     c_bands:  1 eigenvalues not converged
     ethr =  4.55E-04,  avg # of iterations = 15.8

     negative rho (up, down):  2.898E-02 3.945E-02

     total cpu time spent up to now is      332.9 secs

     total energy              =     -20.16955564 Ry
     estimated scf accuracy    <       5.38788491 Ry

     total magnetization       =     0.26 Bohr mag/cell
     absolute magnetization    =     0.35 Bohr mag/cell

     iteration # 18     ecut=    60.00 Ry     beta= 0.70
     Davidson diagonalization with overlap
     ethr =  4.55E-04,  avg # of iterations =  2.2

     negative rho (up, down):  5.704E-02 1.206E-01

     total cpu time spent up to now is      349.2 secs

     total energy              =     -20.40197781 Ry
     estimated scf accuracy    <       5.24070443 Ry

     total magnetization       =     0.38 Bohr mag/cell
     absolute magnetization    =     0.47 Bohr mag/cell

     iteration # 19     ecut=    60.00 Ry     beta= 0.70
     Davidson diagonalization with overlap
     ethr =  4.55E-04,  avg # of iterations =  4.9

     negative rho (up, down):  5.983E-02 1.104E-01

     total cpu time spent up to now is      366.8 secs

     total energy              =     -20.15884349 Ry
     estimated scf accuracy    <       5.50795922 Ry

     total magnetization       =     0.13 Bohr mag/cell
     absolute magnetization    =     0.36 Bohr mag/cell

     iteration # 20     ecut=    60.00 Ry     beta= 0.70
     Davidson diagonalization with overlap
     ethr =  4.55E-04,  avg # of iterations =  3.8

     negative rho (up, down):  1.354E-02 1.162E-02

     total cpu time spent up to now is      384.2 secs

     total energy              =     -19.65851878 Ry
     estimated scf accuracy    <       5.18622235 Ry

     total magnetization       =     0.77 Bohr mag/cell
     absolute magnetization    =     1.05 Bohr mag/cell

     iteration # 21     ecut=    60.00 Ry     beta= 0.70
     Davidson diagonalization with overlap
     ethr =  4.55E-04,  avg # of iterations =  5.2

     negative rho (up, down):  6.410E-02 5.548E-02

     total cpu time spent up to now is      403.3 secs

     total energy              =     -19.33385416 Ry
     estimated scf accuracy    <       4.76457595 Ry

     total magnetization       =    -0.29 Bohr mag/cell
     absolute magnetization    =     0.51 Bohr mag/cell

     iteration # 22     ecut=    60.00 Ry     beta= 0.70
     Davidson diagonalization with overlap
     ethr =  4.55E-04,  avg # of iterations =  4.1

     negative rho (up, down):  1.304E-01 7.392E-03

     total cpu time spent up to now is      421.1 secs

     total energy              =     -19.28766454 Ry
     estimated scf accuracy    <       4.22455015 Ry

     total magnetization       =    -0.60 Bohr mag/cell
     absolute magnetization    =     0.82 Bohr mag/cell

     iteration # 23     ecut=    60.00 Ry     beta= 0.70
     Davidson diagonalization with overlap
     ethr =  4.55E-04,  avg # of iterations =  3.5

     negative rho (up, down):  9.988E-02 6.907E-03

     total cpu time spent up to now is      438.1 secs

     total energy              =     -19.63273904 Ry
     estimated scf accuracy    <       4.21057578 Ry

     total magnetization       =    -1.12 Bohr mag/cell
     absolute magnetization    =     1.41 Bohr mag/cell

     iteration # 24     ecut=    60.00 Ry     beta= 0.70
     Davidson diagonalization with overlap
     ethr =  4.55E-04,  avg # of iterations =  1.1

     negative rho (up, down):  2.409E-01 1.082E-02

     total cpu time spent up to now is      453.9 secs

     total energy              =     -19.66121877 Ry
     estimated scf accuracy    <       4.60427237 Ry

     total magnetization       =    -1.01 Bohr mag/cell
     absolute magnetization    =     1.34 Bohr mag/cell

     iteration # 25     ecut=    60.00 Ry     beta= 0.70
     Davidson diagonalization with overlap
     ethr =  4.55E-04,  avg # of iterations =  3.0

     negative rho (up, down):  2.968E-01 2.393E-02

     total cpu time spent up to now is      470.9 secs

     total energy              =     -19.65019681 Ry
     estimated scf accuracy    <       4.58891973 Ry

     total magnetization       =    -1.81 Bohr mag/cell
     absolute magnetization    =     1.98 Bohr mag/cell

     iteration # 26     ecut=    60.00 Ry     beta= 0.70
     Davidson diagonalization with overlap
     ethr =  4.55E-04,  avg # of iterations =  2.0

     negative rho (up, down):  1.062E-01 1.690E-02

     total cpu time spent up to now is      487.2 secs

     total energy              =     -19.07855974 Ry
     estimated scf accuracy    <       4.58044160 Ry

     total magnetization       =    -1.57 Bohr mag/cell
     absolute magnetization    =     1.90 Bohr mag/cell

     iteration # 27     ecut=    60.00 Ry     beta= 0.70
     Davidson diagonalization with overlap
     ethr =  4.55E-04,  avg # of iterations =  3.8

     negative rho (up, down):  2.730E+00 4.188E-01

     total cpu time spent up to now is      505.1 secs

     total energy              =     -16.27734198 Ry
     estimated scf accuracy    <       3.53640794 Ry

     total magnetization       =    -0.95 Bohr mag/cell
     absolute magnetization    =     1.95 Bohr mag/cell

     iteration # 28     ecut=    60.00 Ry     beta= 0.70
     Davidson diagonalization with overlap
     ethr =  4.55E-04,  avg # of iterations = 10.1

     negative rho (up, down):  9.378E-01 1.469E-01

     total cpu time spent up to now is      531.3 secs

     total energy              =     -20.98039788 Ry
     estimated scf accuracy    <       4.61383828 Ry

     total magnetization       =     1.56 Bohr mag/cell
     absolute magnetization    =     1.81 Bohr mag/cell

     iteration # 29     ecut=    60.00 Ry     beta= 0.70
     Davidson diagonalization with overlap
     ethr =  4.55E-04,  avg # of iterations = 14.7

     negative rho (up, down):  4.255E-01 8.411E-02

     total cpu time spent up to now is      554.0 secs

     total energy              =     -20.63089456 Ry
     estimated scf accuracy    <       2.10614059 Ry

     total magnetization       =     3.05 Bohr mag/cell
     absolute magnetization    =     3.05 Bohr mag/cell

     iteration # 30     ecut=    60.00 Ry     beta= 0.70
     Davidson diagonalization with overlap
     ethr =  4.55E-04,  avg # of iterations =  3.8

     negative rho (up, down):  1.181E-02 4.460E-02

     total cpu time spent up to now is      571.9 secs

     total energy              =     -20.20570874 Ry
     estimated scf accuracy    <       1.32349835 Ry

     total magnetization       =     3.00 Bohr mag/cell
     absolute magnetization    =     3.00 Bohr mag/cell

     iteration # 31     ecut=    60.00 Ry     beta= 0.70
     Davidson diagonalization with overlap
     ethr =  4.55E-04,  avg # of iterations =  3.5

     negative rho (up, down):  5.778E-04 2.475E-02

     total cpu time spent up to now is      590.1 secs

     total energy              =     -20.10011660 Ry
     estimated scf accuracy    <       0.64278024 Ry

     total magnetization       =     3.00 Bohr mag/cell
     absolute magnetization    =     3.00 Bohr mag/cell

     iteration # 32     ecut=    60.00 Ry     beta= 0.70
     Davidson diagonalization with overlap
     ethr =  4.55E-04,  avg # of iterations =  1.1

     negative rho (up, down):  5.083E-04 2.775E-02

     total cpu time spent up to now is      606.3 secs

     total energy              =     -19.99106118 Ry
     estimated scf accuracy    <       0.47189956 Ry

     total magnetization       =     3.00 Bohr mag/cell
     absolute magnetization    =     3.00 Bohr mag/cell

     iteration # 33     ecut=    60.00 Ry     beta= 0.70
     Davidson diagonalization with overlap
     ethr =  4.55E-04,  avg # of iterations =  1.6

     negative rho (up, down):  4.142E-03 3.526E-02

     total cpu time spent up to now is      622.6 secs

     total energy              =     -19.92077817 Ry
     estimated scf accuracy    <       0.29927284 Ry

     total magnetization       =     3.00 Bohr mag/cell
     absolute magnetization    =     3.00 Bohr mag/cell

     iteration # 34     ecut=    60.00 Ry     beta= 0.70
     Davidson diagonalization with overlap
     ethr =  4.55E-04,  avg # of iterations =  1.0

     negative rho (up, down):  4.159E-03 3.012E-02

     total cpu time spent up to now is      638.5 secs

     total energy              =     -19.92109968 Ry
     estimated scf accuracy    <       0.18495465 Ry

     total magnetization       =     3.00 Bohr mag/cell
     absolute magnetization    =     3.00 Bohr mag/cell

     iteration # 35     ecut=    60.00 Ry     beta= 0.70
     Davidson diagonalization with overlap
     ethr =  4.55E-04,  avg # of iterations =  1.0

     negative rho (up, down):  4.073E-04 1.778E-02

     total cpu time spent up to now is      654.6 secs

     total energy              =     -19.95222972 Ry
     estimated scf accuracy    <       0.18523913 Ry

     total magnetization       =     3.00 Bohr mag/cell
     absolute magnetization    =     3.00 Bohr mag/cell

     iteration # 36     ecut=    60.00 Ry     beta= 0.70
     Davidson diagonalization with overlap
     ethr =  4.55E-04,  avg # of iterations =  1.0

     negative rho (up, down):  1.255E-03 1.916E-02

     total cpu time spent up to now is      670.6 secs

     total energy              =     -20.01831631 Ry
     estimated scf accuracy    <       0.22988995 Ry

     total magnetization       =     3.00 Bohr mag/cell
     absolute magnetization    =     3.00 Bohr mag/cell

     iteration # 37     ecut=    60.00 Ry     beta= 0.70
     Davidson diagonalization with overlap
     ethr =  4.55E-04,  avg # of iterations =  1.0

     negative rho (up, down):  8.083E-04 1.571E-03

     total cpu time spent up to now is      686.8 secs

     total energy              =     -19.88355197 Ry
     estimated scf accuracy    <       0.34197822 Ry

     total magnetization       =     3.00 Bohr mag/cell
     absolute magnetization    =     3.00 Bohr mag/cell

     iteration # 38     ecut=    60.00 Ry     beta= 0.70
     Davidson diagonalization with overlap
     ethr =  4.55E-04,  avg # of iterations =  2.0

     negative rho (up, down):  1.832E-02 2.283E-02

     total cpu time spent up to now is      703.2 secs

     total energy              =     -19.80265114 Ry
     estimated scf accuracy    <       0.12783934 Ry

     total magnetization       =     3.00 Bohr mag/cell
     absolute magnetization    =     3.00 Bohr mag/cell

     iteration # 39     ecut=    60.00 Ry     beta= 0.70
     Davidson diagonalization with overlap
     ethr =  4.55E-04,  avg # of iterations = 15.3

     negative rho (up, down):  7.106E-04 5.829E-05

     total cpu time spent up to now is      730.1 secs

     total energy              =     -19.73965476 Ry
     estimated scf accuracy    <       5.78655809 Ry

     total magnetization       =    -0.74 Bohr mag/cell
     absolute magnetization    =     1.40 Bohr mag/cell

     iteration # 40     ecut=    60.00 Ry     beta= 0.70
     Davidson diagonalization with overlap
     ethr =  4.55E-04,  avg # of iterations =  2.2

     negative rho (up, down):  1.031E-03 1.716E-03

     total cpu time spent up to now is      746.7 secs

     total energy              =     -19.65327028 Ry
     estimated scf accuracy    <       4.92558510 Ry

     total magnetization       =    -0.54 Bohr mag/cell
     absolute magnetization    =     1.19 Bohr mag/cell

     iteration # 41     ecut=    60.00 Ry     beta= 0.70
     Davidson diagonalization with overlap
     ethr =  4.55E-04,  avg # of iterations =  1.2

     negative rho (up, down):  1.192E-03 2.994E-04

     total cpu time spent up to now is      762.9 secs

     total energy              =     -19.61925722 Ry
     estimated scf accuracy    <       4.82136994 Ry

     total magnetization       =    -0.10 Bohr mag/cell
     absolute magnetization    =     0.80 Bohr mag/cell

     iteration # 42     ecut=    60.00 Ry     beta= 0.70
     Davidson diagonalization with overlap
     ethr =  4.55E-04,  avg # of iterations =  1.0

     negative rho (up, down):  3.598E-03 9.441E-04

     total cpu time spent up to now is      778.9 secs

     total energy              =     -19.70649534 Ry
     estimated scf accuracy    <       4.75516946 Ry

     total magnetization       =    -0.91 Bohr mag/cell
     absolute magnetization    =     1.50 Bohr mag/cell

     iteration # 43     ecut=    60.00 Ry     beta= 0.70
     Davidson diagonalization with overlap
     ethr =  4.55E-04,  avg # of iterations =  2.0

     negative rho (up, down):  1.245E-03 1.935E-04

     total cpu time spent up to now is      795.3 secs

     total energy              =     -19.74751066 Ry
     estimated scf accuracy    <       4.86542024 Ry

     total magnetization       =    -1.03 Bohr mag/cell
     absolute magnetization    =     1.69 Bohr mag/cell

     iteration # 44     ecut=    60.00 Ry     beta= 0.70
     Davidson diagonalization with overlap
     ethr =  4.55E-04,  avg # of iterations =  1.0

     negative rho (up, down):  6.566E-03 1.548E-03

     total cpu time spent up to now is      811.2 secs

     total energy              =     -19.71450279 Ry
     estimated scf accuracy    <       4.92011597 Ry

     total magnetization       =    -0.99 Bohr mag/cell
     absolute magnetization    =     1.66 Bohr mag/cell

     iteration # 45     ecut=    60.00 Ry     beta= 0.70
     Davidson diagonalization with overlap
     ethr =  4.55E-04,  avg # of iterations =  1.0

     negative rho (up, down):  1.914E-03 2.750E-03

     total cpu time spent up to now is      827.1 secs

     total energy              =     -19.57806630 Ry
     estimated scf accuracy    <       4.86935592 Ry

     total magnetization       =    -1.10 Bohr mag/cell
     absolute magnetization    =     1.70 Bohr mag/cell

     iteration # 46     ecut=    60.00 Ry     beta= 0.70
     Davidson diagonalization with overlap
     ethr =  4.55E-04,  avg # of iterations =  1.1

     negative rho (up, down):  1.597E-03 5.775E-03

     total cpu time spent up to now is      843.1 secs

     total energy              =     -19.69034287 Ry
     estimated scf accuracy    <       4.71378944 Ry

     total magnetization       =    -1.21 Bohr mag/cell
     absolute magnetization    =     1.60 Bohr mag/cell

     iteration # 47     ecut=    60.00 Ry     beta= 0.70
     Davidson diagonalization with overlap
     ethr =  4.55E-04,  avg # of iterations =  1.1

     negative rho (up, down):  3.932E-03 4.922E-03

     total cpu time spent up to now is      859.1 secs

     total energy              =     -19.74102752 Ry
     estimated scf accuracy    <       4.85449069 Ry

     total magnetization       =    -1.14 Bohr mag/cell
     absolute magnetization    =     1.69 Bohr mag/cell

     iteration # 48     ecut=    60.00 Ry     beta= 0.70
     Davidson diagonalization with overlap
     ethr =  4.55E-04,  avg # of iterations =  1.5

     negative rho (up, down):  1.570E-02 1.619E-03

     total cpu time spent up to now is      875.3 secs

     total energy              =     -19.35044894 Ry
     estimated scf accuracy    <       4.91392200 Ry

     total magnetization       =    -1.08 Bohr mag/cell
     absolute magnetization    =     1.81 Bohr mag/cell

     iteration # 49     ecut=    60.00 Ry     beta= 0.70
     Davidson diagonalization with overlap
     ethr =  4.55E-04,  avg # of iterations =  2.0

     negative rho (up, down):  7.549E-01 1.048E+00

     total cpu time spent up to now is      891.6 secs

     total energy              =     -15.55659946 Ry
     estimated scf accuracy    <       4.42817001 Ry

     total magnetization       =    -1.19 Bohr mag/cell
     absolute magnetization    =     1.56 Bohr mag/cell

     iteration # 50     ecut=    60.00 Ry     beta= 0.70
     Davidson diagonalization with overlap
     ethr =  4.55E-04,  avg # of iterations = 12.9

     negative rho (up, down):  1.852E-01 2.817E-01

     total cpu time spent up to now is      919.3 secs

     total energy              =     -21.90005924 Ry
     estimated scf accuracy    <       7.37926123 Ry

     total magnetization       =     1.11 Bohr mag/cell
     absolute magnetization    =     1.81 Bohr mag/cell

     iteration # 51     ecut=    60.00 Ry     beta= 0.70
     Davidson diagonalization with overlap
     ethr =  4.55E-04,  avg # of iterations =  7.5

     negative rho (up, down):  8.488E-03 1.508E-02

     total cpu time spent up to now is      939.8 secs

     total energy              =     -20.24828027 Ry
     estimated scf accuracy    <       3.30757610 Ry

     total magnetization       =     1.14 Bohr mag/cell
     absolute magnetization    =     1.82 Bohr mag/cell

     iteration # 52     ecut=    60.00 Ry     beta= 0.70
     Davidson diagonalization with overlap
     ethr =  4.55E-04,  avg # of iterations = 15.8

     negative rho (up, down):  2.352E-03 6.695E-03

     total cpu time spent up to now is      965.3 secs

     total energy              =     -20.15180180 Ry
     estimated scf accuracy    <       0.93057400 Ry

     total magnetization       =     1.00 Bohr mag/cell
     absolute magnetization    =     1.90 Bohr mag/cell

     iteration # 53     ecut=    60.00 Ry     beta= 0.70
     Davidson diagonalization with overlap
     ethr =  4.55E-04,  avg # of iterations =  2.6

     negative rho (up, down):  1.210E-01 2.628E-03

     total cpu time spent up to now is      982.1 secs

     total energy              =     -19.75187167 Ry
     estimated scf accuracy    <       0.65338684 Ry

     total magnetization       =     1.00 Bohr mag/cell
     absolute magnetization    =     1.91 Bohr mag/cell

     iteration # 54     ecut=    60.00 Ry     beta= 0.70
     Davidson diagonalization with overlap
     ethr =  4.55E-04,  avg # of iterations =  6.7

     negative rho (up, down):  6.999E-02 5.051E-02

     total cpu time spent up to now is     1001.1 secs

     total energy              =     -19.76622188 Ry
     estimated scf accuracy    <       0.06900245 Ry

     total magnetization       =     1.00 Bohr mag/cell
     absolute magnetization    =     1.99 Bohr mag/cell

     iteration # 55     ecut=    60.00 Ry     beta= 0.70
     Davidson diagonalization with overlap
     ethr =  4.55E-04,  avg # of iterations =  9.4

     negative rho (up, down):  4.973E-02 7.977E-02

     total cpu time spent up to now is     1020.8 secs

     total energy              =     -19.16895128 Ry
     estimated scf accuracy    <       5.15704200 Ry

     total magnetization       =    -0.86 Bohr mag/cell
     absolute magnetization    =     1.64 Bohr mag/cell

     iteration # 56     ecut=    60.00 Ry     beta= 0.70
     Davidson diagonalization with overlap
     ethr =  4.55E-04,  avg # of iterations =  2.9

     negative rho (up, down):  6.648E-02 1.113E-01

     total cpu time spent up to now is     1037.9 secs

     total energy              =     -19.84128097 Ry
     estimated scf accuracy    <       0.19336339 Ry

     total magnetization       =     0.99 Bohr mag/cell
     absolute magnetization    =     1.98 Bohr mag/cell

     iteration # 57     ecut=    60.00 Ry     beta= 0.70
     Davidson diagonalization with overlap
     ethr =  4.55E-04,  avg # of iterations =  1.0

     negative rho (up, down):  4.159E-02 5.402E-02

     total cpu time spent up to now is     1053.7 secs

     total energy              =     -19.86958524 Ry
     estimated scf accuracy    <       0.17238259 Ry

     total magnetization       =     0.98 Bohr mag/cell
     absolute magnetization    =     1.99 Bohr mag/cell

     iteration # 58     ecut=    60.00 Ry     beta= 0.70
     Davidson diagonalization with overlap
     ethr =  4.55E-04,  avg # of iterations =  2.4

     negative rho (up, down):  3.754E-02 3.253E-02

     total cpu time spent up to now is     1070.1 secs

     total energy              =     -19.81884197 Ry
     estimated scf accuracy    <       0.21117545 Ry

     total magnetization       =     1.00 Bohr mag/cell
     absolute magnetization    =     1.96 Bohr mag/cell

     iteration # 59     ecut=    60.00 Ry     beta= 0.70
     Davidson diagonalization with overlap
     ethr =  4.55E-04,  avg # of iterations =  1.0

     negative rho (up, down):  9.713E-02 3.575E-02

     total cpu time spent up to now is     1086.0 secs

     total energy              =     -19.71923529 Ry
     estimated scf accuracy    <       0.13640343 Ry

     total magnetization       =     0.99 Bohr mag/cell
     absolute magnetization    =     1.98 Bohr mag/cell

     iteration # 60     ecut=    60.00 Ry     beta= 0.70
     Davidson diagonalization with overlap
     ethr =  4.55E-04,  avg # of iterations = 11.1

     negative rho (up, down):  5.141E-02 5.386E-02

     total cpu time spent up to now is     1108.9 secs

     total energy              =     -20.07392470 Ry
     estimated scf accuracy    <       6.22350112 Ry

     total magnetization       =    -0.13 Bohr mag/cell
     absolute magnetization    =     0.43 Bohr mag/cell

     iteration # 61     ecut=    60.00 Ry     beta= 0.70
     Davidson diagonalization with overlap
     ethr =  4.55E-04,  avg # of iterations =  3.5

     negative rho (up, down):  4.824E-02 5.613E-02

     total cpu time spent up to now is     1126.6 secs

     total energy              =     -20.09685853 Ry
     estimated scf accuracy    <       5.22219251 Ry

     total magnetization       =    -1.28 Bohr mag/cell
     absolute magnetization    =     2.07 Bohr mag/cell

     iteration # 62     ecut=    60.00 Ry     beta= 0.70
     Davidson diagonalization with overlap
     ethr =  4.55E-04,  avg # of iterations =  1.1

     negative rho (up, down):  4.830E-02 4.626E-02

     total cpu time spent up to now is     1142.4 secs

     total energy              =     -19.75174612 Ry
     estimated scf accuracy    <       5.20991041 Ry

     total magnetization       =    -1.32 Bohr mag/cell
     absolute magnetization    =     2.21 Bohr mag/cell

     iteration # 63     ecut=    60.00 Ry     beta= 0.70
     Davidson diagonalization with overlap
     ethr =  4.55E-04,  avg # of iterations =  1.0

     negative rho (up, down):  5.130E-02 2.553E-02

     total cpu time spent up to now is     1158.3 secs

     total energy              =     -19.77432114 Ry
     estimated scf accuracy    <       4.81168286 Ry

     total magnetization       =    -1.13 Bohr mag/cell
     absolute magnetization    =     2.07 Bohr mag/cell

     iteration # 64     ecut=    60.00 Ry     beta= 0.70
     Davidson diagonalization with overlap
     ethr =  4.55E-04,  avg # of iterations =  1.0

     negative rho (up, down):  4.612E-02 3.547E-02

     total cpu time spent up to now is     1174.2 secs

     total energy              =     -19.81569966 Ry
     estimated scf accuracy    <       4.83802819 Ry

     total magnetization       =    -1.09 Bohr mag/cell
     absolute magnetization    =     2.15 Bohr mag/cell

     iteration # 65     ecut=    60.00 Ry     beta= 0.70
     Davidson diagonalization with overlap
     ethr =  4.55E-04,  avg # of iterations =  1.0

     negative rho (up, down):  5.029E-02 2.985E-02

     total cpu time spent up to now is     1190.1 secs

     total energy              =     -19.87264376 Ry
     estimated scf accuracy    <       4.86878752 Ry

     total magnetization       =    -1.17 Bohr mag/cell
     absolute magnetization    =     1.96 Bohr mag/cell

     iteration # 66     ecut=    60.00 Ry     beta= 0.70
     Davidson diagonalization with overlap
     ethr =  4.55E-04,  avg # of iterations =  1.0

     negative rho (up, down):  8.010E-02 1.206E-02

     total cpu time spent up to now is     1206.0 secs

     total energy              =     -19.73391079 Ry
     estimated scf accuracy    <       4.94599126 Ry

     total magnetization       =    -1.06 Bohr mag/cell
     absolute magnetization    =     2.02 Bohr mag/cell

     iteration # 67     ecut=    60.00 Ry     beta= 0.70
     Davidson diagonalization with overlap
     ethr =  4.55E-04,  avg # of iterations =  1.0

     negative rho (up, down):  1.223E-01 4.432E-04

     total cpu time spent up to now is     1221.9 secs

     total energy              =     -19.60768973 Ry
     estimated scf accuracy    <       4.77876972 Ry

     total magnetization       =    -1.27 Bohr mag/cell
     absolute magnetization    =     2.30 Bohr mag/cell

     iteration # 68     ecut=    60.00 Ry     beta= 0.70
     Davidson diagonalization with overlap
     ethr =  4.55E-04,  avg # of iterations =  1.0

     negative rho (up, down):  8.052E-02 4.081E-04

     total cpu time spent up to now is     1237.8 secs

     total energy              =     -19.58033696 Ry
     estimated scf accuracy    <       4.62170898 Ry

     total magnetization       =    -1.25 Bohr mag/cell
     absolute magnetization    =     2.37 Bohr mag/cell

     iteration # 69     ecut=    60.00 Ry     beta= 0.70
     Davidson diagonalization with overlap
     ethr =  4.55E-04,  avg # of iterations =  1.1

     negative rho (up, down):  1.154E-01 3.932E-04

     total cpu time spent up to now is     1253.7 secs

     total energy              =     -19.38840239 Ry
     estimated scf accuracy    <       4.65947357 Ry

     total magnetization       =    -1.06 Bohr mag/cell
     absolute magnetization    =     2.25 Bohr mag/cell

     iteration # 70     ecut=    60.00 Ry     beta= 0.70
     Davidson diagonalization with overlap
     ethr =  4.55E-04,  avg # of iterations =  1.0

     negative rho (up, down):  2.681E+00 1.853E-01

     total cpu time spent up to now is     1269.5 secs

     total energy              =     -15.55805130 Ry
     estimated scf accuracy    <       4.40568729 Ry

     total magnetization       =    -1.09 Bohr mag/cell
     absolute magnetization    =     2.28 Bohr mag/cell

     iteration # 71     ecut=    60.00 Ry     beta= 0.70
     Davidson diagonalization with overlap
     c_bands:  1 eigenvalues not converged
     ethr =  4.55E-04,  avg # of iterations = 18.4

     negative rho (up, down):  1.012E+00 7.669E-03

     total cpu time spent up to now is     1299.4 secs

     total energy              =     -21.72394424 Ry
     estimated scf accuracy    <       7.65465207 Ry

     total magnetization       =     0.99 Bohr mag/cell
     absolute magnetization    =     1.83 Bohr mag/cell

     iteration # 72     ecut=    60.00 Ry     beta= 0.70
     Davidson diagonalization with overlap
     c_bands:  1 eigenvalues not converged
     c_bands:  1 eigenvalues not converged
     ethr =  4.55E-04,  avg # of iterations = 19.5

     negative rho (up, down):  2.871E-01 6.872E-04

     total cpu time spent up to now is     1324.1 secs

     total energy              =     -20.73931728 Ry
     estimated scf accuracy    <       3.10593791 Ry

     total magnetization       =     1.00 Bohr mag/cell
     absolute magnetization    =     1.89 Bohr mag/cell

     iteration # 73     ecut=    60.00 Ry     beta= 0.70
     Davidson diagonalization with overlap
     ethr =  4.55E-04,  avg # of iterations = 13.2

     negative rho (up, down):  5.134E-02 1.856E-02

     total cpu time spent up to now is     1346.0 secs

     total energy              =     -20.25369876 Ry
     estimated scf accuracy    <       1.55316416 Ry

     total magnetization       =     1.00 Bohr mag/cell
     absolute magnetization    =     1.91 Bohr mag/cell

     iteration # 74     ecut=    60.00 Ry     beta= 0.70
     Davidson diagonalization with overlap
     ethr =  4.55E-04,  avg # of iterations =  3.1

     negative rho (up, down):  3.844E-04 7.207E-02

     total cpu time spent up to now is     1363.5 secs

     total energy              =     -20.06008784 Ry
     estimated scf accuracy    <       0.81093520 Ry

     total magnetization       =     1.00 Bohr mag/cell
     absolute magnetization    =     1.94 Bohr mag/cell

     iteration # 75     ecut=    60.00 Ry     beta= 0.70
     Davidson diagonalization with overlap
     ethr =  4.55E-04,  avg # of iterations =  2.9

     negative rho (up, down):  3.180E-04 2.890E-02

     total cpu time spent up to now is     1380.6 secs

     total energy              =     -19.93074500 Ry
     estimated scf accuracy    <       0.50791158 Ry

     total magnetization       =     1.00 Bohr mag/cell
     absolute magnetization    =     1.95 Bohr mag/cell

     iteration # 76     ecut=    60.00 Ry     beta= 0.70
     Davidson diagonalization with overlap
     ethr =  4.55E-04,  avg # of iterations =  2.2

     negative rho (up, down):  1.811E-03 1.659E-02

     total cpu time spent up to now is     1397.1 secs

     total energy              =     -19.88434648 Ry
     estimated scf accuracy    <       0.30836381 Ry

     total magnetization       =     1.00 Bohr mag/cell
     absolute magnetization    =     1.96 Bohr mag/cell

     iteration # 77     ecut=    60.00 Ry     beta= 0.70
     Davidson diagonalization with overlap
     ethr =  4.55E-04,  avg # of iterations =  1.6

     negative rho (up, down):  2.565E-04 2.398E-02

     total cpu time spent up to now is     1413.6 secs

     total energy              =     -19.89265349 Ry
     estimated scf accuracy    <       0.23463153 Ry

     total magnetization       =     1.00 Bohr mag/cell
     absolute magnetization    =     1.96 Bohr mag/cell

     iteration # 78     ecut=    60.00 Ry     beta= 0.70
     Davidson diagonalization with overlap
     ethr =  4.55E-04,  avg # of iterations =  1.0

     negative rho (up, down):  2.201E-02 3.778E-03

     total cpu time spent up to now is     1429.5 secs

     total energy              =     -19.91957415 Ry
     estimated scf accuracy    <       0.24554493 Ry

     total magnetization       =     1.00 Bohr mag/cell
     absolute magnetization    =     1.96 Bohr mag/cell

     iteration # 79     ecut=    60.00 Ry     beta= 0.70
     Davidson diagonalization with overlap
     ethr =  4.55E-04,  avg # of iterations =  1.0

     negative rho (up, down):  8.503E-03 1.500E-04

     total cpu time spent up to now is     1445.5 secs

     total energy              =     -19.90446973 Ry
     estimated scf accuracy    <       0.28679160 Ry

     total magnetization       =     1.00 Bohr mag/cell
     absolute magnetization    =     1.96 Bohr mag/cell

     iteration # 80     ecut=    60.00 Ry     beta= 0.70
     Davidson diagonalization with overlap
     ethr =  4.55E-04,  avg # of iterations =  5.6

     negative rho (up, down):  6.510E-04 1.444E-04

     total cpu time spent up to now is     1463.1 secs

     total energy              =     -19.86362176 Ry
     estimated scf accuracy    <       0.26336961 Ry

     total magnetization       =     1.00 Bohr mag/cell
     absolute magnetization    =     1.96 Bohr mag/cell

     iteration # 81     ecut=    60.00 Ry     beta= 0.70
     Davidson diagonalization with overlap
     ethr =  4.55E-04,  avg # of iterations =  1.2

     negative rho (up, down):  7.967E-02 2.500E-02

     total cpu time spent up to now is     1479.2 secs

     total energy              =     -19.71326232 Ry
     estimated scf accuracy    <       0.19914502 Ry

     total magnetization       =     1.00 Bohr mag/cell
     absolute magnetization    =     1.96 Bohr mag/cell

     iteration # 82     ecut=    60.00 Ry     beta= 0.70
     Davidson diagonalization with overlap
     ethr =  4.55E-04,  avg # of iterations = 17.4

     negative rho (up, down):  8.766E-04 2.451E-04

     total cpu time spent up to now is     1505.7 secs

     total energy              =     -19.24348205 Ry
     estimated scf accuracy    <       5.72792727 Ry

     total magnetization       =    -0.37 Bohr mag/cell
     absolute magnetization    =     1.35 Bohr mag/cell

     iteration # 83     ecut=    60.00 Ry     beta= 0.70
     Davidson diagonalization with overlap
     ethr =  4.55E-04,  avg # of iterations =  2.6

     negative rho (up, down):  4.045E-03 3.474E-04

     total cpu time spent up to now is     1523.0 secs

     total energy              =     -19.14209994 Ry
     estimated scf accuracy    <       4.18186318 Ry

     total magnetization       =    -0.94 Bohr mag/cell
     absolute magnetization    =     1.77 Bohr mag/cell

     iteration # 84     ecut=    60.00 Ry     beta= 0.70
     Davidson diagonalization with overlap
     ethr =  4.55E-04,  avg # of iterations =  1.0

     negative rho (up, down):  3.236E-03 3.830E-04

     total cpu time spent up to now is     1539.1 secs

     total energy              =     -19.14148663 Ry
     estimated scf accuracy    <       4.03120188 Ry

     total magnetization       =    -1.03 Bohr mag/cell
     absolute magnetization    =     1.90 Bohr mag/cell

     iteration # 85     ecut=    60.00 Ry     beta= 0.70
     Davidson diagonalization with overlap
     ethr =  4.55E-04,  avg # of iterations =  1.0

     negative rho (up, down):  8.136E-04 4.527E-04

     total cpu time spent up to now is     1555.4 secs

     total energy              =     -19.20852392 Ry
     estimated scf accuracy    <       4.03011677 Ry

     total magnetization       =    -1.03 Bohr mag/cell
     absolute magnetization    =     1.91 Bohr mag/cell

     iteration # 86     ecut=    60.00 Ry     beta= 0.70
     Davidson diagonalization with overlap
     ethr =  4.55E-04,  avg # of iterations =  1.1

     negative rho (up, down):  9.750E-04 6.086E-04

     total cpu time spent up to now is     1571.6 secs

     total energy              =     -19.30759369 Ry
     estimated scf accuracy    <       4.12375893 Ry

     total magnetization       =    -0.84 Bohr mag/cell
     absolute magnetization    =     1.66 Bohr mag/cell

     iteration # 87     ecut=    60.00 Ry     beta= 0.70
     Davidson diagonalization with overlap
     ethr =  4.55E-04,  avg # of iterations =  2.0

     negative rho (up, down):  7.946E-04 4.192E-04

     total cpu time spent up to now is     1588.3 secs

     total energy              =     -19.33187171 Ry
     estimated scf accuracy    <       4.23790299 Ry

     total magnetization       =    -0.72 Bohr mag/cell
     absolute magnetization    =     1.37 Bohr mag/cell

     iteration # 88     ecut=    60.00 Ry     beta= 0.70
     Davidson diagonalization with overlap
     ethr =  4.55E-04,  avg # of iterations =  1.6

     negative rho (up, down):  1.351E-02 4.213E-04

     total cpu time spent up to now is     1604.6 secs

     total energy              =     -19.43442353 Ry
     estimated scf accuracy    <       4.28514695 Ry

     total magnetization       =    -0.31 Bohr mag/cell
     absolute magnetization    =     0.94 Bohr mag/cell

     iteration # 89     ecut=    60.00 Ry     beta= 0.70
     Davidson diagonalization with overlap
     ethr =  4.55E-04,  avg # of iterations =  1.4

     negative rho (up, down):  1.533E-03 2.384E-03

     total cpu time spent up to now is     1620.8 secs

     total energy              =     -19.63098687 Ry
     estimated scf accuracy    <       4.43575642 Ry

     total magnetization       =    -1.05 Bohr mag/cell
     absolute magnetization    =     1.94 Bohr mag/cell

     iteration # 90     ecut=    60.00 Ry     beta= 0.70
     Davidson diagonalization with overlap
     ethr =  4.55E-04,  avg # of iterations =  2.0

     negative rho (up, down):  5.787E-02 2.554E-03

     total cpu time spent up to now is     1637.3 secs

     total energy              =     -19.82408448 Ry
     estimated scf accuracy    <       4.72514350 Ry

     total magnetization       =    -1.00 Bohr mag/cell
     absolute magnetization    =     1.72 Bohr mag/cell

     iteration # 91     ecut=    60.00 Ry     beta= 0.70
     Davidson diagonalization with overlap
     ethr =  4.55E-04,  avg # of iterations =  1.8

     negative rho (up, down):  1.302E-02 1.747E-03

     total cpu time spent up to now is     1653.8 secs

     total energy              =     -19.30609820 Ry
     estimated scf accuracy    <       4.95848909 Ry

     total magnetization       =    -0.90 Bohr mag/cell
     absolute magnetization    =     1.71 Bohr mag/cell

     iteration # 92     ecut=    60.00 Ry     beta= 0.70
     Davidson diagonalization with overlap
     ethr =  4.55E-04,  avg # of iterations =  2.5

     negative rho (up, down):  6.043E-01 4.482E-01

     total cpu time spent up to now is     1670.1 secs

     total energy              =     -15.57556257 Ry
     estimated scf accuracy    <       4.34412854 Ry

     total magnetization       =    -1.03 Bohr mag/cell
     absolute magnetization    =     1.80 Bohr mag/cell

     iteration # 93     ecut=    60.00 Ry     beta= 0.70
     Davidson diagonalization with overlap
     ethr =  4.55E-04,  avg # of iterations = 13.8

     negative rho (up, down):  1.028E-01 1.016E-01

     total cpu time spent up to now is     1698.7 secs

     total energy              =     -21.92047624 Ry
     estimated scf accuracy    <       7.39084689 Ry

     total magnetization       =     1.01 Bohr mag/cell
     absolute magnetization    =     1.85 Bohr mag/cell

     iteration # 94     ecut=    60.00 Ry     beta= 0.70
     Davidson diagonalization with overlap
     ethr =  4.55E-04,  avg # of iterations = 10.6

     negative rho (up, down):  5.623E-04 3.459E-04

     total cpu time spent up to now is     1720.5 secs

     total energy              =     -20.37176657 Ry
     estimated scf accuracy    <       3.27848798 Ry

     total magnetization       =     1.00 Bohr mag/cell
     absolute magnetization    =     1.88 Bohr mag/cell

     iteration # 95     ecut=    60.00 Ry     beta= 0.70
     Davidson diagonalization with overlap
     ethr =  4.55E-04,  avg # of iterations = 14.9

     negative rho (up, down):  4.381E-04 2.561E-04

     total cpu time spent up to now is     1745.2 secs

     total energy              =     -20.25271957 Ry
     estimated scf accuracy    <       1.05147892 Ry

     total magnetization       =     1.00 Bohr mag/cell
     absolute magnetization    =     1.93 Bohr mag/cell

     iteration # 96     ecut=    60.00 Ry     beta= 0.70
     Davidson diagonalization with overlap
     ethr =  4.55E-04,  avg # of iterations =  2.2

     negative rho (up, down):  3.500E-04 6.032E-04

     total cpu time spent up to now is     1761.9 secs

     total energy              =     -20.03585452 Ry
     estimated scf accuracy    <       0.77704331 Ry

     total magnetization       =     1.00 Bohr mag/cell
     absolute magnetization    =     1.94 Bohr mag/cell

     iteration # 97     ecut=    60.00 Ry     beta= 0.70
     Davidson diagonalization with overlap
     ethr =  4.55E-04,  avg # of iterations =  2.0

     negative rho (up, down):  3.807E-04 2.097E-04

     total cpu time spent up to now is     1778.9 secs

     total energy              =     -20.11555710 Ry
     estimated scf accuracy    <       0.46161576 Ry

     total magnetization       =     1.00 Bohr mag/cell
     absolute magnetization    =     1.95 Bohr mag/cell

     iteration # 98     ecut=    60.00 Ry     beta= 0.70
     Davidson diagonalization with overlap
     ethr =  4.55E-04,  avg # of iterations =  1.0

     negative rho (up, down):  3.265E-04 1.753E-04

     total cpu time spent up to now is     1795.1 secs

     total energy              =     -20.04952577 Ry
     estimated scf accuracy    <       0.57431684 Ry

     total magnetization       =     1.00 Bohr mag/cell
     absolute magnetization    =     1.95 Bohr mag/cell

     iteration # 99     ecut=    60.00 Ry     beta= 0.70
     Davidson diagonalization with overlap
     ethr =  4.55E-04,  avg # of iterations =  1.0

     negative rho (up, down):  4.112E-03 1.625E-04

     total cpu time spent up to now is     1811.2 secs

     total energy              =     -19.83502103 Ry
     estimated scf accuracy    <       0.48384817 Ry

     total magnetization       =     1.00 Bohr mag/cell
     absolute magnetization    =     1.95 Bohr mag/cell

     iteration #100     ecut=    60.00 Ry     beta= 0.70
     Davidson diagonalization with overlap
     ethr =  4.55E-04,  avg # of iterations =  3.9

     negative rho (up, down):  3.081E-02 1.387E-02

     total cpu time spent up to now is     1829.1 secs

     total energy              =     -19.73052294 Ry
     estimated scf accuracy    <       0.19285682 Ry

     total magnetization       =     1.06 Bohr mag/cell
     absolute magnetization    =     1.99 Bohr mag/cell

     iteration #101     ecut=    60.00 Ry     beta= 0.70
     Davidson diagonalization with overlap
     ethr =  4.55E-04,  avg # of iterations = 14.3

     negative rho (up, down):  4.988E-03 1.503E-03

     total cpu time spent up to now is     1854.1 secs

     total energy              =     -19.92247223 Ry
     estimated scf accuracy    <       5.28601855 Ry

     total magnetization       =    -0.98 Bohr mag/cell
     absolute magnetization    =     1.84 Bohr mag/cell

     iteration #102     ecut=    60.00 Ry     beta= 0.70
     Davidson diagonalization with overlap
     ethr =  4.55E-04,  avg # of iterations =  1.9

     negative rho (up, down):  8.919E-03 2.641E-03

     total cpu time spent up to now is     1870.2 secs

     total energy              =     -19.96702114 Ry
     estimated scf accuracy    <       5.17507556 Ry

     total magnetization       =    -1.02 Bohr mag/cell
     absolute magnetization    =     1.81 Bohr mag/cell

     iteration #103     ecut=    60.00 Ry     beta= 0.70
     Davidson diagonalization with overlap
     ethr =  4.55E-04,  avg # of iterations =  1.0

     negative rho (up, down):  3.742E-03 4.732E-04

     total cpu time spent up to now is     1886.2 secs

     total energy              =     -19.75941407 Ry
     estimated scf accuracy    <       5.25061799 Ry

     total magnetization       =    -1.07 Bohr mag/cell
     absolute magnetization    =     1.82 Bohr mag/cell

     iteration #104     ecut=    60.00 Ry     beta= 0.70
     Davidson diagonalization with overlap
     ethr =  4.55E-04,  avg # of iterations =  1.0

     negative rho (up, down):  4.656E-03 4.621E-04

     total cpu time spent up to now is     1902.2 secs

     total energy              =     -19.76831949 Ry
     estimated scf accuracy    <       2.30065375 Ry

     total magnetization       =     0.42 Bohr mag/cell
     absolute magnetization    =     2.00 Bohr mag/cell

     iteration #105     ecut=    60.00 Ry     beta= 0.70
     Davidson diagonalization with overlap
     ethr =  4.55E-04,  avg # of iterations =  1.0

     negative rho (up, down):  3.841E-03 4.322E-04

     total cpu time spent up to now is     1918.3 secs

     total energy              =     -19.73488738 Ry
     estimated scf accuracy    <       2.30293865 Ry

     total magnetization       =     0.43 Bohr mag/cell
     absolute magnetization    =     2.00 Bohr mag/cell

     iteration #106     ecut=    60.00 Ry     beta= 0.70
     Davidson diagonalization with overlap
     ethr =  4.55E-04,  avg # of iterations =  1.0

     negative rho (up, down):  3.925E-03 3.253E-04

     total cpu time spent up to now is     1934.2 secs

     total energy              =     -19.74014555 Ry
     estimated scf accuracy    <       1.55770845 Ry

     total magnetization       =     0.18 Bohr mag/cell
     absolute magnetization    =     1.84 Bohr mag/cell

     iteration #107     ecut=    60.00 Ry     beta= 0.70
     Davidson diagonalization with overlap
     ethr =  4.55E-04,  avg # of iterations =  1.0

     negative rho (up, down):  6.859E-03 2.959E-04

     total cpu time spent up to now is     1950.2 secs

     total energy              =     -19.71552970 Ry
     estimated scf accuracy    <       1.59573909 Ry

     total magnetization       =     0.19 Bohr mag/cell
     absolute magnetization    =     1.85 Bohr mag/cell

     iteration #108     ecut=    60.00 Ry     beta= 0.70
     Davidson diagonalization with overlap
     ethr =  4.55E-04,  avg # of iterations =  1.0

     negative rho (up, down):  1.776E-02 2.745E-04

     total cpu time spent up to now is     1966.0 secs

     total energy              =     -19.73606249 Ry
     estimated scf accuracy    <       1.50574395 Ry

     total magnetization       =     0.40 Bohr mag/cell
     absolute magnetization    =     1.98 Bohr mag/cell

     iteration #109     ecut=    60.00 Ry     beta= 0.70
     Davidson diagonalization with overlap
     ethr =  4.55E-04,  avg # of iterations =  1.0

     negative rho (up, down):  4.034E-04 2.442E-04

     total cpu time spent up to now is     1982.2 secs

     total energy              =     -19.50568926 Ry
     estimated scf accuracy    <       1.56408898 Ry

     total magnetization       =     0.43 Bohr mag/cell
     absolute magnetization    =     1.90 Bohr mag/cell

     iteration #110     ecut=    60.00 Ry     beta= 0.70
     Davidson diagonalization with overlap
     ethr =  4.55E-04,  avg # of iterations =  1.9

     negative rho (up, down):  4.231E-04 2.374E-04

     total cpu time spent up to now is     1998.7 secs

     total energy              =     -19.46624636 Ry
     estimated scf accuracy    <       1.20279047 Ry

     total magnetization       =    -0.05 Bohr mag/cell
     absolute magnetization    =     1.99 Bohr mag/cell

     iteration #111     ecut=    60.00 Ry     beta= 0.70
     Davidson diagonalization with overlap
     ethr =  4.55E-04,  avg # of iterations =  1.0

     negative rho (up, down):  6.849E-02 7.548E-02

     total cpu time spent up to now is     2014.5 secs

     total energy              =     -18.62629018 Ry
     estimated scf accuracy    <       1.13312520 Ry

     total magnetization       =    -0.08 Bohr mag/cell
     absolute magnetization    =     2.05 Bohr mag/cell

     iteration #112     ecut=    60.00 Ry     beta= 0.70
     Davidson diagonalization with overlap
     ethr =  4.55E-04,  avg # of iterations =  6.6

     negative rho (up, down):  5.931E-03 1.124E-04

     total cpu time spent up to now is     2035.4 secs

     total energy              =     -19.74941480 Ry
     estimated scf accuracy    <       0.63031356 Ry

     total magnetization       =    -0.50 Bohr mag/cell
     absolute magnetization    =     1.43 Bohr mag/cell

     iteration #113     ecut=    60.00 Ry     beta= 0.70
     Davidson diagonalization with overlap
     ethr =  4.55E-04,  avg # of iterations =  3.9

     negative rho (up, down):  7.456E-04 3.043E-04

     total cpu time spent up to now is     2054.0 secs

     total energy              =     -19.94550564 Ry
     estimated scf accuracy    <       0.94044271 Ry

     total magnetization       =    -0.50 Bohr mag/cell
     absolute magnetization    =     1.03 Bohr mag/cell

     iteration #114     ecut=    60.00 Ry     beta= 0.70
     Davidson diagonalization with overlap
     ethr =  4.55E-04,  avg # of iterations =  2.2

     negative rho (up, down):  1.018E-02 2.022E-02

     total cpu time spent up to now is     2070.8 secs

     total energy              =     -19.76883657 Ry
     estimated scf accuracy    <       0.54035035 Ry

     total magnetization       =    -0.50 Bohr mag/cell
     absolute magnetization    =     1.13 Bohr mag/cell

     iteration #115     ecut=    60.00 Ry     beta= 0.70
     Davidson diagonalization with overlap
     ethr =  4.55E-04,  avg # of iterations =  2.5

     negative rho (up, down):  6.229E-02 4.209E-01

     total cpu time spent up to now is     2087.5 secs

     total energy              =     -19.59737890 Ry
     estimated scf accuracy    <       0.25199717 Ry

     total magnetization       =    -0.50 Bohr mag/cell
     absolute magnetization    =     1.15 Bohr mag/cell

     iteration #116     ecut=    60.00 Ry     beta= 0.70
     Davidson diagonalization with overlap
     ethr =  4.55E-04,  avg # of iterations = 10.1

     negative rho (up, down):  4.833E-02 3.928E-01

     total cpu time spent up to now is     2111.0 secs

     total energy              =     -21.18905692 Ry
     estimated scf accuracy    <       6.72035144 Ry

     total magnetization       =    -0.24 Bohr mag/cell
     absolute magnetization    =     1.08 Bohr mag/cell

     iteration #117     ecut=    60.00 Ry     beta= 0.70
     Davidson diagonalization with overlap
     ethr =  4.55E-04,  avg # of iterations =  1.8

     negative rho (up, down):  4.693E-02 2.991E-01

     total cpu time spent up to now is     2127.1 secs

     total energy              =     -20.77942046 Ry
     estimated scf accuracy    <       6.53270273 Ry

     total magnetization       =    -0.37 Bohr mag/cell
     absolute magnetization    =     1.19 Bohr mag/cell

     iteration #118     ecut=    60.00 Ry     beta= 0.70
     Davidson diagonalization with overlap
     ethr =  4.55E-04,  avg # of iterations =  2.7

     negative rho (up, down):  8.970E-02 2.298E-01

     total cpu time spent up to now is     2143.4 secs

     total energy              =     -20.74069562 Ry
     estimated scf accuracy    <       6.09219519 Ry

     total magnetization       =    -0.87 Bohr mag/cell
     absolute magnetization    =     1.27 Bohr mag/cell

     iteration #119     ecut=    60.00 Ry     beta= 0.70
     Davidson diagonalization with overlap
     ethr =  4.55E-04,  avg # of iterations =  4.0

     negative rho (up, down):  9.027E-02 1.973E-01

     total cpu time spent up to now is     2160.5 secs

     total energy              =     -20.51597115 Ry
     estimated scf accuracy    <       5.95944846 Ry

     total magnetization       =    -1.05 Bohr mag/cell
     absolute magnetization    =     1.92 Bohr mag/cell

     iteration #120     ecut=    60.00 Ry     beta= 0.70
     Davidson diagonalization with overlap
     ethr =  4.55E-04,  avg # of iterations =  2.4

     negative rho (up, down):  6.864E-02 2.008E-01

     total cpu time spent up to now is     2177.2 secs

     total energy              =     -20.48649844 Ry
     estimated scf accuracy    <       5.64023958 Ry

     total magnetization       =    -0.98 Bohr mag/cell
     absolute magnetization    =     2.43 Bohr mag/cell

     iteration #121     ecut=    60.00 Ry     beta= 0.70
     Davidson diagonalization with overlap
     ethr =  4.55E-04,  avg # of iterations =  1.0

     negative rho (up, down):  5.194E-02 2.000E-01

     total cpu time spent up to now is     2193.1 secs

     total energy              =     -20.48778915 Ry
     estimated scf accuracy    <       5.59552351 Ry

     total magnetization       =    -0.97 Bohr mag/cell
     absolute magnetization    =     2.52 Bohr mag/cell

     iteration #122     ecut=    60.00 Ry     beta= 0.70
     Davidson diagonalization with overlap
     ethr =  4.55E-04,  avg # of iterations =  1.0

     negative rho (up, down):  3.324E-02 9.733E-02

     total cpu time spent up to now is     2209.0 secs

     total energy              =     -19.89942829 Ry
     estimated scf accuracy    <       5.59509505 Ry

     total magnetization       =    -0.97 Bohr mag/cell
     absolute magnetization    =     2.55 Bohr mag/cell

     iteration #123     ecut=    60.00 Ry     beta= 0.70
     Davidson diagonalization with overlap
     ethr =  4.55E-04,  avg # of iterations =  3.3

     negative rho (up, down):  7.108E-02 7.809E-02

     total cpu time spent up to now is     2226.2 secs

     total energy              =     -19.82353984 Ry
     estimated scf accuracy    <       4.90864454 Ry

     total magnetization       =    -1.04 Bohr mag/cell
     absolute magnetization    =     2.70 Bohr mag/cell

     iteration #124     ecut=    60.00 Ry     beta= 0.70
     Davidson diagonalization with overlap
     ethr =  4.55E-04,  avg # of iterations =  1.6

     negative rho (up, down):  8.794E-02 6.080E-02

     total cpu time spent up to now is     2242.3 secs

     total energy              =     -19.33597686 Ry
     estimated scf accuracy    <       4.79143886 Ry

     total magnetization       =    -1.20 Bohr mag/cell
     absolute magnetization    =     2.54 Bohr mag/cell

     iteration #125     ecut=    60.00 Ry     beta= 0.70
     Davidson diagonalization with overlap
     ethr =  4.55E-04,  avg # of iterations =  4.0

     negative rho (up, down):  8.443E-02 6.512E-02

     total cpu time spent up to now is     2259.4 secs

     total energy              =     -19.32055955 Ry
     estimated scf accuracy    <       4.20423192 Ry

     total magnetization       =    -1.18 Bohr mag/cell
     absolute magnetization    =     2.59 Bohr mag/cell

     iteration #126     ecut=    60.00 Ry     beta= 0.70
     Davidson diagonalization with overlap
     ethr =  4.55E-04,  avg # of iterations =  1.0

     negative rho (up, down):  3.212E-01 4.761E-01

     total cpu time spent up to now is     2275.3 secs

     total energy              =     -15.61899859 Ry
     estimated scf accuracy    <       4.17496278 Ry

     total magnetization       =    -1.04 Bohr mag/cell
     absolute magnetization    =     2.72 Bohr mag/cell

     iteration #127     ecut=    60.00 Ry     beta= 0.70
     Davidson diagonalization with overlap
     ethr =  4.55E-04,  avg # of iterations = 15.1

     negative rho (up, down):  1.190E-01 6.005E-02

     total cpu time spent up to now is     2304.0 secs

     total energy              =     -21.42926200 Ry
     estimated scf accuracy    <       7.20076431 Ry

     total magnetization       =     1.62 Bohr mag/cell
     absolute magnetization    =     1.81 Bohr mag/cell

     iteration #128     ecut=    60.00 Ry     beta= 0.70
     Davidson diagonalization with overlap
     c_bands:  1 eigenvalues not converged
     c_bands:  1 eigenvalues not converged
     ethr =  4.55E-04,  avg # of iterations = 19.1

     negative rho (up, down):  5.081E-02 1.396E-02

     total cpu time spent up to now is     2329.7 secs

     total energy              =     -20.60481132 Ry
     estimated scf accuracy    <       2.70105317 Ry

     total magnetization       =     1.00 Bohr mag/cell
     absolute magnetization    =     1.87 Bohr mag/cell

     iteration #129     ecut=    60.00 Ry     beta= 0.70
     Davidson diagonalization with overlap
     ethr =  4.55E-04,  avg # of iterations = 11.0

     negative rho (up, down):  5.464E-02 1.337E-03

     total cpu time spent up to now is     2350.3 secs

     total energy              =     -20.14982561 Ry
     estimated scf accuracy    <       1.36344653 Ry

     total magnetization       =     1.07 Bohr mag/cell
     absolute magnetization    =     1.93 Bohr mag/cell

     iteration #130     ecut=    60.00 Ry     beta= 0.70
     Davidson diagonalization with overlap
     ethr =  4.55E-04,  avg # of iterations =  3.0

     negative rho (up, down):  5.732E-02 8.028E-03

     total cpu time spent up to now is     2367.6 secs

     total energy              =     -19.81745632 Ry
     estimated scf accuracy    <       0.66597653 Ry

     total magnetization       =     1.01 Bohr mag/cell
     absolute magnetization    =     1.94 Bohr mag/cell

     iteration #131     ecut=    60.00 Ry     beta= 0.70
     Davidson diagonalization with overlap
     ethr =  4.55E-04,  avg # of iterations =  3.6

     negative rho (up, down):  9.967E-02 1.253E-02

     total cpu time spent up to now is     2385.6 secs

     total energy              =     -19.74970452 Ry
     estimated scf accuracy    <       0.15158129 Ry

     total magnetization       =     0.96 Bohr mag/cell
     absolute magnetization    =     1.99 Bohr mag/cell

     iteration #132     ecut=    60.00 Ry     beta= 0.70
     Davidson diagonalization with overlap
     ethr =  4.55E-04,  avg # of iterations = 12.5

     negative rho (up, down):  6.064E-02 1.292E-02

     total cpu time spent up to now is     2409.6 secs

     total energy              =     -19.57676764 Ry
     estimated scf accuracy    <       5.16711749 Ry

     total magnetization       =    -1.13 Bohr mag/cell
     absolute magnetization    =     1.55 Bohr mag/cell

     iteration #133     ecut=    60.00 Ry     beta= 0.70
     Davidson diagonalization with overlap
     ethr =  4.55E-04,  avg # of iterations =  3.0

     negative rho (up, down):  7.311E-02 1.035E-02

     total cpu time spent up to now is     2426.6 secs

     total energy              =     -19.77393118 Ry
     estimated scf accuracy    <       0.07287001 Ry

     total magnetization       =     0.81 Bohr mag/cell
     absolute magnetization    =     2.51 Bohr mag/cell

     iteration #134     ecut=    60.00 Ry     beta= 0.70
     Davidson diagonalization with overlap
     ethr =  4.55E-04,  avg # of iterations =  1.4

     negative rho (up, down):  7.626E-02 1.691E-02

     total cpu time spent up to now is     2448.3 secs

     total energy              =     -19.79050681 Ry
     estimated scf accuracy    <       0.07622470 Ry

     total magnetization       =     0.81 Bohr mag/cell
     absolute magnetization    =     2.50 Bohr mag/cell

     iteration #135     ecut=    60.00 Ry     beta= 0.70
     Davidson diagonalization with overlap
     ethr =  4.55E-04,  avg # of iterations =  1.0

     negative rho (up, down):  1.403E-01 3.956E-02

     total cpu time spent up to now is     2464.9 secs

     total energy              =     -19.89403199 Ry
     estimated scf accuracy    <       0.94641854 Ry

     total magnetization       =     0.64 Bohr mag/cell
     absolute magnetization    =     2.54 Bohr mag/cell

     iteration #136     ecut=    60.00 Ry     beta= 0.70
     Davidson diagonalization with overlap
     ethr =  4.55E-04,  avg # of iterations =  4.2

     negative rho (up, down):  4.738E-02 2.813E-02

     total cpu time spent up to now is     2482.4 secs

     total energy              =     -19.77208415 Ry
     estimated scf accuracy    <       5.12482946 Ry

     total magnetization       =    -1.10 Bohr mag/cell
     absolute magnetization    =     1.55 Bohr mag/cell

     iteration #137     ecut=    60.00 Ry     beta= 0.70
     Davidson diagonalization with overlap
     ethr =  4.55E-04,  avg # of iterations =  2.5

     negative rho (up, down):  2.001E-02 2.032E-03

     total cpu time spent up to now is     2498.8 secs

     total energy              =     -19.73076046 Ry
     estimated scf accuracy    <       1.21128040 Ry

     total magnetization       =    -0.24 Bohr mag/cell
     absolute magnetization    =     3.10 Bohr mag/cell

     iteration #138     ecut=    60.00 Ry     beta= 0.70
     Davidson diagonalization with overlap
     ethr =  4.55E-04,  avg # of iterations =  1.1

     negative rho (up, down):  1.120E-02 1.515E-03

     total cpu time spent up to now is     2514.8 secs

     total energy              =     -19.67973850 Ry
     estimated scf accuracy    <       0.52941523 Ry

     total magnetization       =    -0.20 Bohr mag/cell
     absolute magnetization    =     2.48 Bohr mag/cell

     iteration #139     ecut=    60.00 Ry     beta= 0.70
     Davidson diagonalization with overlap
     ethr =  4.55E-04,  avg # of iterations =  1.8

     negative rho (up, down):  1.496E-02 4.886E-04

     total cpu time spent up to now is     2531.2 secs

     total energy              =     -19.65921072 Ry
     estimated scf accuracy    <       0.43571017 Ry

     total magnetization       =    -0.32 Bohr mag/cell
     absolute magnetization    =     2.60 Bohr mag/cell

     iteration #140     ecut=    60.00 Ry     beta= 0.70
     Davidson diagonalization with overlap
     ethr =  4.55E-04,  avg # of iterations =  1.1

     negative rho (up, down):  1.060E-02 3.163E-04

     total cpu time spent up to now is     2547.2 secs

     total energy              =     -19.65783586 Ry
     estimated scf accuracy    <       0.39663148 Ry

     total magnetization       =    -0.26 Bohr mag/cell
     absolute magnetization    =     2.54 Bohr mag/cell

     iteration #141     ecut=    60.00 Ry     beta= 0.70
     Davidson diagonalization with overlap
     ethr =  4.55E-04,  avg # of iterations =  1.0

     negative rho (up, down):  1.103E-02 4.638E-04

     total cpu time spent up to now is     2563.2 secs

     total energy              =     -19.68203732 Ry
     estimated scf accuracy    <       0.39225227 Ry

     total magnetization       =    -0.28 Bohr mag/cell
     absolute magnetization    =     2.56 Bohr mag/cell

     iteration #142     ecut=    60.00 Ry     beta= 0.70
     Davidson diagonalization with overlap
     ethr =  4.55E-04,  avg # of iterations =  1.0

     negative rho (up, down):  4.556E-02 5.933E-04

     total cpu time spent up to now is     2579.1 secs

     total energy              =     -19.69370431 Ry
     estimated scf accuracy    <       0.42574881 Ry

     total magnetization       =    -0.30 Bohr mag/cell
     absolute magnetization    =     2.57 Bohr mag/cell

     iteration #143     ecut=    60.00 Ry     beta= 0.70
     Davidson diagonalization with overlap
     ethr =  4.55E-04,  avg # of iterations =  1.9

     negative rho (up, down):  6.974E-02 3.556E-03

     total cpu time spent up to now is     2595.5 secs

     total energy              =     -19.67718092 Ry
     estimated scf accuracy    <       0.32162722 Ry

     total magnetization       =    -0.26 Bohr mag/cell
     absolute magnetization    =     2.44 Bohr mag/cell

     iteration #144     ecut=    60.00 Ry     beta= 0.70
     Davidson diagonalization with overlap
     ethr =  4.55E-04,  avg # of iterations =  1.0

     negative rho (up, down):  7.494E-02 3.221E-03

     total cpu time spent up to now is     2611.3 secs

     total energy              =     -19.61709861 Ry
     estimated scf accuracy    <       0.28327625 Ry

     total magnetization       =    -0.26 Bohr mag/cell
     absolute magnetization    =     2.44 Bohr mag/cell

     iteration #145     ecut=    60.00 Ry     beta= 0.70
     Davidson diagonalization with overlap
     ethr =  4.55E-04,  avg # of iterations =  1.6

     negative rho (up, down):  1.259E-02 1.422E-01

     total cpu time spent up to now is     2627.6 secs

     total energy              =     -19.54535583 Ry
     estimated scf accuracy    <       0.19739807 Ry

     total magnetization       =    -0.26 Bohr mag/cell
     absolute magnetization    =     2.43 Bohr mag/cell

     iteration #146     ecut=    60.00 Ry     beta= 0.70
     Davidson diagonalization with overlap
     ethr =  4.55E-04,  avg # of iterations =  3.2

     negative rho (up, down):  2.432E-04 3.177E-01

     total cpu time spent up to now is     2645.4 secs

     total energy              =     -19.48597046 Ry
     estimated scf accuracy    <       0.12129332 Ry

     total magnetization       =     0.67 Bohr mag/cell
     absolute magnetization    =     2.06 Bohr mag/cell

     iteration #147     ecut=    60.00 Ry     beta= 0.70
     Davidson diagonalization with overlap
     ethr =  4.55E-04,  avg # of iterations =  5.2

     negative rho (up, down):  3.564E-03 2.842E-01

     total cpu time spent up to now is     2663.7 secs

     total energy              =     -19.63268510 Ry
     estimated scf accuracy    <       0.17580693 Ry

     total magnetization       =     1.69 Bohr mag/cell
     absolute magnetization    =     2.35 Bohr mag/cell

     iteration #148     ecut=    60.00 Ry     beta= 0.70
     Davidson diagonalization with overlap
     ethr =  4.55E-04,  avg # of iterations =  3.6

     negative rho (up, down):  1.734E-02 1.680E-01

     total cpu time spent up to now is     2681.5 secs

     total energy              =     -19.74404989 Ry
     estimated scf accuracy    <       0.06067876 Ry

     total magnetization       =     1.60 Bohr mag/cell
     absolute magnetization    =     2.21 Bohr mag/cell

     iteration #149     ecut=    60.00 Ry     beta= 0.70
     Davidson diagonalization with overlap
     ethr =  4.55E-04,  avg # of iterations =  2.8

     negative rho (up, down):  2.324E-02 2.397E-01

     total cpu time spent up to now is     2698.2 secs

     total energy              =     -19.74751341 Ry
     estimated scf accuracy    <       0.01891211 Ry

     total magnetization       =     1.69 Bohr mag/cell
     absolute magnetization    =     2.31 Bohr mag/cell

     iteration #150     ecut=    60.00 Ry     beta= 0.70
     Davidson diagonalization with overlap
     ethr =  3.78E-04,  avg # of iterations =  3.3

     negative rho (up, down):  2.138E-02 1.571E-01

     total cpu time spent up to now is     2715.5 secs

     total energy              =     -19.79207721 Ry
     estimated scf accuracy    <       0.04801431 Ry

     total magnetization       =     1.66 Bohr mag/cell
     absolute magnetization    =     2.24 Bohr mag/cell

     iteration #151     ecut=    60.00 Ry     beta= 0.70
     Davidson diagonalization with overlap
     ethr =  3.78E-04,  avg # of iterations =  2.2

     negative rho (up, down):  1.024E-01 3.082E-03

     total cpu time spent up to now is     2732.1 secs

     total energy              =     -19.77699837 Ry
     estimated scf accuracy    <       0.04771483 Ry

     total magnetization       =     1.66 Bohr mag/cell
     absolute magnetization    =     2.23 Bohr mag/cell

     iteration #152     ecut=    60.00 Ry     beta= 0.70
     Davidson diagonalization with overlap
     ethr =  3.78E-04,  avg # of iterations =  2.5

     negative rho (up, down):  4.269E-02 5.206E-02

     total cpu time spent up to now is     2748.8 secs

     total energy              =     -19.77133236 Ry
     estimated scf accuracy    <       0.03843699 Ry

     total magnetization       =     1.39 Bohr mag/cell
     absolute magnetization    =     2.34 Bohr mag/cell

     iteration #153     ecut=    60.00 Ry     beta= 0.70
     Davidson diagonalization with overlap
     ethr =  3.78E-04,  avg # of iterations =  2.9

     negative rho (up, down):  6.785E-02 1.400E-03

     total cpu time spent up to now is     2765.3 secs

     total energy              =     -19.77981572 Ry
     estimated scf accuracy    <       0.00991926 Ry

[...]

     iteration #706     ecut=    60.00 Ry     beta= 0.70
     Davidson diagonalization with overlap
     ethr =  1.56E-09,  avg # of iterations =  7.6

     negative rho (up, down):  1.796E-04 7.636E-05

     total cpu time spent up to now is    14381.1 secs

     total energy              =     -19.78535199 Ry
     estimated scf accuracy    <       0.00000020 Ry

     total magnetization       =     1.33 Bohr mag/cell
     absolute magnetization    =     2.11 Bohr mag/cell

     iteration #707     ecut=    60.00 Ry     beta= 0.70
     Davidson diagonalization with overlap
     ethr =  1.56E-09,  avg # of iterations = 11.2

     negative rho (up, down):  1.796E-04 7.631E-05

     total cpu time spent up to now is    14401.1 secs

     total energy              =     -19.78536741 Ry
     estimated scf accuracy    <       0.00000091 Ry

     total magnetization       =     1.33 Bohr mag/cell
     absolute magnetization    =     2.11 Bohr mag/cell

     iteration #708     ecut=    60.00 Ry     beta= 0.70
     Davidson diagonalization with overlap
     ethr =  1.56E-09,  avg # of iterations =  9.8

     negative rho (up, down):  1.796E-04 7.611E-05

     total cpu time spent up to now is    14419.5 secs

     total energy              =     -19.78528380 Ry
     estimated scf accuracy    <       0.00000085 Ry

     total magnetization       =     1.33 Bohr mag/cell
     absolute magnetization    =     2.11 Bohr mag/cell

     iteration #709     ecut=    60.00 Ry     beta= 0.70
     Davidson diagonalization with overlap
     ethr =  1.56E-09,  avg # of iterations = 13.1

     negative rho (up, down):  1.796E-04 7.624E-05

     total cpu time spent up to now is    14440.4 secs

     total energy              =     -19.78537015 Ry
     estimated scf accuracy    <       0.00000008 Ry

     total magnetization       =     1.33 Bohr mag/cell
     absolute magnetization    =     2.10 Bohr mag/cell

     iteration #710     ecut=    60.00 Ry     beta= 0.70
     Davidson diagonalization with overlap
     ethr =  1.56E-09,  avg # of iterations =  8.8

     negative rho (up, down):  1.795E-04 7.631E-05

     total cpu time spent up to now is    14458.4 secs

     total energy              =     -19.78536201 Ry
     estimated scf accuracy    <       0.00000007 Ry

     total magnetization       =     1.33 Bohr mag/cell
     absolute magnetization    =     2.10 Bohr mag/cell

     iteration #711     ecut=    60.00 Ry     beta= 0.70
     Davidson diagonalization with overlap
     ethr =  1.36E-09,  avg # of iterations = 10.4

     negative rho (up, down):  1.795E-04 7.633E-05

     total cpu time spent up to now is    14477.0 secs

     total energy              =     -19.78536771 Ry
     estimated scf accuracy    <       0.00000048 Ry

     total magnetization       =     1.33 Bohr mag/cell
     absolute magnetization    =     2.10 Bohr mag/cell

     iteration #712     ecut=    60.00 Ry     beta= 0.70
     Davidson diagonalization with overlap
     ethr =  1.36E-09,  avg # of iterations =  9.9

     negative rho (up, down):  1.796E-04 7.631E-05

     total cpu time spent up to now is    14495.4 secs

     total energy              =     -19.78537109 Ry
     estimated scf accuracy    <       0.00000014 Ry

     total magnetization       =     1.33 Bohr mag/cell
     absolute magnetization    =     2.10 Bohr mag/cell

     iteration #713     ecut=    60.00 Ry     beta= 0.70
     Davidson diagonalization with overlap
     ethr =  1.36E-09,  avg # of iterations =  8.4

     negative rho (up, down):  1.795E-04 7.633E-05

     total cpu time spent up to now is    14513.3 secs

     total energy              =     -19.78535588 Ry
     estimated scf accuracy    <       0.00000011 Ry

     total magnetization       =     1.33 Bohr mag/cell
     absolute magnetization    =     2.10 Bohr mag/cell

     iteration #714     ecut=    60.00 Ry     beta= 0.70
     Davidson diagonalization with overlap
     ethr =  1.36E-09,  avg # of iterations = 11.2

     negative rho (up, down):  1.796E-04 7.628E-05

     total cpu time spent up to now is    14532.6 secs

     total energy              =     -19.78536953 Ry
     estimated scf accuracy    <       0.00000008 Ry

     total magnetization       =     1.33 Bohr mag/cell
     absolute magnetization    =     2.10 Bohr mag/cell

     iteration #715     ecut=    60.00 Ry     beta= 0.70
     Davidson diagonalization with overlap
     ethr =  1.36E-09,  avg # of iterations =  8.8

     negative rho (up, down):  1.796E-04 7.627E-05

     total cpu time spent up to now is    14550.6 secs

     total energy              =     -19.78537175 Ry
     estimated scf accuracy    <       0.00000003 Ry

     total magnetization       =     1.33 Bohr mag/cell
     absolute magnetization    =     2.11 Bohr mag/cell

     iteration #716     ecut=    60.00 Ry     beta= 0.70
     Davidson diagonalization with overlap
     ethr =  5.89E-10,  avg # of iterations =  9.1

     negative rho (up, down):  1.796E-04 7.626E-05

     total cpu time spent up to now is    14568.8 secs

     total energy              =     -19.78537201 Ry
     estimated scf accuracy    <       0.00000008 Ry

     total magnetization       =     1.33 Bohr mag/cell
     absolute magnetization    =     2.11 Bohr mag/cell

     iteration #717     ecut=    60.00 Ry     beta= 0.70
     Davidson diagonalization with overlap
     ethr =  5.89E-10,  avg # of iterations =  9.5

     negative rho (up, down):  1.796E-04 7.626E-05

     total cpu time spent up to now is    14587.0 secs

     total energy              =     -19.78537299 Ry
     estimated scf accuracy    <       0.00000007 Ry

     total magnetization       =     1.33 Bohr mag/cell
     absolute magnetization    =     2.11 Bohr mag/cell

     iteration #718     ecut=    60.00 Ry     beta= 0.70
     Davidson diagonalization with overlap
     ethr =  5.89E-10,  avg # of iterations =  6.9

     negative rho (up, down):  1.796E-04 7.632E-05

     total cpu time spent up to now is    14604.6 secs

     total energy              =     -19.78536246 Ry
     estimated scf accuracy    <       0.00000008 Ry

     total magnetization       =     1.33 Bohr mag/cell
     absolute magnetization    =     2.11 Bohr mag/cell

     iteration #719     ecut=    60.00 Ry     beta= 0.70
     Davidson diagonalization with overlap
     ethr =  5.89E-10,  avg # of iterations = 11.1

     negative rho (up, down):  1.796E-04 7.636E-05

     total cpu time spent up to now is    14624.1 secs

     total energy              =     -19.78537332 Ry
     estimated scf accuracy    <       0.00000012 Ry

     total magnetization       =     1.33 Bohr mag/cell
     absolute magnetization    =     2.11 Bohr mag/cell

     iteration #720     ecut=    60.00 Ry     beta= 0.70
     Davidson diagonalization with overlap
     ethr =  5.89E-10,  avg # of iterations =  9.1

     negative rho (up, down):  1.796E-04 7.632E-05

     total cpu time spent up to now is    14642.2 secs

     total energy              =     -19.78537301 Ry
     estimated scf accuracy    <       0.00000024 Ry

     total magnetization       =     1.33 Bohr mag/cell
     absolute magnetization    =     2.11 Bohr mag/cell

     iteration #721     ecut=    60.00 Ry     beta= 0.70
     Davidson diagonalization with overlap
     ethr =  5.89E-10,  avg # of iterations =  8.7

     negative rho (up, down):  1.796E-04 7.627E-05

     total cpu time spent up to now is    14660.3 secs

     total energy              =     -19.78537165 Ry
     estimated scf accuracy    <       0.00000009 Ry

     total magnetization       =     1.33 Bohr mag/cell
     absolute magnetization    =     2.11 Bohr mag/cell

     iteration #722     ecut=    60.00 Ry     beta= 0.70
     Davidson diagonalization with overlap
     ethr =  5.89E-10,  avg # of iterations = 10.2

     negative rho (up, down):  1.796E-04 7.626E-05

     total cpu time spent up to now is    14678.8 secs

     total energy              =     -19.78537294 Ry
     estimated scf accuracy    <       0.00000004 Ry

     total magnetization       =     1.33 Bohr mag/cell
     absolute magnetization    =     2.11 Bohr mag/cell

     iteration #723     ecut=    60.00 Ry     beta= 0.70
     Davidson diagonalization with overlap
     ethr =  5.89E-10,  avg # of iterations =  8.8

     negative rho (up, down):  1.796E-04 7.625E-05

     total cpu time spent up to now is    14696.8 secs

     total energy              =     -19.78537293 Ry
     estimated scf accuracy    <       0.00000002 Ry

     total magnetization       =     1.33 Bohr mag/cell
     absolute magnetization    =     2.11 Bohr mag/cell

     iteration #724     ecut=    60.00 Ry     beta= 0.70
     Davidson diagonalization with overlap
     ethr =  3.06E-10,  avg # of iterations =  9.6

     negative rho (up, down):  1.796E-04 7.624E-05

     total cpu time spent up to now is    14715.2 secs

     total energy              =     -19.78537358 Ry
     estimated scf accuracy    <       0.00000006 Ry

     total magnetization       =     1.33 Bohr mag/cell
     absolute magnetization    =     2.11 Bohr mag/cell

     iteration #725     ecut=    60.00 Ry     beta= 0.70
     Davidson diagonalization with overlap
     ethr =  3.06E-10,  avg # of iterations =  6.3

     negative rho (up, down):  1.796E-04 7.625E-05

     total cpu time spent up to now is    14732.5 secs

     total energy              =     -19.78537362 Ry
     estimated scf accuracy    <       0.00000004 Ry

     total magnetization       =     1.33 Bohr mag/cell
     absolute magnetization    =     2.11 Bohr mag/cell

     iteration #726     ecut=    60.00 Ry     beta= 0.70
     Davidson diagonalization with overlap
     ethr =  3.06E-10,  avg # of iterations =  6.0

     negative rho (up, down):  1.795E-04 7.625E-05

     total cpu time spent up to now is    14749.8 secs

     total energy              =     -19.78537352 Ry
     estimated scf accuracy    <       0.00000004 Ry

     total magnetization       =     1.33 Bohr mag/cell
     absolute magnetization    =     2.11 Bohr mag/cell

     iteration #727     ecut=    60.00 Ry     beta= 0.70
     Davidson diagonalization with overlap
     ethr =  3.06E-10,  avg # of iterations =  6.8

     negative rho (up, down):  1.796E-04 7.624E-05

     total cpu time spent up to now is    14767.3 secs

     total energy              =     -19.78537344 Ry
     estimated scf accuracy    <       0.00000005 Ry

     total magnetization       =     1.33 Bohr mag/cell
     absolute magnetization    =     2.11 Bohr mag/cell

     iteration #728     ecut=    60.00 Ry     beta= 0.70
     Davidson diagonalization with overlap
     ethr =  3.06E-10,  avg # of iterations =  7.1

     negative rho (up, down):  1.796E-04 7.623E-05

     total cpu time spent up to now is    14785.0 secs

     total energy              =     -19.78537260 Ry
     estimated scf accuracy    <       0.00000008 Ry

     total magnetization       =     1.33 Bohr mag/cell
     absolute magnetization    =     2.11 Bohr mag/cell

     iteration #729     ecut=    60.00 Ry     beta= 0.70
     Davidson diagonalization with overlap
     ethr =  3.06E-10,  avg # of iterations =  9.2

     negative rho (up, down):  1.796E-04 7.624E-05

     total cpu time spent up to now is    14803.2 secs

     total energy              =     -19.78537280 Ry
     estimated scf accuracy    <       0.00000005 Ry

     total magnetization       =     1.33 Bohr mag/cell
     absolute magnetization    =     2.11 Bohr mag/cell

     iteration #730     ecut=    60.00 Ry     beta= 0.70
     Davidson diagonalization with overlap
     ethr =  3.06E-10,  avg # of iterations =  9.3

     negative rho (up, down):  1.796E-04 7.625E-05

     total cpu time spent up to now is    14821.4 secs

     total energy              =     -19.78537349 Ry
     estimated scf accuracy    <       0.00000001 Ry

     total magnetization       =     1.33 Bohr mag/cell
     absolute magnetization    =     2.11 Bohr mag/cell

     iteration #731     ecut=    60.00 Ry     beta= 0.70
     Davidson diagonalization with overlap
     ethr =  2.64E-10,  avg # of iterations =  6.3

     negative rho (up, down):  1.796E-04 7.626E-05

     total cpu time spent up to now is    14838.7 secs

     total energy              =     -19.78537268 Ry
     estimated scf accuracy    <       0.00000003 Ry

     total magnetization       =     1.33 Bohr mag/cell
     absolute magnetization    =     2.11 Bohr mag/cell

     iteration #732     ecut=    60.00 Ry     beta= 0.70
     Davidson diagonalization with overlap
     ethr =  2.64E-10,  avg # of iterations =  9.6

     negative rho (up, down):  1.796E-04 7.626E-05

     total cpu time spent up to now is    14857.0 secs

     total energy              =     -19.78537328 Ry
     estimated scf accuracy    <       0.00000002 Ry

     total magnetization       =     1.33 Bohr mag/cell
     absolute magnetization    =     2.11 Bohr mag/cell

     iteration #733     ecut=    60.00 Ry     beta= 0.70
     Davidson diagonalization with overlap
     ethr =  2.64E-10,  avg # of iterations =  7.8

     negative rho (up, down):  1.796E-04 7.626E-05

     Magnetic moment per site:
     atom:    1    charge:    4.6890    magn:    1.3341    constr:    0.0000

     total cpu time spent up to now is    14872.3 secs

     End of self-consistent calculation

 ------ SPIN UP ------------


          k = 0.0000 0.0000 0.0000 (423701 PWs)   bands (ev):

   -36.9544 -26.0071 -26.0035 -25.2006 -24.5617 -24.5109 -24.3145

          k = 0.0000 0.2500 0.0000 (423725 PWs)   bands (ev):

   -36.9544 -26.0071 -26.0035 -25.1992 -24.5975 -24.5074 -24.2451

          k = 0.0000-0.5000 0.0000 (423542 PWs)   bands (ev):

   -36.9544 -26.0071 -26.0035 -25.1977 -24.6239 -24.5036 -24.1962

          k = 0.2500 0.0000 0.0000 (423725 PWs)   bands (ev):

   -36.9544 -26.0071 -26.0035 -25.1996 -24.5593 -24.5420 -24.2904

          k = 0.2500 0.2500 0.0000 (423766 PWs)   bands (ev):

   -36.9544 -26.0071 -26.0035 -25.1981 -24.5941 -24.5372 -24.2052

          k = 0.2500-0.5000 0.0000 (423782 PWs)   bands (ev):

   -36.9544 -26.0071 -26.0035 -25.1967 -24.6202 -24.5323 -24.1572

          k = 0.2500-0.2500 0.0000 (423766 PWs)   bands (ev):

   -36.9544 -26.0071 -26.0035 -25.1981 -24.5941 -24.5373 -24.2050

          k =-0.5000 0.0000 0.0000 (423542 PWs)   bands (ev):

   -36.9544 -26.0071 -26.0035 -25.1985 -24.5658 -24.5566 -24.2738

          k =-0.5000 0.2500 0.0000 (423782 PWs)   bands (ev):

   -36.9544 -26.0071 -26.0035 -25.1971 -24.5905 -24.5605 -24.1790

          k =-0.5000-0.5000 0.0000 (423708 PWs)   bands (ev):

   -36.9544 -26.0071 -26.0035 -25.1956 -24.6162 -24.5548 -24.1980

 ------ SPIN DOWN ----------


          k = 0.0000 0.0000 0.0000 (423701 PWs)   bands (ev):

   -34.8158 -25.2849 -25.2007 -24.5622 -24.5112 -24.3127 -24.1721

          k = 0.0000 0.2500 0.0000 (423725 PWs)   bands (ev):

   -34.8158 -25.2849 -25.1993 -24.5975 -24.5077 -24.2438 -24.1356

          k = 0.0000-0.5000 0.0000 (423542 PWs)   bands (ev):

   -34.8158 -25.2849 -25.1978 -24.6236 -24.5040 -24.1948 -24.0720

          k = 0.2500 0.0000 0.0000 (423725 PWs)   bands (ev):

   -34.8158 -25.2849 -25.1997 -24.5598 -24.5421 -24.2883 -24.1028

          k = 0.2500 0.2500 0.0000 (423766 PWs)   bands (ev):

   -34.8158 -25.2849 -25.1983 -24.5941 -24.5373 -24.2038 -24.1084

          k = 0.2500-0.5000 0.0000 (423782 PWs)   bands (ev):

   -34.8158 -25.2849 -25.1968 -24.6199 -24.5324 -24.1567 -24.1098

          k = 0.2500-0.2500 0.0000 (423766 PWs)   bands (ev):

   -34.8158 -25.2849 -25.1983 -24.5941 -24.5373 -24.2038 -24.1086

          k =-0.5000 0.0000 0.0000 (423542 PWs)   bands (ev):

   -34.8158 -25.2849 -25.1986 -24.5657 -24.5571 -24.2714 -24.0592

          k =-0.5000 0.2500 0.0000 (423782 PWs)   bands (ev):

   -34.8158 -25.2849 -25.1972 -24.5905 -24.5604 -24.1775 -24.1532

          k =-0.5000-0.5000 0.0000 (423708 PWs)   bands (ev):

   -34.8158 -25.2849 -25.1958 -24.6159 -24.5548 -24.1975 -24.0146

     the Fermi energy is   -25.2576 ev

!    total energy              =     -19.78537350 Ry
     estimated scf accuracy    <          2.6E-09 Ry
     smearing contrib. (-TS)   =      -0.00268907 Ry
     internal energy E=F+TS    =     -19.78268442 Ry

     The total energy is F=E-TS. E is the sum of the following terms:
     one-electron contribution =     -34.04767270 Ry
     hartree contribution      =      14.46585680 Ry
     xc contribution           =      -4.81117868 Ry
     ewald contribution        =       4.61031020 Ry
     Dispersion Correction     =      -0.00000005 Ry

     total magnetization       =     1.33 Bohr mag/cell
     absolute magnetization    =     2.11 Bohr mag/cell

     convergence has been achieved in 733 iterations

     negative rho (up, down):  1.796E-04 7.626E-05

     Forces acting on atoms (cartesian axes, Ry/au):

     atom    1 type  1   force =     0.00000000    0.00000000    0.01796534

     Total force =     0.000000     Total SCF correction =     0.000000

     BFGS Geometry Optimization
     Energy error            =      0.0E+00
     Gradient error          =      0.0E+00

     bfgs converged in   1 scf cycles and   0 bfgs steps
     (criteria: energy <  7.3E-07 Ry, force <  3.9E-04 Ry/Bohr)

     End of BFGS Geometry Optimization

     Final energy   =     -19.7853734977 Ry
Begin final coordinates

ATOMIC_POSITIONS (angstrom)
N            10.0000000000       10.0000000000        0.0000000000    0   0   0
End final coordinates



     Writing output data file ./N_ESM_pn5.save/

     init_run     :     19.74s CPU     21.04s WALL (       1 calls)
     electrons    :  13941.36s CPU  14853.83s WALL (       1 calls)
     forces       :      7.98s CPU      8.55s WALL (       1 calls)

     Called by init_run:
     wfcinit      :      1.52s CPU      1.74s WALL (       1 calls)
     potinit      :      6.79s CPU      7.37s WALL (       1 calls)
     hinit0       :      1.17s CPU      1.33s WALL (       1 calls)

     Called by electrons:
     c_bands      :   5294.12s CPU   5414.39s WALL (     733 calls)
     sum_band     :   1553.93s CPU   1620.79s WALL (     733 calls)
     v_of_rho     :   4412.92s CPU   4743.96s WALL (     734 calls)
     newd         :    444.71s CPU    470.29s WALL (     734 calls)
     mix_rho      :   1470.63s CPU   1788.98s WALL (     733 calls)

     Called by c_bands:
     init_us_2    :     21.00s CPU     21.82s WALL (    4404 calls)
     cegterg      :   4650.34s CPU   4746.14s WALL (    2199 calls)

     Called by *egterg:
     cdiaghg      :     24.87s CPU     25.40s WALL (   20263 calls)
     h_psi        :   3971.49s CPU   4035.84s WALL (   20266 calls)
     s_psi        :     41.77s CPU     42.44s WALL (   20266 calls)
     g_psi        :      8.91s CPU      9.05s WALL (   18064 calls)

     Called by h_psi:
     h_psi:calbec :     57.38s CPU     58.39s WALL (   20266 calls)
     vloc_psi     :   3839.97s CPU   3894.95s WALL (   20266 calls)
     add_vuspsi   :     57.30s CPU     57.99s WALL (   20266 calls)

     General routines
     calbec       :     67.34s CPU     68.52s WALL (   22477 calls)
     fft          :   4457.62s CPU   4569.15s WALL (   18363 calls)
     ffts         :    237.57s CPU    240.00s WALL (    2934 calls)
     fftw         :   3593.96s CPU   3644.47s WALL (  146629 calls)
     interpolate  :    496.49s CPU    540.68s WALL (    1468 calls)
     davcio       :      3.95s CPU    209.07s WALL (   24062 calls)

     Parallel routines
     fft_scatt_xy :   1275.00s CPU   1295.02s WALL (  167926 calls)
     fft_scatt_yz :   3093.14s CPU   3132.29s WALL (  167926 calls)

     PWSCF        :      3h52m CPU      4h 8m WALL


   This run was terminated on:   2:38: 7   1Jul2022            

=------------------------------------------------------------------------------=
   JOB DONE.
=------------------------------------------------------------------------------=
