
     Program PWSCF v.6.4.1 starts on 15Jun2022 at 15: 7:37 

     This program is part of the open-source Quantum ESPRESSO suite
     for quantum simulation of materials; please cite
         "P. Giannozzi et al., J. Phys.:Condens. Matter 21 395502 (2009);
         "P. Giannozzi et al., J. Phys.:Condens. Matter 29 465901 (2017);
          URL http://www.quantum-espresso.org", 
     in publications or presentations arising from this work. More details at
     http://www.quantum-espresso.org/quote

     Parallel version (MPI), running on   160 processors

     MPI processes distributed on     8 nodes
     K-points division:     npool     =       8
     R & G space division:  proc/nbgrp/npool/nimage =      20
     Waiting for input...
     Reading input from standard input
Warning: card &CELL ignored
Warning: card / ignored

     Current dimensions of program PWSCF are:
     Max number of different atomic species (ntypx) = 10
     Max number of k-points (npk) =  40000
     Max angular momentum in pseudopotentials (lmaxx) =  3

     IMPORTANT: XC functional enforced from input :
     Exchange-correlation      = PBE ( 1  4  3  4 0 0)
     Any further DFT definition will be discarded
     Please, verify this is what you really want

               file Fe.pbe-spn-kjpaw_psl.0.2.1.UPF: wavefunction(s)  3D renormalized

     -------------------------------------------------
     Parameters for Dispersion (Grimme-D2) Correction:
     -------------------------------------------------
       atom      VdW radius       C_6     

        Fe         2.952        374.666
        N          2.640         42.670
        H          1.892          4.857

     Subspace diagonalization in iterative solution of the eigenvalue problem:
     one sub-group per band group will be used
     scalapack distributed-memory algorithm (size of sub-group:  3*  3 procs)


     Parallelization info
     --------------------
     sticks:   dense  smooth     PW     G-vecs:    dense   smooth      PW
     Min         634     317     83               145278    51361    6989
     Max         635     318     84               145287    51370    7000
     Sum       12685    6351   1677              2905599  1027285  139897



     bravais-lattice index     =            0
     lattice parameter (alat)  =      18.7640  a.u.
     unit-cell volume          =   16360.3163 (a.u.)^3
     number of atoms/cell      =           67
     number of atomic types    =            3
     number of electrons       =      1031.00
     number of Kohn-Sham states=          619
     kinetic-energy cutoff     =      60.0000  Ry
     charge density cutoff     =     480.0000  Ry
     convergence threshold     =      1.0E-08
     mixing beta               =       0.2000
     number of iterations used =           10  local-TF  mixing
     Exchange-correlation      = PBE ( 1  4  3  4 0 0)
     nstep                     =           50


     Effective Screening Medium Method
     =================================
     Boundary Conditions: Metal-Slab-Metal
     field strength                   =    -0.02 Ry/a.u.
     grid points for fit at edges     =        4 


     celldm(1)=  18.764036  celldm(2)=   0.000000  celldm(3)=   0.000000
     celldm(4)=   0.000000  celldm(5)=   0.000000  celldm(6)=   0.000000

     crystal axes: (cart. coord. in units of alat)
               a(1) = (   1.000000   0.000000   0.000000 )  
               a(2) = (   0.333330   0.942807   0.000000 )  
               a(3) = (   0.000000   0.000000   2.626577 )  

     reciprocal axes: (cart. coord. in units 2 pi/alat)
               b(1) = (  1.000000 -0.353551  0.000000 )  
               b(2) = (  0.000000  1.060663  0.000000 )  
               b(3) = (  0.000000  0.000000  0.380724 )  


     PseudoPot. # 1 for Fe read from file:
     ../../SSSP/Fe.pbe-spn-kjpaw_psl.0.2.1.UPF
     MD5 check sum: e86618425769142926afa95317d90200
     Pseudo is Projector augmented-wave + core cor, Zval = 16.0
     Generated using "atomic" code by A. Dal Corso v.5.0.99 svn rev. 10869
     Shape of augmentation charge: PSQ
     Using radial grid of 1191 points,  6 beta functions with: 
                l(1) =   0
                l(2) =   0
                l(3) =   1
                l(4) =   1
                l(5) =   2
                l(6) =   2
     Q(r) pseudized with 0 coefficients 


     PseudoPot. # 2 for N  read from file:
     ../../SSSP/N.pbe-n-radius_5.UPF
     MD5 check sum: 16739722b17309cd8fe442a2ace49922
     Pseudo is Ultrasoft + core correction, Zval =  5.0
     Generated using "atomic" code by A. Dal Corso v.5.1
     Using radial grid of 1085 points,  4 beta functions with: 
                l(1) =   0
                l(2) =   0
                l(3) =   1
                l(4) =   1
     Q(r) pseudized with 0 coefficients 


     PseudoPot. # 3 for H  read from file:
     ../../SSSP/H.pbe-rrkjus_psl.1.0.0.UPF
     MD5 check sum: f52b6d4d1c606e5624b1dc7b2218f220
     Pseudo is Ultrasoft, Zval =  1.0
     Generated using "atomic" code by A. Dal Corso v.5.1
     Using radial grid of  929 points,  2 beta functions with: 
                l(1) =   0
                l(2) =   0
     Q(r) pseudized with 0 coefficients 


     atomic species   valence    mass     pseudopotential
        Fe            16.00    55.84500     Fe( 1.00)
        N              5.00    14.00700     N ( 1.00)
        H              1.00     1.00800     H ( 1.00)

     Starting magnetic structure 
     atomic species   magnetization
        Fe           0.100
        N            0.100
        H            0.100

     No symmetry found



   Cartesian axes

     site n.     atom                  positions (alat units)
         1           Fe  tau(   1) = (   0.1666663   0.1178509   0.0000000  )
         2           Fe  tau(   2) = (   0.0000000   0.0000000   0.2041376  )
         3           Fe  tau(   3) = (   0.4999989   0.3535526   0.0000000  )
         4           Fe  tau(   4) = (   0.3333326   0.2357017   0.2041376  )
         5           Fe  tau(   5) = (   0.1659359   0.1176311   0.4052025  )
         6           Fe  tau(   6) = (   0.3326881   0.9437255   0.6040354  )
         7           Fe  tau(   7) = (   0.4995391   0.3540032   0.4039563  )
         8           Fe  tau(   8) = (   0.3328696   0.2348319   0.6040477  )
         9           Fe  tau(   9) = (   0.2499989   0.3535526   0.0000000  )
        10           Fe  tau(  10) = (   0.4166663   0.1178509   0.0000000  )
        11           Fe  tau(  11) = (   0.0833326   0.2357017   0.2041376  )
        12           Fe  tau(  12) = (   0.2500000   0.0000000   0.2041376  )
        13           Fe  tau(  13) = (   0.2500010   0.3535467   0.4055083  )
        14           Fe  tau(  14) = (   0.4158827   0.1173005   0.4045578  )
        15           Fe  tau(  15) = (   0.0818930   0.2360863   0.6031025  )
        16           Fe  tau(  16) = (   0.2495380  -0.0003220   0.6050935  )
        17           Fe  tau(  17) = (   0.6666663   0.1178509   0.0000000  )
        18           Fe  tau(  18) = (   0.5000000   0.0000000   0.2041376  )
        19           Fe  tau(  19) = (   0.9999989   0.3535526   0.0000000  )
        20           Fe  tau(  20) = (   0.8333326   0.2357017   0.2041376  )
        21           Fe  tau(  21) = (   0.6669496   0.1172593   0.4039585  )
        22           Fe  tau(  22) = (   0.4990421  -0.0001530   0.6039930  )
        23           Fe  tau(  23) = (   1.0004770   0.3530937   0.4039548  )
        24           Fe  tau(  24) = (   0.8336397   0.2353232   0.6129261  )
        25           Fe  tau(  25) = (   0.7499989   0.3535526   0.0000000  )
        26           Fe  tau(  26) = (   0.9166663   0.1178509   0.0000000  )
        27           Fe  tau(  27) = (   0.5833326   0.2357017   0.2041376  )
        28           Fe  tau(  28) = (   0.7500000   0.0000000   0.2041376  )
        29           Fe  tau(  29) = (   0.7500132   0.3535456   0.4072253  )
        30           Fe  tau(  30) = (   0.9155726   0.1194065   0.4075667  )
        31           Fe  tau(  31) = (   0.5786815   0.2324049   0.5969489  )
        32           Fe  tau(  32) = (   1.0834624   0.9443178   0.6031102  )
        33           Fe  tau(  33) = (   0.3333315   0.5892543   0.0000000  )
        34           Fe  tau(  34) = (   0.1666652   0.4714034   0.2041376  )
        35           Fe  tau(  35) = (   0.6666640   0.8249560   0.0000000  )
        36           Fe  tau(  36) = (   0.4999978   0.7071052   0.2041376  )
        37           Fe  tau(  37) = (   0.3340495   0.5894942   0.4052040  )
        38           Fe  tau(  38) = (   1.1671442   0.4722673   0.6039905  )
        39           Fe  tau(  39) = (   0.6662045   0.8243680   0.4051981  )
        40           Fe  tau(  40) = (   0.5006306   0.7062207   0.6039894  )
        41           Fe  tau(  41) = (   0.4166640   0.8249560   0.0000000  )
        42           Fe  tau(  42) = (   0.5833315   0.5892543   0.0000000  )
        43           Fe  tau(  43) = (   0.2499978   0.7071052   0.2041376  )
        44           Fe  tau(  44) = (   0.4166652   0.4714034   0.2041376  )
        45           Fe  tau(  45) = (   0.4166461   0.8249874   0.4057985  )
        46           Fe  tau(  46) = (   0.5844173   0.5877265   0.4075492  )
        47           Fe  tau(  47) = (   1.2504626   0.7074473   0.6050915  )
        48           Fe  tau(  48) = (   0.4181389   0.4710288   0.6031145  )
        49           Fe  tau(  49) = (   0.8333315   0.5892543   0.0000000  )
        50           Fe  tau(  50) = (   0.6666652   0.4714034   0.2041376  )
        51           Fe  tau(  51) = (   1.1666640   0.8249560   0.0000000  )
        52           Fe  tau(  52) = (   0.9999978   0.7071052   0.2041376  )
        53           Fe  tau(  53) = (   0.8330709   0.5898452   0.4039536  )
        54           Fe  tau(  54) = (   0.6664300   0.4717667   0.6128995  )
        55           Fe  tau(  55) = (   1.1671198   0.8255778   0.4052040  )
        56           Fe  tau(  56) = (   1.0009823   0.7072656   0.6040438  )
        57           Fe  tau(  57) = (   0.9166640   0.8249560   0.0000000  )
        58           Fe  tau(  58) = (   1.0833315   0.5892543   0.0000000  )
        59           Fe  tau(  59) = (   0.7499978   0.7071052   0.2041376  )
        60           Fe  tau(  60) = (   0.9166652   0.4714034   0.2041376  )
        61           Fe  tau(  61) = (   0.9166763   0.8249629   0.4055057  )
        62           Fe  tau(  62) = (   1.0841225   0.5898139   0.4045586  )
        63           Fe  tau(  63) = (   0.7498702   0.7056126   0.6031035  )
        64           Fe  tau(  64) = (   0.9213426   0.4747010   0.5969431  )
        65           N   tau(  65) = (   0.7501270   0.3536308   0.7528722  )
        66           H   tau(  66) = (   0.8165858   0.4006924   0.8171405  )
        67           H   tau(  67) = (   0.6836855   0.3066136   0.8171856  )

     number of k points=    10  Methfessel-Paxton smearing, width (Ry)=  0.0100
                       cart. coord. in units 2pi/alat
        k(    1) = (   0.0000000   0.0000000   0.0000000), wk =   0.0625000
        k(    2) = (   0.0000000   0.2651656   0.0000000), wk =   0.1250000
        k(    3) = (   0.0000000  -0.5303313   0.0000000), wk =   0.0625000
        k(    4) = (   0.2500000  -0.0883878   0.0000000), wk =   0.1250000
        k(    5) = (   0.2500000   0.1767779   0.0000000), wk =   0.1250000
        k(    6) = (   0.2500000  -0.6187190   0.0000000), wk =   0.1250000
        k(    7) = (   0.2500000  -0.3535534   0.0000000), wk =   0.1250000
        k(    8) = (  -0.5000000   0.1767755   0.0000000), wk =   0.0625000
        k(    9) = (  -0.5000000   0.4419412   0.0000000), wk =   0.1250000
        k(   10) = (  -0.5000000  -0.3535558   0.0000000), wk =   0.0625000

     Dense  grid:  2905599 G-vectors     FFT dimensions: ( 135, 135, 360)

     Smooth grid:  1027285 G-vectors     FFT dimensions: (  96,  96, 243)

     Estimated max dynamical RAM per process >       1.01 GB

     Estimated total dynamical RAM >     162.06 GB
     Generating pointlists ...
     new r_m :   0.0831 (alat units)  1.5587 (a.u.) for type    1
     new r_m :   0.0428 (alat units)  0.8029 (a.u.) for type    2
     new r_m :   0.0428 (alat units)  0.8029 (a.u.) for type    3

     Check: negative core charge=   -0.000039

     Initial potential from superposition of free atoms

     starting charge 1030.97192, renormalised to 1031.00000

     negative rho (up, down):  2.438E-02 2.570E-03
     Starting wfcs are  838 randomized atomic wfcs
     Checking if some PAW data can be deallocated... 

     total cpu time spent up to now is       90.2 secs

     Self-consistent Calculation

     iteration #  1     ecut=    60.00 Ry     beta= 0.20
     Davidson diagonalization with overlap
     ethr =  1.00E-04,  avg # of iterations = 18.4

     negative rho (up, down):  1.495E-02 3.136E-03

     total cpu time spent up to now is     1120.3 secs

     total energy              =  -21079.47635453 Ry
     Harris-Foulkes estimate   =  -21101.91887004 Ry
     estimated scf accuracy    <    1169.82609144 Ry

     total magnetization       =    68.84 Bohr mag/cell
     absolute magnetization    =    70.71 Bohr mag/cell

     iteration #  2     ecut=    60.00 Ry     beta= 0.20
     Davidson diagonalization with overlap
     ethr =  1.00E-02,  avg # of iterations =  1.0

     negative rho (up, down):  1.261E-02 2.823E-02

     total cpu time spent up to now is     1250.1 secs

     total energy              =  -21092.03547916 Ry
     Harris-Foulkes estimate   =  -21099.16716177 Ry
     estimated scf accuracy    <     372.61318273 Ry

     total magnetization       =    81.29 Bohr mag/cell
     absolute magnetization    =    83.37 Bohr mag/cell

     iteration #  3     ecut=    60.00 Ry     beta= 0.20
     Davidson diagonalization with overlap
     ethr =  1.00E-02,  avg # of iterations =  1.0

     negative rho (up, down):  9.847E-03 5.980E-02

     total cpu time spent up to now is     1391.3 secs

     total energy              =  -21094.92576660 Ry
     Harris-Foulkes estimate   =  -21095.18153663 Ry
     estimated scf accuracy    <      16.70159547 Ry

     total magnetization       =   120.94 Bohr mag/cell
     absolute magnetization    =   121.55 Bohr mag/cell

     iteration #  4     ecut=    60.00 Ry     beta= 0.20
     Davidson diagonalization with overlap
     ethr =  1.62E-03,  avg # of iterations =  1.0

     negative rho (up, down):  7.512E-03 7.467E-02

     total cpu time spent up to now is     1520.4 secs

     total energy              =  -21095.00834961 Ry
     Harris-Foulkes estimate   =  -21095.06152950 Ry
     estimated scf accuracy    <      20.10864935 Ry

     total magnetization       =   128.09 Bohr mag/cell
     absolute magnetization    =   128.63 Bohr mag/cell

     iteration #  5     ecut=    60.00 Ry     beta= 0.20
     Davidson diagonalization with overlap
     ethr =  1.62E-03,  avg # of iterations =  1.0

     negative rho (up, down):  2.217E-02 2.353E-01

     total cpu time spent up to now is     1650.3 secs

     total energy              =  -21093.05054974 Ry
     Harris-Foulkes estimate   =  -21095.04536534 Ry
     estimated scf accuracy    <      22.63003913 Ry

     total magnetization       =   131.85 Bohr mag/cell
     absolute magnetization    =   132.41 Bohr mag/cell

     iteration #  6     ecut=    60.00 Ry     beta= 0.20
     Davidson diagonalization with overlap
     ethr =  1.62E-03,  avg # of iterations =  3.7

     negative rho (up, down):  1.517E-02 2.025E-01

     total cpu time spent up to now is     1810.0 secs

     total energy              =  -21093.82629821 Ry
     Harris-Foulkes estimate   =  -21094.09734601 Ry
     estimated scf accuracy    <       8.39963186 Ry

     total magnetization       =   154.87 Bohr mag/cell
     absolute magnetization    =   156.25 Bohr mag/cell

     iteration #  7     ecut=    60.00 Ry     beta= 0.20
     Davidson diagonalization with overlap
     ethr =  8.15E-04,  avg # of iterations =  6.2

     negative rho (up, down):  5.665E-03 9.610E-02

     total cpu time spent up to now is     2001.5 secs

     total energy              =  -21094.06062476 Ry
     Harris-Foulkes estimate   =  -21094.09218135 Ry
     estimated scf accuracy    <       2.41767109 Ry

     total magnetization       =   154.53 Bohr mag/cell
     absolute magnetization    =   156.52 Bohr mag/cell

     iteration #  8     ecut=    60.00 Ry     beta= 0.20
     Davidson diagonalization with overlap
     ethr =  2.34E-04,  avg # of iterations = 13.8

     negative rho (up, down):  6.048E-04 3.935E-02

     total cpu time spent up to now is     2815.7 secs

     total energy              =  -21094.52001002 Ry
     Harris-Foulkes estimate   =  -21095.50255532 Ry
     estimated scf accuracy    <       8.66612142 Ry

     total magnetization       =   152.46 Bohr mag/cell
     absolute magnetization    =   158.83 Bohr mag/cell

     iteration #  9     ecut=    60.00 Ry     beta= 0.20
     Davidson diagonalization with overlap
     ethr =  2.34E-04,  avg # of iterations =  4.4

     negative rho (up, down):  4.404E-04 2.127E-02

     total cpu time spent up to now is     2996.1 secs

     total energy              =  -21094.92387909 Ry
     Harris-Foulkes estimate   =  -21094.93592134 Ry
     estimated scf accuracy    <       0.79484083 Ry

     total magnetization       =   147.30 Bohr mag/cell
     absolute magnetization    =   152.46 Bohr mag/cell

     iteration # 10     ecut=    60.00 Ry     beta= 0.20
     Davidson diagonalization with overlap
     ethr =  7.71E-05,  avg # of iterations =  7.4

     negative rho (up, down):  2.705E-04 1.558E-02

     total cpu time spent up to now is     3225.6 secs

     total energy              =  -21095.01473140 Ry
     Harris-Foulkes estimate   =  -21094.99596998 Ry
     estimated scf accuracy    <       0.82022730 Ry

     total magnetization       =   147.27 Bohr mag/cell
     absolute magnetization    =   152.14 Bohr mag/cell

     iteration # 11     ecut=    60.00 Ry     beta= 0.20
     Davidson diagonalization with overlap
     ethr =  7.71E-05,  avg # of iterations =  1.0

     negative rho (up, down):  7.826E-04 4.482E-02

     total cpu time spent up to now is     3357.1 secs

     total energy              =  -21095.00187619 Ry
     Harris-Foulkes estimate   =  -21095.04488084 Ry
     estimated scf accuracy    <       0.47241468 Ry

     total magnetization       =   150.87 Bohr mag/cell
     absolute magnetization    =   155.63 Bohr mag/cell

     iteration # 12     ecut=    60.00 Ry     beta= 0.20
     Davidson diagonalization with overlap
     ethr =  4.58E-05,  avg # of iterations =  5.9

     negative rho (up, down):  9.947E-04 4.109E-02

     total cpu time spent up to now is     3553.6 secs

     total energy              =  -21095.05012498 Ry
     Harris-Foulkes estimate   =  -21095.05598501 Ry
     estimated scf accuracy    <       0.34214196 Ry

     total magnetization       =   156.88 Bohr mag/cell
     absolute magnetization    =   161.72 Bohr mag/cell

     iteration # 13     ecut=    60.00 Ry     beta= 0.20
     Davidson diagonalization with overlap
     ethr =  3.32E-05,  avg # of iterations =  7.7

     negative rho (up, down):  1.783E-03 3.542E-02

     total cpu time spent up to now is     3762.9 secs

     total energy              =  -21095.08079821 Ry
     Harris-Foulkes estimate   =  -21095.08006653 Ry
     estimated scf accuracy    <       0.65046230 Ry

     total magnetization       =   160.42 Bohr mag/cell
     absolute magnetization    =   165.40 Bohr mag/cell

     iteration # 14     ecut=    60.00 Ry     beta= 0.20
     Davidson diagonalization with overlap
     ethr =  3.32E-05,  avg # of iterations =  2.9

     negative rho (up, down):  3.593E-02 3.882E-02

     total cpu time spent up to now is     3917.5 secs

     total energy              =  -21095.07556725 Ry
     Harris-Foulkes estimate   =  -21095.09441774 Ry
     estimated scf accuracy    <       0.72214433 Ry

     total magnetization       =   162.03 Bohr mag/cell
     absolute magnetization    =   167.06 Bohr mag/cell

     iteration # 15     ecut=    60.00 Ry     beta= 0.20
     Davidson diagonalization with overlap
     ethr =  3.32E-05,  avg # of iterations =  4.0

     negative rho (up, down):  7.230E-02 4.168E-02

     total cpu time spent up to now is     4109.0 secs

     total energy              =  -21095.06898312 Ry
     Harris-Foulkes estimate   =  -21095.08939194 Ry
     estimated scf accuracy    <       0.40087336 Ry

     total magnetization       =   162.99 Bohr mag/cell
     absolute magnetization    =   167.99 Bohr mag/cell

     iteration # 16     ecut=    60.00 Ry     beta= 0.20
     Davidson diagonalization with overlap
     ethr =  3.32E-05,  avg # of iterations =  1.3

     negative rho (up, down):  5.867E-02 3.756E-02

     total cpu time spent up to now is     4244.3 secs

     total energy              =  -21095.05371576 Ry
     Harris-Foulkes estimate   =  -21095.07703624 Ry
     estimated scf accuracy    <       0.26196783 Ry

     total magnetization       =   163.28 Bohr mag/cell
     absolute magnetization    =   168.31 Bohr mag/cell

     iteration # 17     ecut=    60.00 Ry     beta= 0.20
     Davidson diagonalization with overlap
     ethr =  2.54E-05,  avg # of iterations =  2.9

     negative rho (up, down):  5.191E-02 2.739E-02

     total cpu time spent up to now is     4410.6 secs

     total energy              =  -21095.04571113 Ry
     Harris-Foulkes estimate   =  -21095.06167555 Ry
     estimated scf accuracy    <       0.26486040 Ry

     total magnetization       =   162.94 Bohr mag/cell
     absolute magnetization    =   168.05 Bohr mag/cell

     iteration # 18     ecut=    60.00 Ry     beta= 0.20
     Davidson diagonalization with overlap
     ethr =  2.54E-05,  avg # of iterations =  4.7

     negative rho (up, down):  1.849E-02 1.884E-02

     total cpu time spent up to now is     4605.3 secs

     total energy              =  -21095.02560959 Ry
     Harris-Foulkes estimate   =  -21095.05331444 Ry
     estimated scf accuracy    <       0.12184878 Ry

     total magnetization       =   162.93 Bohr mag/cell
     absolute magnetization    =   168.10 Bohr mag/cell

     iteration # 19     ecut=    60.00 Ry     beta= 0.20
     Davidson diagonalization with overlap
     c_bands:  3 eigenvalues not converged
     c_bands:  5 eigenvalues not converged
     ethr =  1.18E-05,  avg # of iterations = 55.2

     negative rho (up, down):  1.618E-03 1.740E-02

     total cpu time spent up to now is     6807.7 secs

     total energy              =  -21095.15964986 Ry
     Harris-Foulkes estimate   =  -21095.26823143 Ry
     estimated scf accuracy    <       3.17842210 Ry

     total magnetization       =   159.10 Bohr mag/cell
     absolute magnetization    =   169.82 Bohr mag/cell

     iteration # 20     ecut=    60.00 Ry     beta= 0.20
     Davidson diagonalization with overlap
     c_bands:  3 eigenvalues not converged
     c_bands:  1 eigenvalues not converged
     ethr =  1.18E-05,  avg # of iterations = 14.2

     negative rho (up, down):  1.907E-03 5.771E-02

     total cpu time spent up to now is     7188.9 secs

     total energy              =  -21095.25305221 Ry
     Harris-Foulkes estimate   =  -21095.19241672 Ry
     estimated scf accuracy    <       2.26741084 Ry

     total magnetization       =   160.15 Bohr mag/cell
     absolute magnetization    =   168.83 Bohr mag/cell

     iteration # 21     ecut=    60.00 Ry     beta= 0.20
     Davidson diagonalization with overlap
     c_bands:  3 eigenvalues not converged
     ethr =  1.18E-05,  avg # of iterations =  7.4

     negative rho (up, down):  2.014E-03 1.103E-01

     total cpu time spent up to now is     7474.5 secs

     total energy              =  -21095.33643792 Ry
     Harris-Foulkes estimate   =  -21095.27398626 Ry
     estimated scf accuracy    <       3.80733482 Ry

     total magnetization       =   158.91 Bohr mag/cell
     absolute magnetization    =   169.17 Bohr mag/cell

     iteration # 22     ecut=    60.00 Ry     beta= 0.20
     Davidson diagonalization with overlap
     c_bands:  3 eigenvalues not converged
     ethr =  1.18E-05,  avg # of iterations =  8.2

     negative rho (up, down):  2.836E-03 4.264E-02

     total cpu time spent up to now is     7857.5 secs

     total energy              =  -21095.29195279 Ry
     Harris-Foulkes estimate   =  -21095.34533419 Ry
     estimated scf accuracy    <       5.83139858 Ry

     total magnetization       =   158.20 Bohr mag/cell
     absolute magnetization    =   169.96 Bohr mag/cell

     iteration # 23     ecut=    60.00 Ry     beta= 0.20
     Davidson diagonalization with overlap
     c_bands:  4 eigenvalues not converged
     ethr =  1.18E-05,  avg # of iterations =  5.8

     negative rho (up, down):  5.371E-03 4.637E-02

     total cpu time spent up to now is     8150.7 secs

     total energy              =  -21095.23975438 Ry
     Harris-Foulkes estimate   =  -21095.30760142 Ry
     estimated scf accuracy    <       5.62532992 Ry

     total magnetization       =   159.26 Bohr mag/cell
     absolute magnetization    =   168.56 Bohr mag/cell

     iteration # 24     ecut=    60.00 Ry     beta= 0.20
     Davidson diagonalization with overlap
     c_bands:  5 eigenvalues not converged
     ethr =  1.18E-05,  avg # of iterations = 14.9

     negative rho (up, down):  9.607E-03 5.307E-02

     total cpu time spent up to now is     8553.0 secs

     total energy              =  -21095.27592790 Ry
     Harris-Foulkes estimate   =  -21095.28762095 Ry
     estimated scf accuracy    <       5.21132380 Ry

     total magnetization       =   161.01 Bohr mag/cell
     absolute magnetization    =   167.49 Bohr mag/cell

     iteration # 25     ecut=    60.00 Ry     beta= 0.20
     Davidson diagonalization with overlap
     c_bands:  3 eigenvalues not converged
     ethr =  1.18E-05,  avg # of iterations =  9.6

     negative rho (up, down):  1.785E-02 1.052E-01

     total cpu time spent up to now is     8944.7 secs

     total energy              =  -21095.21374612 Ry
     Harris-Foulkes estimate   =  -21095.28035926 Ry
     estimated scf accuracy    <       4.49224487 Ry

     total magnetization       =   161.71 Bohr mag/cell
     absolute magnetization    =   167.74 Bohr mag/cell

     iteration # 26     ecut=    60.00 Ry     beta= 0.20
     Davidson diagonalization with overlap
     ethr =  1.18E-05,  avg # of iterations = 12.7

     negative rho (up, down):  1.040E-02 6.364E-02

     total cpu time spent up to now is     9327.6 secs

     total energy              =  -21095.15479207 Ry
     Harris-Foulkes estimate   =  -21095.23122724 Ry
     estimated scf accuracy    <       2.75964948 Ry

     total magnetization       =   163.18 Bohr mag/cell
     absolute magnetization    =   168.89 Bohr mag/cell

     iteration # 27     ecut=    60.00 Ry     beta= 0.20
     Davidson diagonalization with overlap
     c_bands:  3 eigenvalues not converged
     ethr =  1.18E-05,  avg # of iterations = 16.2

     negative rho (up, down):  7.087E-03 8.370E-02

     total cpu time spent up to now is     9727.4 secs

     total energy              =  -21095.18880630 Ry
     Harris-Foulkes estimate   =  -21095.24031854 Ry
     estimated scf accuracy    <       3.45679664 Ry

     total magnetization       =   160.15 Bohr mag/cell
     absolute magnetization    =   168.76 Bohr mag/cell

     iteration # 28     ecut=    60.00 Ry     beta= 0.20
     Davidson diagonalization with overlap
     c_bands:  3 eigenvalues not converged
     ethr =  1.18E-05,  avg # of iterations = 15.3

     negative rho (up, down):  6.895E-03 1.546E-01

     total cpu time spent up to now is    10045.9 secs

     total energy              =  -21095.10726855 Ry
     Harris-Foulkes estimate   =  -21095.27622694 Ry
     estimated scf accuracy    <       4.34210071 Ry

     total magnetization       =   161.84 Bohr mag/cell
     absolute magnetization    =   168.08 Bohr mag/cell

     iteration # 29     ecut=    60.00 Ry     beta= 0.20
     Davidson diagonalization with overlap
     c_bands:  1 eigenvalues not converged
     ethr =  1.18E-05,  avg # of iterations = 15.3

     negative rho (up, down):  1.222E-02 2.164E-01

     total cpu time spent up to now is    10359.0 secs

     total energy              =  -21095.06572480 Ry
     Harris-Foulkes estimate   =  -21095.15620070 Ry
     estimated scf accuracy    <       1.03227630 Ry

     total magnetization       =   163.08 Bohr mag/cell
     absolute magnetization    =   168.89 Bohr mag/cell

     iteration # 30     ecut=    60.00 Ry     beta= 0.20
     Davidson diagonalization with overlap
     c_bands:  1 eigenvalues not converged
     ethr =  1.18E-05,  avg # of iterations = 16.5

     negative rho (up, down):  1.405E-02 2.266E-01

     total cpu time spent up to now is    10657.5 secs

     total energy              =  -21095.08999510 Ry
     Harris-Foulkes estimate   =  -21095.09616544 Ry
     estimated scf accuracy    <       0.04304667 Ry

     total magnetization       =   162.46 Bohr mag/cell
     absolute magnetization    =   168.38 Bohr mag/cell

     iteration # 31     ecut=    60.00 Ry     beta= 0.20
     Davidson diagonalization with overlap
     c_bands:  1 eigenvalues not converged
     ethr =  4.18E-06,  avg # of iterations = 16.2

     negative rho (up, down):  1.663E-02 2.304E-01

     total cpu time spent up to now is    10964.9 secs

     total energy              =  -21095.08592735 Ry
     Harris-Foulkes estimate   =  -21095.09122672 Ry
     estimated scf accuracy    <       0.03266058 Ry

     total magnetization       =   162.26 Bohr mag/cell
     absolute magnetization    =   168.22 Bohr mag/cell

     iteration # 32     ecut=    60.00 Ry     beta= 0.20
     Davidson diagonalization with overlap
     c_bands:  1 eigenvalues not converged
     ethr =  3.17E-06,  avg # of iterations = 14.7

     negative rho (up, down):  1.697E-02 2.343E-01

     total cpu time spent up to now is    11267.2 secs

     total energy              =  -21095.07931052 Ry
     Harris-Foulkes estimate   =  -21095.08651996 Ry
     estimated scf accuracy    <       0.04624932 Ry

     total magnetization       =   162.28 Bohr mag/cell
     absolute magnetization    =   168.27 Bohr mag/cell

     iteration # 33     ecut=    60.00 Ry     beta= 0.20
     Davidson diagonalization with overlap
     c_bands:  1 eigenvalues not converged
     ethr =  3.17E-06,  avg # of iterations = 11.4

     negative rho (up, down):  1.504E-02 2.357E-01

     total cpu time spent up to now is    11561.2 secs

     total energy              =  -21095.07569951 Ry
     Harris-Foulkes estimate   =  -21095.07977412 Ry
     estimated scf accuracy    <       0.02944711 Ry

     total magnetization       =   162.44 Bohr mag/cell
     absolute magnetization    =   168.46 Bohr mag/cell

     iteration # 34     ecut=    60.00 Ry     beta= 0.20
     Davidson diagonalization with overlap
     c_bands:  1 eigenvalues not converged
     ethr =  2.86E-06,  avg # of iterations = 12.4

     negative rho (up, down):  1.481E-02 2.365E-01

     total cpu time spent up to now is    11854.7 secs

     total energy              =  -21095.07595172 Ry
     Harris-Foulkes estimate   =  -21095.07629241 Ry
     estimated scf accuracy    <       0.01608212 Ry

     total magnetization       =   162.61 Bohr mag/cell
     absolute magnetization    =   168.64 Bohr mag/cell

     iteration # 35     ecut=    60.00 Ry     beta= 0.20
     Davidson diagonalization with overlap
     c_bands:  1 eigenvalues not converged
     c_bands:  3 eigenvalues not converged
     ethr =  1.56E-06,  avg # of iterations = 19.0

     negative rho (up, down):  1.407E-02 2.344E-01

     total cpu time spent up to now is    12341.6 secs

     total energy              =  -21095.07754660 Ry
     Harris-Foulkes estimate   =  -21095.07692404 Ry
     estimated scf accuracy    <       0.02536466 Ry

     total magnetization       =   162.72 Bohr mag/cell
     absolute magnetization    =   168.77 Bohr mag/cell

     iteration # 36     ecut=    60.00 Ry     beta= 0.20
     Davidson diagonalization with overlap
     c_bands:  1 eigenvalues not converged
     c_bands:  2 eigenvalues not converged
     ethr =  1.56E-06,  avg # of iterations = 12.4

     negative rho (up, down):  1.427E-02 2.353E-01

     total cpu time spent up to now is    12637.6 secs

     total energy              =  -21095.07739546 Ry
     Harris-Foulkes estimate   =  -21095.07778186 Ry
     estimated scf accuracy    <       0.02977205 Ry

     total magnetization       =   162.71 Bohr mag/cell
     absolute magnetization    =   168.77 Bohr mag/cell

     iteration # 37     ecut=    60.00 Ry     beta= 0.20
     Davidson diagonalization with overlap
     c_bands:  2 eigenvalues not converged
     ethr =  1.56E-06,  avg # of iterations = 11.3

     negative rho (up, down):  1.239E-02 2.319E-01

     total cpu time spent up to now is    12933.1 secs

     total energy              =  -21095.08097670 Ry
     Harris-Foulkes estimate   =  -21095.07758676 Ry
     estimated scf accuracy    <       0.02694360 Ry

     total magnetization       =   162.70 Bohr mag/cell
     absolute magnetization    =   168.77 Bohr mag/cell

     iteration # 38     ecut=    60.00 Ry     beta= 0.20
     Davidson diagonalization with overlap
     c_bands:  2 eigenvalues not converged
     ethr =  1.56E-06,  avg # of iterations = 13.8

     negative rho (up, down):  1.232E-02 2.327E-01

     total cpu time spent up to now is    13228.9 secs

     total energy              =  -21095.08240739 Ry
     Harris-Foulkes estimate   =  -21095.08132231 Ry
     estimated scf accuracy    <       0.03319446 Ry

     total magnetization       =   162.66 Bohr mag/cell
     absolute magnetization    =   168.75 Bohr mag/cell

     iteration # 39     ecut=    60.00 Ry     beta= 0.20
     Davidson diagonalization with overlap
     c_bands:  2 eigenvalues not converged
     ethr =  1.56E-06,  avg # of iterations =  8.3

     negative rho (up, down):  1.230E-02 2.307E-01

     total cpu time spent up to now is    13519.1 secs

     total energy              =  -21095.08638502 Ry
     Harris-Foulkes estimate   =  -21095.08257268 Ry
     estimated scf accuracy    <       0.02914348 Ry

     total magnetization       =   162.65 Bohr mag/cell
     absolute magnetization    =   168.75 Bohr mag/cell

     iteration # 40     ecut=    60.00 Ry     beta= 0.20
     Davidson diagonalization with overlap
     c_bands:  1 eigenvalues not converged
     ethr =  1.56E-06,  avg # of iterations = 10.8

     negative rho (up, down):  1.229E-02 2.306E-01

     total cpu time spent up to now is    13814.6 secs

     total energy              =  -21095.08683192 Ry
     Harris-Foulkes estimate   =  -21095.08678966 Ry
     estimated scf accuracy    <       0.03772461 Ry

     total magnetization       =   162.60 Bohr mag/cell
     absolute magnetization    =   168.71 Bohr mag/cell

     iteration # 41     ecut=    60.00 Ry     beta= 0.20
     Davidson diagonalization with overlap
     ethr =  1.56E-06,  avg # of iterations =  6.7

     negative rho (up, down):  1.186E-02 2.283E-01

     total cpu time spent up to now is    14093.2 secs

     total energy              =  -21095.08668083 Ry
     Harris-Foulkes estimate   =  -21095.08694618 Ry
     estimated scf accuracy    <       0.03759459 Ry

     total magnetization       =   162.60 Bohr mag/cell
     absolute magnetization    =   168.72 Bohr mag/cell

     iteration # 42     ecut=    60.00 Ry     beta= 0.20
     Davidson diagonalization with overlap
     ethr =  1.56E-06,  avg # of iterations =  5.8

     negative rho (up, down):  1.278E-02 2.317E-01

     total cpu time spent up to now is    14372.1 secs

     total energy              =  -21095.08522674 Ry
     Harris-Foulkes estimate   =  -21095.08680007 Ry
     estimated scf accuracy    <       0.03518671 Ry

     total magnetization       =   162.58 Bohr mag/cell
     absolute magnetization    =   168.71 Bohr mag/cell

     iteration # 43     ecut=    60.00 Ry     beta= 0.20
     Davidson diagonalization with overlap
     ethr =  1.56E-06,  avg # of iterations =  7.2

     negative rho (up, down):  1.179E-02 2.299E-01

     total cpu time spent up to now is    14644.1 secs

     total energy              =  -21095.08600641 Ry
     Harris-Foulkes estimate   =  -21095.08538527 Ry
     estimated scf accuracy    <       0.03168210 Ry

     total magnetization       =   162.65 Bohr mag/cell
     absolute magnetization    =   168.78 Bohr mag/cell

     iteration # 44     ecut=    60.00 Ry     beta= 0.20
     Davidson diagonalization with overlap
     ethr =  1.56E-06,  avg # of iterations =  4.8

     negative rho (up, down):  1.183E-02 2.299E-01

     total cpu time spent up to now is    14913.9 secs

     total energy              =  -21095.08600399 Ry
     Harris-Foulkes estimate   =  -21095.08612914 Ry
     estimated scf accuracy    <       0.02812581 Ry

     total magnetization       =   162.66 Bohr mag/cell
     absolute magnetization    =   168.79 Bohr mag/cell

     iteration # 45     ecut=    60.00 Ry     beta= 0.20
     Davidson diagonalization with overlap
     ethr =  1.56E-06,  avg # of iterations =  3.9

     negative rho (up, down):  1.405E-02 2.378E-01

     total cpu time spent up to now is    15138.5 secs

     total energy              =  -21095.07659775 Ry
     Harris-Foulkes estimate   =  -21095.08609639 Ry
     estimated scf accuracy    <       0.02780286 Ry

     total magnetization       =   162.65 Bohr mag/cell
     absolute magnetization    =   168.79 Bohr mag/cell

     iteration # 46     ecut=    60.00 Ry     beta= 0.20
     Davidson diagonalization with overlap
     ethr =  1.56E-06,  avg # of iterations = 12.5

     negative rho (up, down):  1.150E-02 2.250E-01

     total cpu time spent up to now is    15425.1 secs

     total energy              =  -21095.08256187 Ry
     Harris-Foulkes estimate   =  -21095.07978996 Ry
     estimated scf accuracy    <       0.00694674 Ry

     total magnetization       =   162.48 Bohr mag/cell
     absolute magnetization    =   168.63 Bohr mag/cell

     iteration # 47     ecut=    60.00 Ry     beta= 0.20
     Davidson diagonalization with overlap
     ethr =  6.74E-07,  avg # of iterations = 15.3

     negative rho (up, down):  1.116E-02 2.240E-01

     total cpu time spent up to now is    15815.1 secs

     total energy              =  -21095.08317375 Ry
     Harris-Foulkes estimate   =  -21095.08377596 Ry
     estimated scf accuracy    <       0.00667293 Ry

     total magnetization       =   162.46 Bohr mag/cell
     absolute magnetization    =   168.62 Bohr mag/cell

     iteration # 48     ecut=    60.00 Ry     beta= 0.20
     Davidson diagonalization with overlap
     ethr =  6.47E-07,  avg # of iterations =  4.8

     negative rho (up, down):  1.074E-02 2.188E-01

     total cpu time spent up to now is    16088.8 secs

     total energy              =  -21095.08313973 Ry
     Harris-Foulkes estimate   =  -21095.08352289 Ry
     estimated scf accuracy    <       0.00223996 Ry

     total magnetization       =   162.37 Bohr mag/cell
     absolute magnetization    =   168.54 Bohr mag/cell

     iteration # 49     ecut=    60.00 Ry     beta= 0.20
     Davidson diagonalization with overlap
     c_bands:  1 eigenvalues not converged
     c_bands:  2 eigenvalues not converged
     ethr =  2.17E-07,  avg # of iterations = 14.9

     negative rho (up, down):  1.020E-02 2.136E-01

     total cpu time spent up to now is    17276.9 secs

     total energy              =  -21095.08778769 Ry
     Harris-Foulkes estimate   =  -21095.08574688 Ry
     estimated scf accuracy    <       0.00474218 Ry

     total magnetization       =   162.35 Bohr mag/cell
     absolute magnetization    =   168.58 Bohr mag/cell

     iteration # 50     ecut=    60.00 Ry     beta= 0.20
     Davidson diagonalization with overlap
     c_bands:  1 eigenvalues not converged
     c_bands:  2 eigenvalues not converged
     ethr =  2.17E-07,  avg # of iterations =  9.7

     negative rho (up, down):  1.030E-02 2.148E-01

     total cpu time spent up to now is    17570.3 secs

     total energy              =  -21095.08795868 Ry
     Harris-Foulkes estimate   =  -21095.08813050 Ry
     estimated scf accuracy    <       0.00971059 Ry

     total magnetization       =   162.44 Bohr mag/cell
     absolute magnetization    =   168.66 Bohr mag/cell

     iteration # 51     ecut=    60.00 Ry     beta= 0.20
     Davidson diagonalization with overlap
     c_bands:  1 eigenvalues not converged
     ethr =  2.17E-07,  avg # of iterations =  3.2

     negative rho (up, down):  1.092E-02 2.198E-01

     total cpu time spent up to now is    17785.1 secs

     total energy              =  -21095.08817162 Ry
     Harris-Foulkes estimate   =  -21095.08797917 Ry
     estimated scf accuracy    <       0.00909002 Ry

     total magnetization       =   162.43 Bohr mag/cell
     absolute magnetization    =   168.66 Bohr mag/cell

     iteration # 52     ecut=    60.00 Ry     beta= 0.20
     Davidson diagonalization with overlap
     ethr =  2.17E-07,  avg # of iterations =  7.6

     negative rho (up, down):  1.102E-02 2.232E-01

     total cpu time spent up to now is    18039.0 secs

     total energy              =  -21095.08875294 Ry
     Harris-Foulkes estimate   =  -21095.08823845 Ry
     estimated scf accuracy    <       0.01326732 Ry

     total magnetization       =   162.52 Bohr mag/cell
     absolute magnetization    =   168.73 Bohr mag/cell

     iteration # 53     ecut=    60.00 Ry     beta= 0.20
     Davidson diagonalization with overlap
     ethr =  2.17E-07,  avg # of iterations =  5.0

     negative rho (up, down):  1.148E-02 2.254E-01

     total cpu time spent up to now is    18266.0 secs

     total energy              =  -21095.08988796 Ry
     Harris-Foulkes estimate   =  -21095.08895767 Ry
     estimated scf accuracy    <       0.02713136 Ry

     total magnetization       =   162.64 Bohr mag/cell
     absolute magnetization    =   168.86 Bohr mag/cell

     iteration # 54     ecut=    60.00 Ry     beta= 0.20
     Davidson diagonalization with overlap
     ethr =  2.17E-07,  avg # of iterations =  5.3

     negative rho (up, down):  1.025E-02 2.063E-01

     total cpu time spent up to now is    18471.3 secs

     total energy              =  -21095.09127325 Ry
     Harris-Foulkes estimate   =  -21095.08999589 Ry
     estimated scf accuracy    <       0.04158966 Ry

     total magnetization       =   162.71 Bohr mag/cell
     absolute magnetization    =   168.93 Bohr mag/cell

     iteration # 55     ecut=    60.00 Ry     beta= 0.20
     Davidson diagonalization with overlap
     c_bands:  3 eigenvalues not converged
     c_bands:  1 eigenvalues not converged
     c_bands:  2 eigenvalues not converged
     ethr =  2.17E-07,  avg # of iterations =  9.6

     negative rho (up, down):  1.099E-02 2.076E-01

     total cpu time spent up to now is    18749.5 secs

     total energy              =  -21095.09142047 Ry
     Harris-Foulkes estimate   =  -21095.09148158 Ry
     estimated scf accuracy    <       0.04734283 Ry

     total magnetization       =   162.74 Bohr mag/cell
     absolute magnetization    =   168.95 Bohr mag/cell

     iteration # 56     ecut=    60.00 Ry     beta= 0.20
     Davidson diagonalization with overlap
     c_bands:  1 eigenvalues not converged
     ethr =  2.17E-07,  avg # of iterations =  7.9

     negative rho (up, down):  1.299E-02 1.990E-01

     total cpu time spent up to now is    19020.5 secs

     total energy              =  -21095.08882393 Ry
     Harris-Foulkes estimate   =  -21095.09148208 Ry
     estimated scf accuracy    <       0.05081668 Ry

     total magnetization       =   162.76 Bohr mag/cell
     absolute magnetization    =   168.97 Bohr mag/cell

     iteration # 57     ecut=    60.00 Ry     beta= 0.20
     Davidson diagonalization with overlap
     c_bands:  1 eigenvalues not converged
     ethr =  2.17E-07,  avg # of iterations =  6.7

     negative rho (up, down):  1.265E-02 1.975E-01

     total cpu time spent up to now is    19264.2 secs

     total energy              =  -21095.08853586 Ry
     Harris-Foulkes estimate   =  -21095.08901998 Ry
     estimated scf accuracy    <       0.02915174 Ry

     total magnetization       =   162.63 Bohr mag/cell
     absolute magnetization    =   168.85 Bohr mag/cell

     iteration # 58     ecut=    60.00 Ry     beta= 0.20
     Davidson diagonalization with overlap
     c_bands:  1 eigenvalues not converged
     ethr =  2.17E-07,  avg # of iterations =  3.2

     negative rho (up, down):  1.100E-02 2.053E-01

     total cpu time spent up to now is    19498.3 secs

     total energy              =  -21095.08953032 Ry
     Harris-Foulkes estimate   =  -21095.08856044 Ry
     estimated scf accuracy    <       0.02449699 Ry

     total magnetization       =   162.59 Bohr mag/cell
     absolute magnetization    =   168.81 Bohr mag/cell

     iteration # 59     ecut=    60.00 Ry     beta= 0.20
     Davidson diagonalization with overlap
     c_bands:  4 eigenvalues not converged
     c_bands:  1 eigenvalues not converged
     c_bands:  2 eigenvalues not converged
     ethr =  2.17E-07,  avg # of iterations =  9.6

     negative rho (up, down):  1.127E-02 2.208E-01

     total cpu time spent up to now is    19782.9 secs

     total energy              =  -21095.08541087 Ry
     Harris-Foulkes estimate   =  -21095.08974774 Ry
     estimated scf accuracy    <       0.03937680 Ry

     total magnetization       =   162.63 Bohr mag/cell
     absolute magnetization    =   168.86 Bohr mag/cell

     iteration # 60     ecut=    60.00 Ry     beta= 0.20
     Davidson diagonalization with overlap
     c_bands:  3 eigenvalues not converged
     c_bands:  1 eigenvalues not converged
     c_bands:  2 eigenvalues not converged
     ethr =  2.17E-07,  avg # of iterations = 14.4

     negative rho (up, down):  1.012E-02 2.291E-01

     total cpu time spent up to now is    20550.7 secs

     total energy              =  -21095.08674097 Ry
     Harris-Foulkes estimate   =  -21095.08709668 Ry
     estimated scf accuracy    <       0.02925434 Ry

     total magnetization       =   162.64 Bohr mag/cell
     absolute magnetization    =   168.92 Bohr mag/cell

     iteration # 61     ecut=    60.00 Ry     beta= 0.20
     Davidson diagonalization with overlap
     c_bands:  2 eigenvalues not converged
     ethr =  2.17E-07,  avg # of iterations = 12.1

     negative rho (up, down):  9.266E-03 2.153E-01

     total cpu time spent up to now is    20846.0 secs

     total energy              =  -21095.08932401 Ry
     Harris-Foulkes estimate   =  -21095.08713857 Ry
     estimated scf accuracy    <       0.01678330 Ry

     total magnetization       =   162.68 Bohr mag/cell
     absolute magnetization    =   168.95 Bohr mag/cell

     iteration # 62     ecut=    60.00 Ry     beta= 0.20
     Davidson diagonalization with overlap
     c_bands:  2 eigenvalues not converged
     ethr =  2.17E-07,  avg # of iterations =  9.7

     negative rho (up, down):  9.986E-03 2.057E-01

     total cpu time spent up to now is    21121.2 secs

     total energy              =  -21095.08865077 Ry
     Harris-Foulkes estimate   =  -21095.08939529 Ry
     estimated scf accuracy    <       0.01816005 Ry

     total magnetization       =   162.71 Bohr mag/cell
     absolute magnetization    =   168.98 Bohr mag/cell

     iteration # 63     ecut=    60.00 Ry     beta= 0.20
     Davidson diagonalization with overlap
     c_bands:  2 eigenvalues not converged
     ethr =  2.17E-07,  avg # of iterations =  7.8

     negative rho (up, down):  9.200E-03 2.104E-01

     total cpu time spent up to now is    21397.9 secs

     total energy              =  -21095.08921354 Ry
     Harris-Foulkes estimate   =  -21095.08871910 Ry
     estimated scf accuracy    <       0.01210723 Ry

     total magnetization       =   162.71 Bohr mag/cell
     absolute magnetization    =   169.00 Bohr mag/cell

     iteration # 64     ecut=    60.00 Ry     beta= 0.20
     Davidson diagonalization with overlap
     c_bands:  2 eigenvalues not converged
     ethr =  2.17E-07,  avg # of iterations =  4.5

     negative rho (up, down):  8.993E-03 2.113E-01

     total cpu time spent up to now is    21618.3 secs

     total energy              =  -21095.08906981 Ry
     Harris-Foulkes estimate   =  -21095.08924440 Ry
     estimated scf accuracy    <       0.01406624 Ry

     total magnetization       =   162.72 Bohr mag/cell
     absolute magnetization    =   169.00 Bohr mag/cell

     iteration # 65     ecut=    60.00 Ry     beta= 0.20
     Davidson diagonalization with overlap
     c_bands:  2 eigenvalues not converged
     ethr =  2.17E-07,  avg # of iterations =  1.9

     negative rho (up, down):  9.215E-03 2.090E-01

     total cpu time spent up to now is    21800.1 secs

     total energy              =  -21095.08915382 Ry
     Harris-Foulkes estimate   =  -21095.08908785 Ry
     estimated scf accuracy    <       0.01338605 Ry

     total magnetization       =   162.73 Bohr mag/cell
     absolute magnetization    =   169.02 Bohr mag/cell

     iteration # 66     ecut=    60.00 Ry     beta= 0.20
     Davidson diagonalization with overlap
     c_bands:  2 eigenvalues not converged
     ethr =  2.17E-07,  avg # of iterations =  1.9

     negative rho (up, down):  9.693E-03 2.087E-01

     total cpu time spent up to now is    21986.9 secs

     total energy              =  -21095.08887882 Ry
     Harris-Foulkes estimate   =  -21095.08917388 Ry
     estimated scf accuracy    <       0.01246042 Ry

     total magnetization       =   162.70 Bohr mag/cell
     absolute magnetization    =   169.00 Bohr mag/cell

     iteration # 67     ecut=    60.00 Ry     beta= 0.20
     Davidson diagonalization with overlap
     c_bands:  3 eigenvalues not converged
     ethr =  2.17E-07,  avg # of iterations =  3.0

     negative rho (up, down):  9.908E-03 2.080E-01

     total cpu time spent up to now is    22200.2 secs

     total energy              =  -21095.08867474 Ry
     Harris-Foulkes estimate   =  -21095.08890328 Ry
     estimated scf accuracy    <       0.01579166 Ry

     total magnetization       =   162.71 Bohr mag/cell
     absolute magnetization    =   169.01 Bohr mag/cell

     iteration # 68     ecut=    60.00 Ry     beta= 0.20
     Davidson diagonalization with overlap
     c_bands:  5 eigenvalues not converged
     ethr =  2.17E-07,  avg # of iterations =  4.5

     negative rho (up, down):  9.993E-03 2.187E-01

     total cpu time spent up to now is    22443.9 secs

     total energy              =  -21095.08731853 Ry
     Harris-Foulkes estimate   =  -21095.08869305 Ry
     estimated scf accuracy    <       0.01883966 Ry

     total magnetization       =   162.74 Bohr mag/cell
     absolute magnetization    =   169.05 Bohr mag/cell

     iteration # 69     ecut=    60.00 Ry     beta= 0.20
     Davidson diagonalization with overlap
     c_bands:  5 eigenvalues not converged
     ethr =  2.17E-07,  avg # of iterations =  8.9

     negative rho (up, down):  9.651E-03 2.192E-01

     total cpu time spent up to now is    22727.5 secs

     total energy              =  -21095.08739040 Ry
     Harris-Foulkes estimate   =  -21095.08742511 Ry
     estimated scf accuracy    <       0.01012308 Ry

     total magnetization       =   162.73 Bohr mag/cell
     absolute magnetization    =   169.04 Bohr mag/cell

     iteration # 70     ecut=    60.00 Ry     beta= 0.20
     Davidson diagonalization with overlap
     c_bands:  4 eigenvalues not converged
     ethr =  2.17E-07,  avg # of iterations =  7.2

     negative rho (up, down):  1.105E-02 2.220E-01

     total cpu time spent up to now is    23056.2 secs

     total energy              =  -21095.08479219 Ry
     Harris-Foulkes estimate   =  -21095.08743159 Ry
     estimated scf accuracy    <       0.00643546 Ry

     total magnetization       =   162.70 Bohr mag/cell
     absolute magnetization    =   169.00 Bohr mag/cell

     iteration # 71     ecut=    60.00 Ry     beta= 0.20
     Davidson diagonalization with overlap
     c_bands:  3 eigenvalues not converged
     ethr =  2.17E-07,  avg # of iterations =  7.7

     negative rho (up, down):  1.349E-02 2.255E-01

     total cpu time spent up to now is    23314.3 secs

     total energy              =  -21095.08418611 Ry
     Harris-Foulkes estimate   =  -21095.08492237 Ry
     estimated scf accuracy    <       0.00199366 Ry

     total magnetization       =   162.59 Bohr mag/cell
     absolute magnetization    =   168.92 Bohr mag/cell

     iteration # 72     ecut=    60.00 Ry     beta= 0.20
     Davidson diagonalization with overlap
     c_bands:  1 eigenvalues not converged
     ethr =  1.93E-07,  avg # of iterations = 10.0

     negative rho (up, down):  1.171E-02 2.215E-01

     total cpu time spent up to now is    23586.7 secs

     total energy              =  -21095.08436889 Ry
     Harris-Foulkes estimate   =  -21095.08425423 Ry
     estimated scf accuracy    <       0.00360219 Ry

     total magnetization       =   162.63 Bohr mag/cell
     absolute magnetization    =   168.96 Bohr mag/cell

     iteration # 73     ecut=    60.00 Ry     beta= 0.20
     Davidson diagonalization with overlap
     c_bands:  1 eigenvalues not converged
     ethr =  1.93E-07,  avg # of iterations =  7.8

     negative rho (up, down):  1.188E-02 2.225E-01

     total cpu time spent up to now is    23846.2 secs

     total energy              =  -21095.08434523 Ry
     Harris-Foulkes estimate   =  -21095.08439976 Ry
     estimated scf accuracy    <       0.00453567 Ry

     total magnetization       =   162.60 Bohr mag/cell
     absolute magnetization    =   168.94 Bohr mag/cell

     iteration # 74     ecut=    60.00 Ry     beta= 0.20
     Davidson diagonalization with overlap
     c_bands:  1 eigenvalues not converged
     ethr =  1.93E-07,  avg # of iterations =  1.9

     negative rho (up, down):  1.135E-02 2.219E-01

     total cpu time spent up to now is    24015.7 secs

     total energy              =  -21095.08480918 Ry
     Harris-Foulkes estimate   =  -21095.08434983 Ry
     estimated scf accuracy    <       0.00440494 Ry

     total magnetization       =   162.60 Bohr mag/cell
     absolute magnetization    =   168.94 Bohr mag/cell

     iteration # 75     ecut=    60.00 Ry     beta= 0.20
     Davidson diagonalization with overlap
     ethr =  1.93E-07,  avg # of iterations =  1.0

     negative rho (up, down):  1.150E-02 2.228E-01

     total cpu time spent up to now is    24144.6 secs

     total energy              =  -21095.08470197 Ry
     Harris-Foulkes estimate   =  -21095.08481282 Ry
     estimated scf accuracy    <       0.00444137 Ry

     total magnetization       =   162.59 Bohr mag/cell
     absolute magnetization    =   168.93 Bohr mag/cell

     iteration # 76     ecut=    60.00 Ry     beta= 0.20
     Davidson diagonalization with overlap
     ethr =  1.93E-07,  avg # of iterations =  1.0

     negative rho (up, down):  1.192E-02 2.209E-01

     total cpu time spent up to now is    24270.2 secs

     total energy              =  -21095.08457464 Ry
     Harris-Foulkes estimate   =  -21095.08470551 Ry
     estimated scf accuracy    <       0.00407209 Ry

     total magnetization       =   162.59 Bohr mag/cell
     absolute magnetization    =   168.93 Bohr mag/cell

     iteration # 77     ecut=    60.00 Ry     beta= 0.20
     Davidson diagonalization with overlap
     ethr =  1.93E-07,  avg # of iterations =  1.0

     negative rho (up, down):  9.686E-03 2.265E-01

     total cpu time spent up to now is    24400.8 secs

     total energy              =  -21095.08551138 Ry
     Harris-Foulkes estimate   =  -21095.08457735 Ry
     estimated scf accuracy    <       0.00429185 Ry

     total magnetization       =   162.59 Bohr mag/cell
     absolute magnetization    =   168.93 Bohr mag/cell

     iteration # 78     ecut=    60.00 Ry     beta= 0.20
     Davidson diagonalization with overlap
     c_bands:  1 eigenvalues not converged
     ethr =  1.93E-07,  avg # of iterations =  8.8

     negative rho (up, down):  1.023E-02 2.262E-01

     total cpu time spent up to now is    24663.1 secs

     total energy              =  -21095.08518187 Ry
     Harris-Foulkes estimate   =  -21095.08555309 Ry
     estimated scf accuracy    <       0.00333714 Ry

     total magnetization       =   162.63 Bohr mag/cell
     absolute magnetization    =   168.97 Bohr mag/cell

     iteration # 79     ecut=    60.00 Ry     beta= 0.20
     Davidson diagonalization with overlap
     ethr =  1.93E-07,  avg # of iterations =  5.0

     negative rho (up, down):  9.888E-03 2.210E-01

     total cpu time spent up to now is    24856.0 secs

     total energy              =  -21095.08527098 Ry
     Harris-Foulkes estimate   =  -21095.08519075 Ry
     estimated scf accuracy    <       0.00326995 Ry

     total magnetization       =   162.62 Bohr mag/cell
     absolute magnetization    =   168.96 Bohr mag/cell

     iteration # 80     ecut=    60.00 Ry     beta= 0.20
     Davidson diagonalization with overlap
     ethr =  1.93E-07,  avg # of iterations =  6.0

     negative rho (up, down):  9.280E-03 2.165E-01

     total cpu time spent up to now is    25068.4 secs

     total energy              =  -21095.08548800 Ry
     Harris-Foulkes estimate   =  -21095.08528922 Ry
     estimated scf accuracy    <       0.00489653 Ry

     total magnetization       =   162.63 Bohr mag/cell
     absolute magnetization    =   168.97 Bohr mag/cell

     iteration # 81     ecut=    60.00 Ry     beta= 0.20
     Davidson diagonalization with overlap
     c_bands:  1 eigenvalues not converged
     ethr =  1.93E-07,  avg # of iterations =  8.1

     negative rho (up, down):  1.197E-02 2.293E-01

     total cpu time spent up to now is    25317.6 secs

     total energy              =  -21095.08385145 Ry
     Harris-Foulkes estimate   =  -21095.08551075 Ry
     estimated scf accuracy    <       0.00573496 Ry

     total magnetization       =   162.61 Bohr mag/cell
     absolute magnetization    =   168.95 Bohr mag/cell

     iteration # 82     ecut=    60.00 Ry     beta= 0.20
     Davidson diagonalization with overlap
     c_bands:  1 eigenvalues not converged
     c_bands:  1 eigenvalues not converged
     c_bands:  1 eigenvalues not converged
     ethr =  1.93E-07,  avg # of iterations =  9.6

     negative rho (up, down):  9.762E-03 2.213E-01

     total cpu time spent up to now is    25588.1 secs

     total energy              =  -21095.08654154 Ry
     Harris-Foulkes estimate   =  -21095.08400935 Ry
     estimated scf accuracy    <       0.00667066 Ry

     total magnetization       =   162.74 Bohr mag/cell
     absolute magnetization    =   169.07 Bohr mag/cell

     iteration # 83     ecut=    60.00 Ry     beta= 0.20
     Davidson diagonalization with overlap
     c_bands:  1 eigenvalues not converged
     ethr =  1.93E-07,  avg # of iterations =  9.4

     negative rho (up, down):  9.518E-03 2.131E-01

     total cpu time spent up to now is    25858.4 secs

     total energy              =  -21095.09027234 Ry
     Harris-Foulkes estimate   =  -21095.08664259 Ry
     estimated scf accuracy    <       0.00474767 Ry

     total magnetization       =   162.62 Bohr mag/cell
     absolute magnetization    =   168.95 Bohr mag/cell

     iteration # 84     ecut=    60.00 Ry     beta= 0.20
     Davidson diagonalization with overlap
     c_bands:  4 eigenvalues not converged
     c_bands:  2 eigenvalues not converged
     c_bands:  2 eigenvalues not converged
     ethr =  1.93E-07,  avg # of iterations =  9.6

     negative rho (up, down):  8.450E-03 2.165E-01

     total cpu time spent up to now is    26157.5 secs

     total energy              =  -21095.09060626 Ry
     Harris-Foulkes estimate   =  -21095.09052289 Ry
     estimated scf accuracy    <       0.00326456 Ry

     total magnetization       =   162.58 Bohr mag/cell
     absolute magnetization    =   168.90 Bohr mag/cell

     iteration # 85     ecut=    60.00 Ry     beta= 0.20
     Davidson diagonalization with overlap
     c_bands:  1 eigenvalues not converged
     ethr =  1.93E-07,  avg # of iterations =  7.4

     negative rho (up, down):  9.049E-03 2.107E-01

     total cpu time spent up to now is    26412.9 secs

     total energy              =  -21095.08968062 Ry
     Harris-Foulkes estimate   =  -21095.09063185 Ry
     estimated scf accuracy    <       0.00243574 Ry

     total magnetization       =   162.53 Bohr mag/cell
     absolute magnetization    =   168.84 Bohr mag/cell

     iteration # 86     ecut=    60.00 Ry     beta= 0.20
     Davidson diagonalization with overlap
     c_bands:  1 eigenvalues not converged
     ethr =  1.93E-07,  avg # of iterations =  8.4

     negative rho (up, down):  8.829E-03 2.142E-01

     total cpu time spent up to now is    26679.1 secs

     total energy              =  -21095.09003672 Ry
     Harris-Foulkes estimate   =  -21095.08977768 Ry
     estimated scf accuracy    <       0.00609666 Ry

     total magnetization       =   162.62 Bohr mag/cell
     absolute magnetization    =   168.94 Bohr mag/cell

     iteration # 87     ecut=    60.00 Ry     beta= 0.20
     Davidson diagonalization with overlap
     c_bands:  1 eigenvalues not converged
     ethr =  1.93E-07,  avg # of iterations =  6.8

     negative rho (up, down):  8.399E-03 2.124E-01

     total cpu time spent up to now is    26923.6 secs

     total energy              =  -21095.09093466 Ry
     Harris-Foulkes estimate   =  -21095.09004904 Ry
     estimated scf accuracy    <       0.00624869 Ry

     total magnetization       =   162.60 Bohr mag/cell
     absolute magnetization    =   168.93 Bohr mag/cell

     iteration # 88     ecut=    60.00 Ry     beta= 0.20
     Davidson diagonalization with overlap
     c_bands:  1 eigenvalues not converged
     ethr =  1.93E-07,  avg # of iterations =  4.1

     negative rho (up, down):  1.157E-02 2.107E-01

     total cpu time spent up to now is    27134.5 secs

     total energy              =  -21095.09067609 Ry
     Harris-Foulkes estimate   =  -21095.09095307 Ry
     estimated scf accuracy    <       0.00843759 Ry

     total magnetization       =   162.64 Bohr mag/cell
     absolute magnetization    =   168.97 Bohr mag/cell

     iteration # 89     ecut=    60.00 Ry     beta= 0.20
     Davidson diagonalization with overlap
     c_bands:  1 eigenvalues not converged
     ethr =  1.93E-07,  avg # of iterations =  9.1

     negative rho (up, down):  9.186E-03 2.076E-01

     total cpu time spent up to now is    27405.4 secs

     total energy              =  -21095.09146112 Ry
     Harris-Foulkes estimate   =  -21095.09071294 Ry
     estimated scf accuracy    <       0.00652185 Ry

     total magnetization       =   162.57 Bohr mag/cell
     absolute magnetization    =   168.90 Bohr mag/cell

     iteration # 90     ecut=    60.00 Ry     beta= 0.20
     Davidson diagonalization with overlap
     c_bands:  1 eigenvalues not converged
     ethr =  1.93E-07,  avg # of iterations =  8.7

     negative rho (up, down):  1.169E-02 2.007E-01

     total cpu time spent up to now is    27671.2 secs

     total energy              =  -21095.08908108 Ry
     Harris-Foulkes estimate   =  -21095.09149813 Ry
     estimated scf accuracy    <       0.00559223 Ry

     total magnetization       =   162.61 Bohr mag/cell
     absolute magnetization    =   168.94 Bohr mag/cell

     iteration # 91     ecut=    60.00 Ry     beta= 0.20
     Davidson diagonalization with overlap
     c_bands:  2 eigenvalues not converged
     c_bands:  1 eigenvalues not converged
     ethr =  1.93E-07,  avg # of iterations =  9.4

     negative rho (up, down):  1.053E-02 1.850E-01

     total cpu time spent up to now is    27951.3 secs

     total energy              =  -21095.09193995 Ry
     Harris-Foulkes estimate   =  -21095.08916548 Ry
     estimated scf accuracy    <       0.00925497 Ry

     total magnetization       =   162.61 Bohr mag/cell
     absolute magnetization    =   168.93 Bohr mag/cell

     iteration # 92     ecut=    60.00 Ry     beta= 0.20
     Davidson diagonalization with overlap
     c_bands:  1 eigenvalues not converged
     c_bands:  2 eigenvalues not converged
     c_bands:  1 eigenvalues not converged
     ethr =  1.93E-07,  avg # of iterations = 14.3

     negative rho (up, down):  1.187E-02 1.831E-01

     total cpu time spent up to now is    28228.7 secs

     total energy              =  -21095.09277484 Ry
     Harris-Foulkes estimate   =  -21095.09204498 Ry
     estimated scf accuracy    <       0.01273565 Ry

     total magnetization       =   162.59 Bohr mag/cell
     absolute magnetization    =   168.93 Bohr mag/cell

     iteration # 93     ecut=    60.00 Ry     beta= 0.20
     Davidson diagonalization with overlap
     c_bands:  2 eigenvalues not converged
     c_bands:  1 eigenvalues not converged
     ethr =  1.93E-07,  avg # of iterations =  9.6

     negative rho (up, down):  1.194E-02 2.115E-01

     total cpu time spent up to now is    28512.3 secs

     total energy              =  -21095.09241574 Ry
     Harris-Foulkes estimate   =  -21095.09284310 Ry
     estimated scf accuracy    <       0.01167462 Ry

     total magnetization       =   162.58 Bohr mag/cell
     absolute magnetization    =   168.92 Bohr mag/cell

     iteration # 94     ecut=    60.00 Ry     beta= 0.20
     Davidson diagonalization with overlap
     c_bands:  2 eigenvalues not converged
     c_bands:  1 eigenvalues not converged
     ethr =  1.93E-07,  avg # of iterations = 14.5

     negative rho (up, down):  9.556E-03 1.929E-01

     total cpu time spent up to now is    28789.8 secs

     total energy              =  -21095.09224623 Ry
     Harris-Foulkes estimate   =  -21095.09256947 Ry
     estimated scf accuracy    <       0.00624868 Ry

     total magnetization       =   162.67 Bohr mag/cell
     absolute magnetization    =   169.00 Bohr mag/cell

     iteration # 95     ecut=    60.00 Ry     beta= 0.20
     Davidson diagonalization with overlap
     c_bands:  1 eigenvalues not converged
     ethr =  1.93E-07,  avg # of iterations = 12.5

     negative rho (up, down):  9.084E-03 2.211E-01

     total cpu time spent up to now is    29063.7 secs

     total energy              =  -21095.08876040 Ry
     Harris-Foulkes estimate   =  -21095.09232629 Ry
     estimated scf accuracy    <       0.01155753 Ry

     total magnetization       =   162.59 Bohr mag/cell
     absolute magnetization    =   168.93 Bohr mag/cell

     iteration # 96     ecut=    60.00 Ry     beta= 0.20
     Davidson diagonalization with overlap
     c_bands:  1 eigenvalues not converged
     c_bands:  1 eigenvalues not converged
     c_bands:  2 eigenvalues not converged
     ethr =  1.93E-07,  avg # of iterations = 12.3

     negative rho (up, down):  1.008E-02 2.109E-01

     total cpu time spent up to now is    29343.9 secs

     total energy              =  -21095.09107394 Ry
     Harris-Foulkes estimate   =  -21095.08889787 Ry
     estimated scf accuracy    <       0.00494103 Ry

     total magnetization       =   162.58 Bohr mag/cell
     absolute magnetization    =   168.91 Bohr mag/cell

     iteration # 97     ecut=    60.00 Ry     beta= 0.20
     Davidson diagonalization with overlap
     c_bands:  1 eigenvalues not converged
     c_bands:  1 eigenvalues not converged
     c_bands:  1 eigenvalues not converged
     ethr =  1.93E-07,  avg # of iterations = 10.5

     negative rho (up, down):  1.071E-02 1.898E-01

     total cpu time spent up to now is    29623.4 secs

     total energy              =  -21095.09310001 Ry
     Harris-Foulkes estimate   =  -21095.09120718 Ry
     estimated scf accuracy    <       0.00141979 Ry

     total magnetization       =   162.53 Bohr mag/cell
     absolute magnetization    =   168.86 Bohr mag/cell

     iteration # 98     ecut=    60.00 Ry     beta= 0.20
     Davidson diagonalization with overlap
     c_bands:  1 eigenvalues not converged
     c_bands:  2 eigenvalues not converged
     ethr =  1.38E-07,  avg # of iterations = 10.5

     negative rho (up, down):  1.048E-02 1.893E-01

     total cpu time spent up to now is    29905.4 secs

     total energy              =  -21095.09368487 Ry
     Harris-Foulkes estimate   =  -21095.09319596 Ry
     estimated scf accuracy    <       0.00254452 Ry

     total magnetization       =   162.50 Bohr mag/cell
     absolute magnetization    =   168.84 Bohr mag/cell

     iteration # 99     ecut=    60.00 Ry     beta= 0.20
     Davidson diagonalization with overlap
     ethr =  1.38E-07,  avg # of iterations =  8.3

     negative rho (up, down):  9.212E-03 1.907E-01

     total cpu time spent up to now is    30158.3 secs

     total energy              =  -21095.09557087 Ry
     Harris-Foulkes estimate   =  -21095.09369866 Ry
     estimated scf accuracy    <       0.00155900 Ry

     total magnetization       =   162.46 Bohr mag/cell
     absolute magnetization    =   168.81 Bohr mag/cell

     iteration #100     ecut=    60.00 Ry     beta= 0.20
     Davidson diagonalization with overlap
     c_bands:  2 eigenvalues not converged
     ethr =  1.38E-07,  avg # of iterations =  9.4

     negative rho (up, down):  9.381E-03 1.921E-01

     Magnetic moment per site:
     atom:    1    charge:   13.2575    magn:    2.4928    constr:    0.0000
     atom:    2    charge:   13.2589    magn:    2.3399    constr:    0.0000
     atom:    3    charge:   13.2578    magn:    2.5005    constr:    0.0000
     atom:    4    charge:   13.2614    magn:    2.3070    constr:    0.0000
     atom:    5    charge:   13.2653    magn:    2.2833    constr:    0.0000
     atom:    6    charge:   13.2653    magn:    2.4956    constr:    0.0000
     atom:    7    charge:   13.2709    magn:    2.2446    constr:    0.0000
     atom:    8    charge:   13.2658    magn:    2.4946    constr:    0.0000
     atom:    9    charge:   13.2580    magn:    2.4931    constr:    0.0000
     atom:   10    charge:   13.2578    magn:    2.4959    constr:    0.0000
     atom:   11    charge:   13.2613    magn:    2.2985    constr:    0.0000
     atom:   12    charge:   13.2606    magn:    2.3030    constr:    0.0000
     atom:   13    charge:   13.2658    magn:    2.2945    constr:    0.0000
     atom:   14    charge:   13.2650    magn:    2.2785    constr:    0.0000
     atom:   15    charge:   13.2641    magn:    2.5041    constr:    0.0000
     atom:   16    charge:   13.2663    magn:    2.4962    constr:    0.0000
     atom:   17    charge:   13.2576    magn:    2.5004    constr:    0.0000
     atom:   18    charge:   13.2615    magn:    2.3070    constr:    0.0000
     atom:   19    charge:   13.2576    magn:    2.5004    constr:    0.0000
     atom:   20    charge:   13.2594    magn:    2.3432    constr:    0.0000
     atom:   21    charge:   13.2708    magn:    2.2445    constr:    0.0000
     atom:   22    charge:   13.2657    magn:    2.4943    constr:    0.0000
     atom:   23    charge:   13.2708    magn:    2.2444    constr:    0.0000
     atom:   24    charge:   13.2576    magn:    2.1734    constr:    0.0000
     atom:   25    charge:   13.2573    magn:    2.5035    constr:    0.0000
     atom:   26    charge:   13.2578    magn:    2.4995    constr:    0.0000
     atom:   27    charge:   13.2616    magn:    2.3153    constr:    0.0000
     atom:   28    charge:   13.2613    magn:    2.2985    constr:    0.0000
     atom:   29    charge:   13.2561    magn:    2.4132    constr:    0.0000
     atom:   30    charge:   13.2606    magn:    2.2371    constr:    0.0000
     atom:   31    charge:   13.2773    magn:    2.4596    constr:    0.0000
     atom:   32    charge:   13.2640    magn:    2.5044    constr:    0.0000
     atom:   33    charge:   13.2576    magn:    2.4928    constr:    0.0000
     atom:   34    charge:   13.2615    magn:    2.3070    constr:    0.0000
     atom:   35    charge:   13.2576    magn:    2.4929    constr:    0.0000
     atom:   36    charge:   13.2591    magn:    2.3400    constr:    0.0000
     atom:   37    charge:   13.2653    magn:    2.2835    constr:    0.0000
     atom:   38    charge:   13.2657    magn:    2.4943    constr:    0.0000
     atom:   39    charge:   13.2653    magn:    2.2834    constr:    0.0000
     atom:   40    charge:   13.2653    magn:    2.4955    constr:    0.0000
     atom:   41    charge:   13.2574    magn:    2.5155    constr:    0.0000
     atom:   42    charge:   13.2581    magn:    2.4995    constr:    0.0000
     atom:   43    charge:   13.2606    magn:    2.3031    constr:    0.0000
     atom:   44    charge:   13.2614    magn:    2.2987    constr:    0.0000
     atom:   45    charge:   13.2661    magn:    2.2705    constr:    0.0000
     atom:   46    charge:   13.2606    magn:    2.2374    constr:    0.0000
     atom:   47    charge:   13.2663    magn:    2.4962    constr:    0.0000
     atom:   48    charge:   13.2639    magn:    2.5046    constr:    0.0000
     atom:   49    charge:   13.2578    magn:    2.5004    constr:    0.0000
     atom:   50    charge:   13.2595    magn:    2.3433    constr:    0.0000
     atom:   51    charge:   13.2575    magn:    2.4928    constr:    0.0000
     atom:   52    charge:   13.2614    magn:    2.3070    constr:    0.0000
     atom:   53    charge:   13.2709    magn:    2.2446    constr:    0.0000
     atom:   54    charge:   13.2576    magn:    2.1735    constr:    0.0000
     atom:   55    charge:   13.2653    magn:    2.2833    constr:    0.0000
     atom:   56    charge:   13.2657    magn:    2.4949    constr:    0.0000
     atom:   57    charge:   13.2580    magn:    2.4930    constr:    0.0000
     atom:   58    charge:   13.2578    magn:    2.4959    constr:    0.0000
     atom:   59    charge:   13.2614    magn:    2.2987    constr:    0.0000
     atom:   60    charge:   13.2617    magn:    2.3152    constr:    0.0000
     atom:   61    charge:   13.2658    magn:    2.2944    constr:    0.0000
     atom:   62    charge:   13.2650    magn:    2.2785    constr:    0.0000
     atom:   63    charge:   13.2639    magn:    2.5046    constr:    0.0000
     atom:   64    charge:   13.2773    magn:    2.4594    constr:    0.0000
     atom:   65    charge:    1.3553    magn:   -0.0029    constr:    0.0000
     atom:   66    charge:    0.4323    magn:    0.0084    constr:    0.0000
     atom:   67    charge:    0.4322    magn:    0.0084    constr:    0.0000

     total cpu time spent up to now is    30440.6 secs

     total energy              =  -21095.09463641 Ry
     Harris-Foulkes estimate   =  -21095.09559899 Ry
     estimated scf accuracy    <       0.00074152 Ry

     total magnetization       =   162.47 Bohr mag/cell
     absolute magnetization    =   168.81 Bohr mag/cell

     iteration #101     ecut=    60.00 Ry     beta= 0.20
     Davidson diagonalization with overlap
     ethr =  7.19E-08,  avg # of iterations =  8.8

     negative rho (up, down):  1.028E-02 1.549E-01

     total cpu time spent up to now is    30710.9 secs

     total energy              =  -21095.09758858 Ry
     Harris-Foulkes estimate   =  -21095.09465455 Ry
     estimated scf accuracy    <       0.00159978 Ry

     total magnetization       =   162.48 Bohr mag/cell
     absolute magnetization    =   168.82 Bohr mag/cell

     iteration #102     ecut=    60.00 Ry     beta= 0.20
     Davidson diagonalization with overlap
     c_bands:  3 eigenvalues not converged
     c_bands:  1 eigenvalues not converged
     c_bands:  2 eigenvalues not converged
     ethr =  7.19E-08,  avg # of iterations = 11.4

     negative rho (up, down):  9.373E-03 1.631E-01

     total cpu time spent up to now is    31009.8 secs

     total energy              =  -21095.09922596 Ry
     Harris-Foulkes estimate   =  -21095.09777215 Ry
     estimated scf accuracy    <       0.00023965 Ry

     total magnetization       =   162.38 Bohr mag/cell
     absolute magnetization    =   168.73 Bohr mag/cell

     iteration #103     ecut=    60.00 Ry     beta= 0.20
     Davidson diagonalization with overlap
     c_bands:  1 eigenvalues not converged
     c_bands:  1 eigenvalues not converged
     ethr =  2.32E-08,  avg # of iterations = 14.7

     negative rho (up, down):  9.269E-03 1.491E-01

     total cpu time spent up to now is    31325.6 secs

     total energy              =  -21095.09971705 Ry
     Harris-Foulkes estimate   =  -21095.09925139 Ry
     estimated scf accuracy    <       0.00046422 Ry

     total magnetization       =   162.41 Bohr mag/cell
     absolute magnetization    =   168.76 Bohr mag/cell

     iteration #104     ecut=    60.00 Ry     beta= 0.20
     Davidson diagonalization with overlap
     c_bands:  2 eigenvalues not converged
     c_bands:  1 eigenvalues not converged
     c_bands:  2 eigenvalues not converged
     ethr =  2.32E-08,  avg # of iterations = 12.7

     negative rho (up, down):  9.302E-03 1.718E-01

     total cpu time spent up to now is    31613.2 secs

     total energy              =  -21095.09992362 Ry
     Harris-Foulkes estimate   =  -21095.09983736 Ry
     estimated scf accuracy    <       0.00060678 Ry

     total magnetization       =   162.36 Bohr mag/cell
     absolute magnetization    =   168.71 Bohr mag/cell

     iteration #105     ecut=    60.00 Ry     beta= 0.20
     Davidson diagonalization with overlap
     c_bands:  1 eigenvalues not converged
     c_bands:  1 eigenvalues not converged
     c_bands:  2 eigenvalues not converged
     ethr =  2.32E-08,  avg # of iterations = 11.8

     negative rho (up, down):  1.013E-02 1.370E-01

     total cpu time spent up to now is    31904.6 secs

     total energy              =  -21095.09922183 Ry
     Harris-Foulkes estimate   =  -21095.10022888 Ry
     estimated scf accuracy    <       0.00359838 Ry

     total magnetization       =   162.50 Bohr mag/cell
     absolute magnetization    =   168.85 Bohr mag/cell

     iteration #106     ecut=    60.00 Ry     beta= 0.20
     Davidson diagonalization with overlap
     c_bands:  1 eigenvalues not converged
     c_bands:  1 eigenvalues not converged
     c_bands:  1 eigenvalues not converged
     ethr =  2.32E-08,  avg # of iterations = 12.5

     negative rho (up, down):  1.035E-02 1.324E-01

     total cpu time spent up to now is    32193.8 secs

     total energy              =  -21095.09946733 Ry
     Harris-Foulkes estimate   =  -21095.09967768 Ry
     estimated scf accuracy    <       0.00108405 Ry

     total magnetization       =   162.36 Bohr mag/cell
     absolute magnetization    =   168.71 Bohr mag/cell

     iteration #107     ecut=    60.00 Ry     beta= 0.20
     Davidson diagonalization with overlap
     ethr =  2.32E-08,  avg # of iterations =  6.9

     negative rho (up, down):  1.001E-02 1.336E-01

     total cpu time spent up to now is    32450.5 secs

     total energy              =  -21095.09940538 Ry
     Harris-Foulkes estimate   =  -21095.09946984 Ry
     estimated scf accuracy    <       0.00111279 Ry

     total magnetization       =   162.36 Bohr mag/cell
     absolute magnetization    =   168.71 Bohr mag/cell

     iteration #108     ecut=    60.00 Ry     beta= 0.20
     Davidson diagonalization with overlap
     ethr =  2.32E-08,  avg # of iterations =  7.7

     negative rho (up, down):  1.012E-02 1.319E-01

     total cpu time spent up to now is    32703.3 secs

     total energy              =  -21095.09901737 Ry
     Harris-Foulkes estimate   =  -21095.09943407 Ry
     estimated scf accuracy    <       0.00012803 Ry

     total magnetization       =   162.40 Bohr mag/cell
     absolute magnetization    =   168.75 Bohr mag/cell

     iteration #109     ecut=    60.00 Ry     beta= 0.20
[...]
   -10.8044 -10.7898 -10.7622 -10.7333 -10.7116 -10.6819 -10.6622 -10.6454
   -10.6383 -10.6337 -10.6211 -10.6108 -10.6021 -10.5922 -10.5843 -10.5686
   -10.5674 -10.5557 -10.5430 -10.5370 -10.5208 -10.4989 -10.4944 -10.4804
   -10.4697 -10.4683 -10.4514 -10.4453 -10.4305 -10.4241 -10.4089 -10.3992
   -10.3806 -10.3689 -10.3592 -10.3578 -10.3536 -10.3458 -10.3427 -10.3333
   -10.3241 -10.3156 -10.3068 -10.3002 -10.2905 -10.2867 -10.2697 -10.2687
   -10.2509 -10.2467 -10.2422 -10.2389 -10.2209 -10.2116 -10.2043 -10.1996
   -10.1815 -10.1608 -10.1547 -10.1440 -10.1394 -10.1339 -10.1233 -10.1139
   -10.1101 -10.1070 -10.1051 -10.0967 -10.0875 -10.0856 -10.0744 -10.0655
   -10.0550 -10.0464 -10.0393 -10.0248 -10.0158 -10.0116 -10.0019  -9.9952
    -9.9909  -9.9857  -9.9833  -9.9795  -9.9732  -9.9621  -9.9490  -9.9453
    -9.9420  -9.9265  -9.9107  -9.9080  -9.9049  -9.9003  -9.8858  -9.8737
    -9.8613  -9.8465  -9.8272  -9.8198  -9.8152  -9.7919  -9.7761  -9.7683
    -9.7629  -9.7611  -9.7543  -9.7448  -9.7381  -9.7134  -9.6995  -9.6859
    -9.6679  -9.6621  -9.6505  -9.6368  -9.6247  -9.5812  -9.5399  -9.5010
    -9.4609  -9.3976  -9.3838  -9.3492  -9.2927  -9.2230  -9.1639  -9.1443
    -9.1154  -8.9315  -8.9290

          k =-0.5000-0.3536 0.0000 (128560 PWs)   bands (ev):

   -97.5064 -97.5028 -97.2750 -97.2738 -97.2444 -97.2351 -97.2236 -97.2229
   -97.2146 -97.2129 -97.2051 -97.2031 -97.2006 -97.1963 -97.1953 -97.1951
   -97.1944 -97.1936 -97.1868 -97.1830 -97.1814 -97.1808 -97.1803 -97.1788
   -97.1756 -97.1728 -97.1724 -97.1689 -97.1658 -97.1653 -97.1564 -97.1529
   -97.1518 -97.1480 -97.1462 -97.1355 -97.1352 -97.1332 -97.1299 -97.1289
   -97.1271 -97.1264 -97.1241 -97.1233 -97.1175 -97.1090 -97.1086 -97.1079
   -97.1061 -97.1055 -97.1052 -97.1052 -97.1027 -97.1025 -97.1019 -97.1008
   -97.0950 -97.0936 -97.0887 -97.0841 -97.0810 -97.0807 -97.0796 -97.0785
   -63.8324 -63.8145 -63.6226 -63.6136 -63.5298 -63.5171 -63.5069 -63.5043
   -63.5010 -63.4918 -63.4894 -63.4890 -63.4807 -63.4804 -63.4794 -63.4770
   -63.4767 -63.4753 -63.4715 -63.4687 -63.4655 -63.4649 -63.4637 -63.4608
   -63.4597 -63.4591 -63.4565 -63.4529 -63.4462 -63.4447 -63.4328 -63.4297
   -63.4280 -63.4267 -63.4241 -63.4211 -63.4192 -63.4132 -63.4067 -63.4039
   -63.4036 -63.4026 -63.4024 -63.3955 -63.3932 -63.3909 -63.3906 -63.3900
   -63.3890 -63.3873 -63.3835 -63.3818 -63.3810 -63.3797 -63.3782 -63.3757
   -63.3725 -63.3707 -63.3698 -63.3693 -63.3689 -63.3669 -63.3657 -63.3643
   -63.3518 -63.3415 -63.3411 -63.3379 -63.3361 -63.3312 -63.3296 -63.3193
   -63.3179 -63.3178 -63.3087 -63.3068 -63.3068 -63.3053 -63.2993 -63.2905
   -63.2903 -63.2852 -63.2834 -63.2832 -63.2814 -63.2804 -63.2769 -63.2759
   -63.2759 -63.2749 -63.2698 -63.2668 -63.2629 -63.2625 -63.2618 -63.2553
   -63.2552 -63.2524 -63.2522 -63.2478 -63.2434 -63.2356 -63.2347 -63.2346
   -63.2323 -63.2304 -63.2301 -63.2282 -63.2265 -63.2261 -63.2237 -63.2200
   -63.2185 -63.2174 -63.2149 -63.2135 -63.2113 -63.2090 -63.2073 -63.2068
   -63.2063 -63.2061 -63.2032 -63.1979 -63.1968 -63.1936 -63.1922 -63.1893
   -63.1887 -63.1880 -63.1853 -63.1809 -63.1751 -63.1749 -63.1716 -63.1706
   -63.1688 -63.1679 -63.1678 -63.1672 -63.1649 -63.1643 -63.1630 -63.1627
   -63.1606 -63.1589 -63.1573 -63.1563 -63.1560 -63.1548 -63.1518 -63.1515
   -63.1478 -63.1473 -63.1471 -63.1452 -63.1443 -63.1426 -63.1407 -63.1403
   -63.1396 -63.1392 -63.1387 -63.1370 -63.1361 -63.1349 -63.1345 -63.1335
   -63.1330 -63.1317 -63.1294 -63.1286 -63.1271 -63.1254 -63.1246 -63.1239
   -63.1237 -63.1217 -63.1211 -63.1192 -63.1172 -63.1155 -63.1155 -63.1124
   -63.1115 -63.1095 -63.1087 -63.1086 -63.1077 -63.1056 -63.1050 -63.1041
   -29.0357 -19.9433 -19.2591 -19.1775 -18.7774 -18.6032 -18.4668 -17.8799
   -17.7288 -17.3779 -17.2381 -16.6420 -16.5980 -16.5913 -16.5785 -16.1747
   -16.1510 -16.0877 -15.7523 -15.7454 -15.7440 -15.7354 -15.7203 -15.7005
   -15.6222 -15.6183 -15.6177 -15.6116 -15.5461 -15.4941 -15.1988 -15.1935
   -15.1844 -15.1793 -15.1519 -15.1262 -14.9747 -14.9564 -14.7208 -14.7165
   -14.6863 -14.6686 -14.6679 -14.6513 -14.6225 -14.6152 -14.5934 -14.5695
   -14.5682 -14.5415 -14.4261 -14.4230 -14.4152 -14.4066 -14.4035 -14.3494
   -14.1597 -14.1454 -14.1394 -14.1380 -14.1225 -14.1174 -13.9135 -13.8864
   -13.8706 -13.8608 -13.8138 -13.8123 -13.7223 -13.7061 -13.6394 -13.6277
   -13.6265 -13.6176 -13.6082 -13.6074 -13.6003 -13.5963 -13.5962 -13.5918
   -13.5279 -13.5126 -13.5078 -13.4991 -13.4963 -13.4943 -13.4864 -13.4863
   -13.4817 -13.4722 -13.4694 -13.4090 -13.2837 -13.2757 -13.2539 -13.2538
   -13.1558 -13.1431 -13.1430 -13.1367 -13.1159 -13.1124 -13.1061 -13.0910
   -13.0906 -13.0769 -13.0601 -13.0590 -13.0587 -13.0539 -13.0481 -13.0364
   -13.0321 -13.0319 -13.0179 -13.0067 -13.0019 -12.9960 -12.9948 -12.9917
   -12.9874 -12.9833 -12.9825 -12.9686 -12.9562 -12.9417 -12.9327 -12.9092
   -12.9042 -12.8964 -12.8935 -12.8856 -12.8855 -12.8785 -12.8784 -12.8773
   -12.8754 -12.8644 -12.8519 -12.8183 -12.8110 -12.8026 -12.6878 -12.6746
   -12.6262 -12.6261 -12.6227 -12.6172 -12.6084 -12.5737 -12.5720 -12.5439
   -12.5387 -12.5181 -12.4449 -12.4438 -12.4407 -12.4306 -12.4218 -12.4066
   -12.3979 -12.3858 -12.3853 -12.3636 -12.3601 -12.3240 -12.2999 -12.2574
   -12.2020 -12.1848 -12.1796 -12.1693 -12.1007 -12.0969 -12.0969 -12.0950
   -12.0870 -12.0827 -12.0774 -12.0687 -12.0180 -12.0068 -11.9931 -11.9789
   -11.9725 -11.9669 -11.9411 -11.9321 -11.9289 -11.6938 -11.6748 -11.6275
   -11.6038 -11.5815 -11.5609 -11.5109 -11.4568 -11.3385 -11.3209 -11.3193
   -11.3114 -11.2549 -11.2533 -11.2416 -11.1695 -11.1639 -11.1425 -11.1392
   -11.1367 -11.1171 -11.1075 -11.0792 -11.0591 -11.0441 -11.0262 -11.0221
   -11.0125 -10.9703 -10.9694 -10.9371 -10.8953 -10.8848 -10.8718 -10.8492
   -10.8452 -10.8328 -10.8077 -10.8075 -10.8007 -10.7998 -10.7986 -10.7908
   -10.7844 -10.7746 -10.7618 -10.7537 -10.7516 -10.7505 -10.7202 -10.7164
   -10.7046 -10.6739 -10.6503 -10.6389 -10.6188 -10.5889 -10.5787 -10.5710
   -10.5543 -10.5347 -10.5225 -10.4799 -10.4763 -10.4655 -10.4143 -10.4072
   -10.3765 -10.3755 -10.3741 -10.3662 -10.3627 -10.3544 -10.3479 -10.3479
   -10.3477 -10.3331 -10.3243 -10.3226 -10.3185 -10.3108 -10.3035 -10.3000
   -10.2955 -10.2904 -10.2751 -10.2505 -10.2456 -10.2451 -10.2370 -10.2339
   -10.2283 -10.2242 -10.2149 -10.2134 -10.2078 -10.1951 -10.1854 -10.1835
   -10.1807 -10.1802 -10.1776 -10.1727 -10.1681 -10.1429 -10.1423 -10.1412
   -10.1323 -10.1244 -10.1234 -10.1207 -10.1195 -10.1187 -10.0944 -10.0829
   -10.0810 -10.0671 -10.0271 -10.0061 -10.0058 -10.0031  -9.9954  -9.9766
    -9.9655  -9.9580  -9.9494  -9.9418  -9.9414  -9.9409  -9.9349  -9.9342
    -9.9335  -9.9306  -9.9261  -9.9246  -9.9226  -9.9219  -9.9116  -9.9052
    -9.8964  -9.8694  -9.8685  -9.8673  -9.8659  -9.8605  -9.8562  -9.8560
    -9.8450  -9.8433  -9.8318  -9.8278  -9.8253  -9.7672  -9.7539  -9.7532
    -9.7436  -9.7427  -9.7311  -9.6926  -9.5453  -9.5400  -9.5282  -9.4883
    -9.3315  -9.3179  -9.3137  -9.3057  -9.2476  -9.2413  -9.2325  -9.2241
    -9.2164  -9.2105  -9.2012

     the Fermi energy is   -12.0703 ev

!    total energy              =  -21095.09926338 Ry
     Harris-Foulkes estimate   =  -21095.09926201 Ry
     estimated scf accuracy    <          3.2E-11 Ry

     The total energy is the sum of the following terms:

     one-electron contribution = -744279.82820927 Ry
     hartree contribution      =  371678.16608623 Ry
     xc contribution           =   -2234.96210543 Ry
     ewald contribution        =  358616.34986608 Ry
     Dispersion Correction     =      -1.39422391 Ry
     one-center paw contrib.   =   -4873.43099311 Ry
     smearing contrib. (-TS)   =       0.00031603 Ry

     total magnetization       =   162.73 Bohr mag/cell
     absolute magnetization    =   169.15 Bohr mag/cell

     convergence has been achieved in  37 iterations

     negative rho (up, down):  1.088E-02 1.236E-01

     Forces acting on atoms (cartesian axes, Ry/au):

     atom    1 type  1   force =     0.00022675   -0.00005649    0.01007887
     atom    2 type  1   force =    -0.00099253    0.00141359   -0.00456469
     atom    3 type  1   force =     0.00041771    0.00017406    0.00992346
     atom    4 type  1   force =    -0.00055706    0.00019989   -0.00945632
     atom    5 type  1   force =    -0.00008045   -0.00000123    0.00006455
     atom    6 type  1   force =     0.00000435   -0.00000595    0.00008475
     atom    7 type  1   force =     0.00000692   -0.00003282   -0.00002475
     atom    8 type  1   force =    -0.00004663    0.00001986   -0.00005244
     atom    9 type  1   force =     0.00000221   -0.00000326    0.00989626
     atom   10 type  1   force =    -0.00029356   -0.00023594    0.00906411
     atom   11 type  1   force =     0.00011676    0.00004178   -0.00941250
     atom   12 type  1   force =    -0.00010628    0.00002058   -0.00880197
     atom   13 type  1   force =    -0.00000359    0.00000375    0.00001656
     atom   14 type  1   force =    -0.00003778   -0.00002684    0.00005134
     atom   15 type  1   force =    -0.00005182    0.00002669    0.00005743
     atom   16 type  1   force =    -0.00006799   -0.00004308   -0.00000224
     atom   17 type  1   force =     0.00033925    0.00035373    0.00990928
     atom   18 type  1   force =     0.00009141   -0.00060233   -0.00943561
     atom   19 type  1   force =    -0.00044485   -0.00020331    0.00990080
     atom   20 type  1   force =    -0.00013070    0.00019302   -0.00583642
     atom   21 type  1   force =    -0.00003454    0.00002110   -0.00002964
     atom   22 type  1   force =     0.00000100   -0.00004708   -0.00003083
     atom   23 type  1   force =    -0.00000716    0.00003939   -0.00002866
     atom   24 type  1   force =    -0.00013980    0.00019578    0.00008732
     atom   25 type  1   force =     0.00002369   -0.00003367    0.00923480
     atom   26 type  1   force =    -0.00007362    0.00008751    0.00948163
     atom   27 type  1   force =     0.00026272    0.00009137   -0.01044118
     atom   28 type  1   force =    -0.00006374   -0.00008030   -0.00940382
     atom   29 type  1   force =    -0.00000184    0.00000351   -0.00019416
     atom   30 type  1   force =     0.00001062   -0.00001467   -0.00013766
     atom   31 type  1   force =    -0.00002281   -0.00000795    0.00010784
     atom   32 type  1   force =    -0.00000662    0.00005866    0.00005566
     atom   33 type  1   force =    -0.00023965    0.00003293    0.01007601
     atom   34 type  1   force =     0.00053393   -0.00027747   -0.00943162
     atom   35 type  1   force =     0.00004441    0.00023819    0.01008927
     atom   36 type  1   force =     0.00088960   -0.00126304   -0.00455433
     atom   37 type  1   force =     0.00007939   -0.00000063    0.00006750
     atom   38 type  1   force =     0.00004301   -0.00001758   -0.00003115
     atom   39 type  1   force =    -0.00002732   -0.00007690    0.00006501
     atom   40 type  1   force =    -0.00000598    0.00000795    0.00010342
     atom   41 type  1   force =    -0.00001400    0.00001910    0.00752818
     atom   42 type  1   force =     0.00003549   -0.00004976    0.00943159
     atom   43 type  1   force =     0.00000807    0.00012329   -0.00879005
     atom   44 type  1   force =    -0.00014958   -0.00006980   -0.00942384
     atom   45 type  1   force =     0.00000305   -0.00000459    0.00000121
     atom   46 type  1   force =    -0.00002002    0.00002654   -0.00014173
     atom   47 type  1   force =     0.00006258    0.00004847   -0.00000319
     atom   48 type  1   force =     0.00005039   -0.00002374    0.00006211
     atom   49 type  1   force =    -0.00030739   -0.00034623    0.00993596
     atom   50 type  1   force =     0.00022976   -0.00033060   -0.00591736
     atom   51 type  1   force =    -0.00001468   -0.00023149    0.01008988
     atom   52 type  1   force =    -0.00001086    0.00060577   -0.00946543
     atom   53 type  1   force =     0.00002749   -0.00001570   -0.00002577
     atom   54 type  1   force =     0.00013291   -0.00018675    0.00009715
     atom   55 type  1   force =     0.00002846    0.00007594    0.00006414
     atom   56 type  1   force =    -0.00000092    0.00005108   -0.00004833
     atom   57 type  1   force =     0.00000357   -0.00000194    0.00991191
     atom   58 type  1   force =     0.00031626    0.00020708    0.00905971
     atom   59 type  1   force =     0.00010827    0.00011551   -0.00942715
     atom   60 type  1   force =    -0.00017988   -0.00020589   -0.01045150
     atom   61 type  1   force =    -0.00000266    0.00000464    0.00001625
     atom   62 type  1   force =     0.00003801    0.00002683    0.00005112
     atom   63 type  1   force =     0.00000551   -0.00005297    0.00006342
     atom   64 type  1   force =     0.00001529    0.00002170    0.00010455
     atom   65 type  2   force =    -0.00003670   -0.00001808    0.00005100
     atom   66 type  3   force =    -0.00003656   -0.00002474   -0.00008319
     atom   67 type  3   force =     0.00005070    0.00004354   -0.00011140

     Total force =     0.000629     Total SCF correction =     0.000015

     bfgs converged in  18 scf cycles and  17 bfgs steps
     (criteria: energy <  7.3E-07 Ry, force <  3.9E-04 Ry/Bohr)

     End of BFGS Geometry Optimization

     Final energy   =  -21095.0992633769 Ry
Begin final coordinates

ATOMIC_POSITIONS (angstrom)
Fe       1.654912953   1.170200133   0.000000000    0   0   0
Fe       0.000000000   0.000000000   2.026984232    0   0   0
Fe       4.964738858   3.510600399   0.000000000    0   0   0
Fe       3.309825906   2.340400266   2.026984232    0   0   0
Fe       1.648403166   1.167913856   4.028285884
Fe       3.303667287   9.370390283   6.006801743
Fe       4.960953803   3.515935235   4.016354393
Fe       3.309454602   2.331182205   6.005807825
Fe       2.482363858   3.510600399   0.000000000    0   0   0
Fe       4.137287953   1.170200133   0.000000000    0   0   0
Fe       0.827450906   2.340400266   2.026984232    0   0   0
Fe       2.482375000   0.000000000   2.026984232    0   0   0
Fe       2.482297287   3.510375860   4.031898085
Fe       4.131067012   1.165886299   4.020851701
Fe       0.811308749   2.341898659   5.997499022
Fe       2.478795826  -0.002738658   6.018755345
Fe       6.619662953   1.170200133   0.000000000    0   0   0
Fe       4.964750000   0.000000000   2.026984232    0   0   0
Fe       9.929488858   3.510600399   0.000000000    0   0   0
Fe       8.274575906   2.340400266   2.026984232    0   0   0
Fe       6.623500941   1.164857738   4.016255313
Fe       4.956384299   0.002826775   6.005455136
Fe       9.933347957   3.505254553   4.016218128
Fe       8.273417438   2.342500405   6.111110622
Fe       7.447113858   3.510600399   0.000000000    0   0   0
Fe       9.102037953   1.170200133   0.000000000    0   0   0
Fe       5.792200906   2.340400266   2.026984232    0   0   0
Fe       7.447125000   0.000000000   2.026984232    0   0   0
Fe       7.447224440   3.510547602   4.050605734
Fe       9.090751132   1.186243290   4.053552010
Fe       5.755569237   2.314305654   5.936295256
Fe      10.761006523   9.377533152   5.997625166
Fe       3.309814764   5.851000664   0.000000000    0   0   0
Fe       1.654901811   4.680800531   2.026984232    0   0   0
Fe       6.619640670   8.191400930   0.000000000    0   0   0
Fe       4.964727717   7.021200797   2.026984232    0   0   0
Fe       3.316003532   5.853380207   4.028088032
Fe      11.584643693   4.689720965   6.005480599
Fe       6.615395872   8.186440793   4.028051933
Fe       4.970869195   7.012599928   6.005500420
Fe       4.137265670   8.191400930   0.000000000    0   0   0
Fe       5.792189764   5.851000664   0.000000000    0   0   0
Fe       2.482352717   7.021200797   2.026984232    0   0   0
Fe       4.137276811   4.680800531   2.026984232    0   0   0
Fe       4.137086106   8.191713972   4.034434380
Fe       5.803457057   5.835139795   4.053229756
Fe      12.415714574   7.023750018   6.018761750
Fe       4.153219078   4.679455297   5.997406902
Fe       8.274564764   5.851000664   0.000000000    0   0   0
Fe       6.619651811   4.680800531   2.026984232    0   0   0
Fe      11.584390670   8.191400930   0.000000000    0   0   0
Fe       9.929477717   7.021200797   2.026984232    0   0   0
Fe       8.270898674   5.856404397   4.016330218
Fe       6.621155961   4.679033897   6.110911391
Fe      11.588756817   8.196839180   4.028331692
Fe       9.938382787   7.018595451   6.005736614
Fe       9.102015670   8.191400930   0.000000000    0   0   0
Fe      10.756939764   5.851000664   0.000000000    0   0   0
Fe       7.447102717   7.021200797   2.026984232    0   0   0
Fe       9.102026811   4.680800531   2.026984232    0   0   0
Fe       9.102316929   8.191464406   4.031843890
Fe      10.763182706   5.855456882   4.020854765
Fe       7.443173762   7.005896446   5.997288688
Fe       9.138963946   4.706752993   5.936291640
N        7.448161233   3.511387793   7.501382035
H        8.101536416   3.973465162   8.155484248
H        6.795003954   3.049303549   8.155734996
End final coordinates



     Writing output data file Fe_NH2_paper_480c_ESM_pn5.save/

     init_run     :     86.62s CPU     88.33s WALL (       1 calls)
     electrons    : 241319.50s CPU 243278.39s WALL (      18 calls)
     update_pot   :    316.42s CPU    317.20s WALL (      17 calls)
     forces       :    812.12s CPU    817.99s WALL (      18 calls)

     Called by init_run:
     wfcinit      :     61.42s CPU     62.89s WALL (       1 calls)
     potinit      :      7.95s CPU      7.99s WALL (       1 calls)
     hinit0       :     14.62s CPU     14.70s WALL (       1 calls)

     Called by electrons:
     c_bands      : 220988.53s CPU 222660.89s WALL (     726 calls)
     sum_band     :  11625.61s CPU  11815.87s WALL (     726 calls)
     v_of_rho     :   1193.72s CPU   1198.96s WALL (     728 calls)
     newd         :    214.52s CPU    221.13s WALL (     728 calls)
     PAW_pot      :    331.17s CPU    332.61s WALL (     745 calls)
     mix_rho      :   6653.43s CPU   6718.90s WALL (     726 calls)

     Called by c_bands:
     init_us_2    :    330.06s CPU    340.72s WALL (    4464 calls)
     cegterg      : 190194.32s CPU 191451.29s WALL (    2203 calls)

     Called by sum_band:
     sum_band:bec :     21.45s CPU     21.56s WALL (    2229 calls)
     addusdens    :    263.18s CPU    276.06s WALL (     726 calls)

     Called by *egterg:
     h_psi        :  49554.92s CPU  49959.92s WALL (   33544 calls)
     s_psi        :  10650.59s CPU  10673.50s WALL (   33544 calls)
     g_psi        :    122.52s CPU    123.05s WALL (   31338 calls)
     cdiaghg      :  91259.26s CPU  91657.64s WALL (   33442 calls)

     Called by h_psi:
     h_psi:pot    :  49359.27s CPU  49621.82s WALL (   33544 calls)
     h_psi:calbec :  10764.32s CPU  10785.84s WALL (   33544 calls)
     vloc_psi     :  27910.63s CPU  28129.81s WALL (   33544 calls)
     add_vuspsi   :  10683.92s CPU  10705.95s WALL (   33544 calls)

     General routines
     calbec       :  15179.88s CPU  15208.90s WALL (   35989 calls)
     fft          :    752.63s CPU    756.72s WALL (   18483 calls)
     ffts         :   3401.40s CPU   3425.18s WALL (  406162 calls)
     fftw         :  27657.37s CPU  27884.37s WALL ( 7860544 calls)
     interpolate  :     74.17s CPU     74.64s WALL (    1456 calls)
     davcio       :      4.21s CPU    429.22s WALL (   21237 calls)

     Parallel routines
     fft_scatt_xy :   5424.65s CPU   5455.80s WALL ( 8285189 calls)
     fft_scatt_yz :   7690.68s CPU   7804.93s WALL ( 8285189 calls)

     PWSCF        :   2d19h25m CPU   2d19h58m WALL


   This run was terminated on:  11: 6: 6  18Jun2022            

=------------------------------------------------------------------------------=
   JOB DONE.
=------------------------------------------------------------------------------=
