
     Program PHONON v.6.7MaX starts on 29Sep2022 at  0:55:48 

     This program is part of the open-source Quantum ESPRESSO suite
     for quantum simulation of materials; please cite
         "P. Giannozzi et al., J. Phys.:Condens. Matter 21 395502 (2009);
         "P. Giannozzi et al., J. Phys.:Condens. Matter 29 465901 (2017);
          URL http://www.quantum-espresso.org", 
     in publications or presentations arising from this work. More details at
     http://www.quantum-espresso.org/quote

     Parallel version (MPI), running on   120 processors

     MPI processes distributed on     1 nodes
     K-points division:     npool     =       8
     R & G space division:  proc/nbgrp/npool/nimage =      15
     Waiting for input...
     Reading input from standard input

     Reading xml data from directory:

     ./NH_ESM_std.save/

     IMPORTANT: XC functional enforced from input :
     Exchange-correlation= PBE
                           (   1   4   3   4   0   0   0)
     Any further DFT definition will be discarded
     Please, verify this is what you really want


     Parallelization info
     --------------------
     sticks:   dense  smooth     PW     G-vecs:    dense   smooth      PW
     Min        3636    1818    468               639190   225950   29545
     Max        3637    1819    470               639197   225953   29547
     Sum       54553   27281   7033              9587919  3389267  443191


     Adding external electric field
        E field amplitude [Ha a.u.]: -1.5855E-03
        Potential amp.       -0.1079 Ry
        Total length         34.0151 bohr


     negative rho (up, down):  2.793E-04 1.232E-04
     Reading collected, re-writing distributed wavefunctions

     Calculation of q =    0.0000000   0.0000000   0.0000000

     phonons (vibrational modes) for NH                                         

     bravais-lattice index     =            0
     lattice parameter (alat)  =      37.7945  a.u.
     unit-cell volume          =   53986.6760 (a.u.)^3
     number of atoms/cell      =            2
     number of atomic types    =            2
     kinetic-energy cut-off    =      60.0000  Ry
     charge density cut-off    =     480.0000  Ry
     convergence threshold     =      1.0E-12
     beta                      =       0.7000
     number of iterations used =            4
     Exchange-correlation= PBE
                           (   1   4   3   4   0   0   0)


     celldm(1)=   37.79452  celldm(2)=    0.00000  celldm(3)=    0.00000
     celldm(4)=    0.00000  celldm(5)=    0.00000  celldm(6)=    0.00000

     crystal axes: (cart. coord. in units of alat)
               a(1) = (  1.0000  0.0000  0.0000 )  
               a(2) = (  0.0000  1.0000  0.0000 )  
               a(3) = (  0.0000  0.0000  1.0000 )  

     reciprocal axes: (cart. coord. in units 2 pi/alat)
               b(1) = (  1.0000  0.0000  0.0000 )  
               b(2) = (  0.0000  1.0000  0.0000 )  
               b(3) = (  0.0000  0.0000  1.0000 )  


     Atoms inside the unit cell: 

     Cartesian axes

     site n.  atom      mass           positions (alat units)
        1     N   14.0067   tau(    1) = (    0.50000    0.50000    0.00000  )
        2     H    1.0078   tau(    2) = (    0.50015    0.49994   -0.05249  )

     Computing dynamical matrix for 
                    q = (   0.0000000   0.0000000   0.0000000 )

      2 Sym.Ops. (with q -> -q+G )


     G cutoff =17367.5767  ( 639197 G-vectors)     FFT grid: (270,270,270)
     G cutoff = 8683.7884  ( 225950 G-vectors)  smooth grid: (192,192,192)

     number of k points=    20  Methfessel-Paxton smearing, width (Ry)=  0.0100
                       cart. coord. in units 2pi/alat
        k(    1) = (   0.0000000   0.0000000   0.0000000), wk =   0.0625000
        k(    2) = (   0.0000000   0.2500000   0.0000000), wk =   0.1250000
        k(    3) = (   0.0000000  -0.5000000   0.0000000), wk =   0.0625000
        k(    4) = (   0.2500000   0.0000000   0.0000000), wk =   0.1250000
        k(    5) = (   0.2500000   0.2500000   0.0000000), wk =   0.1250000
        k(    6) = (   0.2500000  -0.5000000   0.0000000), wk =   0.1250000
        k(    7) = (   0.2500000  -0.2500000   0.0000000), wk =   0.1250000
        k(    8) = (  -0.5000000   0.0000000   0.0000000), wk =   0.0625000
        k(    9) = (  -0.5000000   0.2500000   0.0000000), wk =   0.1250000
        k(   10) = (  -0.5000000  -0.5000000   0.0000000), wk =   0.0625000
        k(   11) = (   0.0000000   0.0000000   0.0000000), wk =   0.0625000
        k(   12) = (   0.0000000   0.2500000   0.0000000), wk =   0.1250000
        k(   13) = (   0.0000000  -0.5000000   0.0000000), wk =   0.0625000
        k(   14) = (   0.2500000   0.0000000   0.0000000), wk =   0.1250000
        k(   15) = (   0.2500000   0.2500000   0.0000000), wk =   0.1250000
        k(   16) = (   0.2500000  -0.5000000   0.0000000), wk =   0.1250000
        k(   17) = (   0.2500000  -0.2500000   0.0000000), wk =   0.1250000
        k(   18) = (  -0.5000000   0.0000000   0.0000000), wk =   0.0625000
        k(   19) = (  -0.5000000   0.2500000   0.0000000), wk =   0.1250000
        k(   20) = (  -0.5000000  -0.5000000   0.0000000), wk =   0.0625000

     PseudoPot. # 1 for N  read from file:
     ../../SSSP/N.pbe-n-radius_5.UPF
     MD5 check sum: 16739722b17309cd8fe442a2ace49922
     Pseudo is Ultrasoft + core correction, Zval =  5.0
     Generated using "atomic" code by A. Dal Corso  v.5.1
     Using radial grid of 1085 points,  4 beta functions with: 
                l(1) =   0
                l(2) =   0
                l(3) =   1
                l(4) =   1
     Q(r) pseudized with 0 coefficients 


     PseudoPot. # 2 for H  read from file:
     ../../SSSP/H.pbe-rrkjus_psl.1.0.0.UPF
     MD5 check sum: f52b6d4d1c606e5624b1dc7b2218f220
     Pseudo is Ultrasoft, Zval =  1.0
     Generated using "atomic" code by A. Dal Corso  v.5.1
     Using radial grid of  929 points,  2 beta functions with: 
                l(1) =   0
                l(2) =   0
     Q(r) pseudized with 0 coefficients 


     Mode symmetry, C_1 (1)     point group:


     Atomic displacements:
     There are    6 irreducible representations

     Representation     1      1 modes -  To be done

     Representation     2      1 modes -  To be done

     Representation     3      1 modes -  To be done

     Representation     4      1 modes -  To be done

     Representation     5      1 modes -  To be done

     Representation     6      1 modes -  To be done



     Alpha used in Ewald sum =   2.8000

     -------------------------------------------------
     Parameters for Dispersion (Grimme-D2) Correction:
     -------------------------------------------------
       atom      VdW radius       C_6     

        N          2.640         42.670
        H          1.892          4.857

     Calculating the D2 contribution to the dynamical matrix.
     D2 energy =       -0.00000240 Ry
     Done.


     negative rho (up, down):  2.793E-04 1.232E-04
     PHONON       :   2m29.38s CPU   2m36.27s WALL



     Representation #   1 mode #   1

     Self-consistent Calculation

     Pert. #  1: Fermi energy shift (Ry) =    -1.8340E-06     0.0000E+00

      iter #   1 total cpu time :   198.1 secs   av.it.:   5.7
      thresh= 1.000E-02 alpha_mix =  0.700 |ddv_scf|^2 =  2.309E-09

     Pert. #  1: Fermi energy shift (Ry) =    -4.2051E-04     0.0000E+00

      iter #   2 total cpu time :   240.1 secs   av.it.:  14.7
      thresh= 4.805E-06 alpha_mix =  0.700 |ddv_scf|^2 =  5.245E-10

     Pert. #  1: Fermi energy shift (Ry) =     4.8174E-04     0.0000E+00

      iter #   3 total cpu time :   285.6 secs   av.it.:  15.0
      thresh= 2.290E-06 alpha_mix =  0.700 |ddv_scf|^2 =  1.430E-11

     Pert. #  1: Fermi energy shift (Ry) =    -4.5474E-04     0.0000E+00

      iter #   4 total cpu time :   335.3 secs   av.it.:  16.5
      thresh= 3.782E-07 alpha_mix =  0.700 |ddv_scf|^2 =  7.970E-13

     End of self-consistent calculation

     Convergence has been achieved 


     Representation #   2 mode #   2

     Self-consistent Calculation

     Pert. #  1: Fermi energy shift (Ry) =     1.2498E-06     0.0000E+00

      iter #   1 total cpu time :   389.4 secs   av.it.:   5.7
      thresh= 1.000E-02 alpha_mix =  0.700 |ddv_scf|^2 =  2.245E-09

     Pert. #  1: Fermi energy shift (Ry) =     1.6184E-04     0.0000E+00

      iter #   2 total cpu time :   431.6 secs   av.it.:  14.2
      thresh= 4.738E-06 alpha_mix =  0.700 |ddv_scf|^2 =  4.831E-10

     Pert. #  1: Fermi energy shift (Ry) =    -1.9358E-04     0.0000E+00

      iter #   3 total cpu time :   472.8 secs   av.it.:  14.5
      thresh= 2.198E-06 alpha_mix =  0.700 |ddv_scf|^2 =  1.257E-11

     Pert. #  1: Fermi energy shift (Ry) =     1.8403E-04     0.0000E+00

      iter #   4 total cpu time :   520.1 secs   av.it.:  16.0
      thresh= 3.545E-07 alpha_mix =  0.700 |ddv_scf|^2 =  6.142E-13

     End of self-consistent calculation

     Convergence has been achieved 


     Representation #   3 mode #   3

     Self-consistent Calculation

     Pert. #  1: Fermi energy shift (Ry) =     1.8886E-01     0.0000E+00

      iter #   1 total cpu time :   574.9 secs   av.it.:   7.7
      thresh= 1.000E-02 alpha_mix =  0.700 |ddv_scf|^2 =  4.691E-09

     Pert. #  1: Fermi energy shift (Ry) =     1.6563E-01     0.0000E+00

      iter #   2 total cpu time :   616.9 secs   av.it.:  16.4
      thresh= 6.849E-06 alpha_mix =  0.700 |ddv_scf|^2 =  7.417E-10

     Pert. #  1: Fermi energy shift (Ry) =    -2.2110E-01     0.0000E+00

      iter #   3 total cpu time :   661.2 secs   av.it.:  17.5
      thresh= 2.723E-06 alpha_mix =  0.700 |ddv_scf|^2 =  4.905E-10

     Pert. #  1: Fermi energy shift (Ry) =    -2.4455E-02     0.0000E+00

      iter #   4 total cpu time :   709.0 secs   av.it.:  17.0
      thresh= 2.215E-06 alpha_mix =  0.700 |ddv_scf|^2 =  1.434E-11

     Pert. #  1: Fermi energy shift (Ry) =     2.3629E-02     0.0000E+00

      iter #   5 total cpu time :   757.3 secs   av.it.:  17.5
      thresh= 3.787E-07 alpha_mix =  0.700 |ddv_scf|^2 =  9.736E-13

     End of self-consistent calculation

     Convergence has been achieved 


     Representation #   4 mode #   4

     Self-consistent Calculation

     Pert. #  1: Fermi energy shift (Ry) =     6.6052E-04     0.0000E+00

      iter #   1 total cpu time :   809.0 secs   av.it.:   4.5
      thresh= 1.000E-02 alpha_mix =  0.700 |ddv_scf|^2 =  1.226E-10

     Pert. #  1: Fermi energy shift (Ry) =    -3.7343E-04     0.0000E+00

      iter #   2 total cpu time :   850.7 secs   av.it.:  15.4
      thresh= 1.107E-06 alpha_mix =  0.700 |ddv_scf|^2 =  1.374E-11

     Pert. #  1: Fermi energy shift (Ry) =     5.9292E-04     0.0000E+00

      iter #   3 total cpu time :   893.1 secs   av.it.:  16.5
      thresh= 3.707E-07 alpha_mix =  0.700 |ddv_scf|^2 =  3.818E-13

     End of self-consistent calculation

     Convergence has been achieved 


     Representation #   5 mode #   5

     Self-consistent Calculation

     Pert. #  1: Fermi energy shift (Ry) =     1.7286E-06     0.0000E+00

      iter #   1 total cpu time :   944.4 secs   av.it.:   4.0
      thresh= 1.000E-02 alpha_mix =  0.700 |ddv_scf|^2 =  1.002E-10

     Pert. #  1: Fermi energy shift (Ry) =     1.5422E-04     0.0000E+00

      iter #   2 total cpu time :   985.6 secs   av.it.:  14.6
      thresh= 1.001E-06 alpha_mix =  0.700 |ddv_scf|^2 =  1.171E-11

     Pert. #  1: Fermi energy shift (Ry) =    -2.7104E-04     0.0000E+00

      iter #   3 total cpu time :  1027.9 secs   av.it.:  15.2
      thresh= 3.422E-07 alpha_mix =  0.700 |ddv_scf|^2 =  3.771E-13

     End of self-consistent calculation

     Convergence has been achieved 


     Representation #   6 mode #   6

     Self-consistent Calculation

     Pert. #  1: Fermi energy shift (Ry) =    -2.9988E-01     0.0000E+00

      iter #   1 total cpu time :  1082.1 secs   av.it.:   6.9
      thresh= 1.000E-02 alpha_mix =  0.700 |ddv_scf|^2 =  7.779E-10

     Pert. #  1: Fermi energy shift (Ry) =     1.6085E-01     0.0000E+00

      iter #   2 total cpu time :  1126.7 secs   av.it.:  17.5
      thresh= 2.789E-06 alpha_mix =  0.700 |ddv_scf|^2 =  3.461E-10

     Pert. #  1: Fermi energy shift (Ry) =    -2.1414E-02     0.0000E+00

      iter #   3 total cpu time :  1169.5 secs   av.it.:  17.0
      thresh= 1.860E-06 alpha_mix =  0.700 |ddv_scf|^2 =  1.555E-11

     Pert. #  1: Fermi energy shift (Ry) =    -8.2735E-03     0.0000E+00

      iter #   4 total cpu time :  1215.3 secs   av.it.:  15.6
      thresh= 3.944E-07 alpha_mix =  0.700 |ddv_scf|^2 =  1.528E-12

     Pert. #  1: Fermi energy shift (Ry) =    -1.5753E-02     0.0000E+00

      iter #   5 total cpu time :  1261.6 secs   av.it.:  16.5
      thresh= 1.236E-07 alpha_mix =  0.700 |ddv_scf|^2 =  6.973E-14

     End of self-consistent calculation

     Convergence has been achieved 

     Number of q in the star =    1
     List of q in the star:
          1   0.000000000   0.000000000   0.000000000

     Diagonalizing the dynamical matrix

     q = (    0.000000000   0.000000000   0.000000000 ) 

 **************************************************************************
     freq (    1) =     -14.099334 [THz] =    -470.303174 [cm-1]
     freq (    2) =     -13.786756 [THz] =    -459.876684 [cm-1]
     freq (    3) =       6.161478 [THz] =     205.524773 [cm-1]
     freq (    4) =      16.153099 [THz] =     538.809400 [cm-1]
     freq (    5) =      16.262408 [THz] =     542.455528 [cm-1]
     freq (    6) =      95.444633 [THz] =    3183.690272 [cm-1]
 **************************************************************************

     Mode symmetry, C_1 (1)     point group:

     freq (   1-   1) =       -470.3  [cm-1]   --> A               I+R
     freq (   2-   2) =       -459.9  [cm-1]   --> A               I+R
     freq (   3-   3) =        205.5  [cm-1]   --> A               I+R
     freq (   4-   4) =        538.8  [cm-1]   --> A               I+R
     freq (   5-   5) =        542.5  [cm-1]   --> A               I+R
     freq (   6-   6) =       3183.7  [cm-1]   --> A               I+R

     PHONON       :  18m41.64s CPU  21m22.14s WALL

     INITIALIZATION: 
     phq_setup    :     12.97s CPU     14.30s WALL (       1 calls)
     phq_init     :    118.35s CPU    121.24s WALL (       1 calls)

     phq_init     :    118.35s CPU    121.24s WALL (       1 calls)
     set_drhoc    :     23.80s CPU     23.89s WALL (       3 calls)
     init_vloc    :      0.32s CPU      0.32s WALL (       1 calls)
     init_us_1    :      0.03s CPU      0.03s WALL (       1 calls)
     newd         :      1.17s CPU      1.23s WALL (       1 calls)
     dvanqq       :     43.25s CPU     43.75s WALL (       1 calls)
     drho         :     29.80s CPU     31.37s WALL (       1 calls)

     DYNAMICAL MATRIX:
     dynmat0      :     22.92s CPU     23.65s WALL (       1 calls)
     phqscf       :    972.18s CPU   1120.24s WALL (       1 calls)
     dynmatrix    :      0.08s CPU      0.15s WALL (       1 calls)

     phqscf       :    972.18s CPU   1120.24s WALL (       1 calls)
     solve_linter :    967.81s CPU   1101.29s WALL (       6 calls)
     drhodv       :      4.37s CPU      4.50s WALL (       6 calls)

     dynmat0      :     22.92s CPU     23.65s WALL (       1 calls)
     dynmat_us    :      0.89s CPU      0.93s WALL (       1 calls)
     d2ionq       :      0.20s CPU      0.20s WALL (       1 calls)
     dynmatcc     :     21.75s CPU     22.38s WALL (       1 calls)

     dynmat_us    :      0.89s CPU      0.93s WALL (       1 calls)
     addusdynmat  :      0.00s CPU      0.00s WALL (       1 calls)

     phqscf       :    972.18s CPU   1120.24s WALL (       1 calls)
     solve_linter :    967.81s CPU   1101.29s WALL (       6 calls)

     solve_linter :    967.81s CPU   1101.29s WALL (       6 calls)
     dvqpsi_us    :     10.84s CPU     11.14s WALL (      18 calls)
     ortho        :      2.05s CPU      2.09s WALL (      72 calls)
     cgsolve      :    323.75s CPU    327.44s WALL (      72 calls)
     incdrhoscf   :     20.71s CPU     21.00s WALL (      72 calls)
     addusddens   :     55.13s CPU     58.95s WALL (      30 calls)
     vpsifft      :     16.69s CPU     16.98s WALL (      54 calls)
     dv_of_drho   :    160.53s CPU    167.83s WALL (      24 calls)
     mix_pot      :      7.59s CPU     24.11s WALL (      24 calls)
     ef_shift     :     24.23s CPU     24.71s WALL (      30 calls)
     localdos     :     30.54s CPU     31.73s WALL (       6 calls)
     psymdvscf    :    124.09s CPU    182.39s WALL (      24 calls)
     newdq        :     71.40s CPU     74.97s WALL (      24 calls)
     adddvscf     :      0.42s CPU      0.42s WALL (      54 calls)
     drhodvus     :      2.30s CPU     15.98s WALL (       6 calls)

     dvqpsi_us    :     10.84s CPU     11.14s WALL (      18 calls)
     dvqpsi_us_on :      0.14s CPU      0.14s WALL (      18 calls)

     cgsolve      :    323.75s CPU    327.44s WALL (      72 calls)
     ch_psi       :    313.19s CPU    316.77s WALL (    1196 calls)

     ch_psi       :    313.19s CPU    316.77s WALL (    1196 calls)
     h_psi        :    286.77s CPU    290.06s WALL (    1196 calls)
     last         :     18.59s CPU     18.80s WALL (    1196 calls)

     h_psi        :    286.77s CPU    290.06s WALL (    1196 calls)
     add_vuspsi   :      4.46s CPU      4.52s WALL (    1196 calls)

     incdrhoscf   :     20.71s CPU     21.00s WALL (      72 calls)
     addusdbec    :      0.92s CPU      0.93s WALL (      90 calls)

     drhodvus     :      2.30s CPU     15.98s WALL (       6 calls)

      General routines
     calbec       :     11.89s CPU     12.10s WALL (    2674 calls)
     fft          :    276.66s CPU    282.51s WALL (    1049 calls)
     ffts         :     19.87s CPU     20.35s WALL (     254 calls)
     fftw         :    269.07s CPU    272.18s WALL (    9381 calls)
     davcio       :      0.11s CPU     28.84s WALL (     538 calls)
     write_rec    :      0.00s CPU     29.51s WALL (      30 calls)


     PHONON       :  18m41.64s CPU  21m22.14s WALL


   This run was terminated on:   1:17:10  29Sep2022            

=------------------------------------------------------------------------------=
   JOB DONE.
=------------------------------------------------------------------------------=
