     Message from routine get_command_line:
     unexpected argument # 4     :-in

     Program PWSCF v.6.7MaX starts on 28Sep2022 at 20:40:33 

     This program is part of the open-source Quantum ESPRESSO suite
     for quantum simulation of materials; please cite
         "P. Giannozzi et al., J. Phys.:Condens. Matter 21 395502 (2009);
         "P. Giannozzi et al., J. Phys.:Condens. Matter 29 465901 (2017);
          URL http://www.quantum-espresso.org", 
     in publications or presentations arising from this work. More details at
     http://www.quantum-espresso.org/quote

     Parallel version (MPI), running on   120 processors

     MPI processes distributed on     1 nodes
     K-points division:     npool     =       8
     R & G space division:  proc/nbgrp/npool/nimage =      15
     Waiting for input...
     Reading input from standard input
Warning: card &CELL ignored
Warning: card / ignored

     Current dimensions of program PWSCF are:
     Max number of different atomic species (ntypx) = 10
     Max number of k-points (npk) =  40000
     Max angular momentum in pseudopotentials (lmaxx) =  3

     IMPORTANT: XC functional enforced from input :
     Exchange-correlation= PBE
                           (   1   4   3   4   0   0   0)
     Any further DFT definition will be discarded
     Please, verify this is what you really want


     -------------------------------------------------
     Parameters for Dispersion (Grimme-D2) Correction:
     -------------------------------------------------
       atom      VdW radius       C_6     

        N          2.640         42.670
        H          1.892          4.857

     Subspace diagonalization in iterative solution of the eigenvalue problem:
     one sub-group per band group will be used
     scalapack distributed-memory algorithm (size of sub-group:  3*  3 procs)


     Parallelization info
     --------------------
     sticks:   dense  smooth     PW     G-vecs:    dense   smooth      PW
     Min        3636    1818    468               639190   225950   29545
     Max        3637    1819    470               639197   225953   29547
     Sum       54553   27281   7033              9587919  3389267  443191



     bravais-lattice index     =            0
     lattice parameter (alat)  =      37.7945  a.u.
     unit-cell volume          =   53986.6760 (a.u.)^3
     number of atoms/cell      =            2
     number of atomic types    =            2
     number of electrons       =         6.00
     number of Kohn-Sham states=            7
     kinetic-energy cutoff     =      60.0000  Ry
     charge density cutoff     =     480.0000  Ry
     scf convergence threshold =      1.0E-08
     mixing beta               =       0.7000
     number of iterations used =           10  plain     mixing
     energy convergence thresh.=      7.3E-07
     force convergence thresh. =      3.9E-04
     Exchange-correlation= PBE
                           (   1   4   3   4   0   0   0)
     nstep                     =           50


     celldm(1)=  37.794522  celldm(2)=   0.000000  celldm(3)=   0.000000
     celldm(4)=   0.000000  celldm(5)=   0.000000  celldm(6)=   0.000000

     crystal axes: (cart. coord. in units of alat)
               a(1) = (   1.000000   0.000000   0.000000 )  
               a(2) = (   0.000000   1.000000   0.000000 )  
               a(3) = (   0.000000   0.000000   1.000000 )  

     reciprocal axes: (cart. coord. in units 2 pi/alat)
               b(1) = (  1.000000  0.000000  0.000000 )  
               b(2) = (  0.000000  1.000000  0.000000 )  
               b(3) = (  0.000000  0.000000  1.000000 )  


     PseudoPot. # 1 for N  read from file:
     ../../SSSP/N.pbe-n-radius_5.UPF
     MD5 check sum: 16739722b17309cd8fe442a2ace49922
     Pseudo is Ultrasoft + core correction, Zval =  5.0
     Generated using "atomic" code by A. Dal Corso  v.5.1
     Using radial grid of 1085 points,  4 beta functions with: 
                l(1) =   0
                l(2) =   0
                l(3) =   1
                l(4) =   1
     Q(r) pseudized with 0 coefficients 


     PseudoPot. # 2 for H  read from file:
     ../../SSSP/H.pbe-rrkjus_psl.1.0.0.UPF
     MD5 check sum: f52b6d4d1c606e5624b1dc7b2218f220
     Pseudo is Ultrasoft, Zval =  1.0
     Generated using "atomic" code by A. Dal Corso  v.5.1
     Using radial grid of  929 points,  2 beta functions with: 
                l(1) =   0
                l(2) =   0
     Q(r) pseudized with 0 coefficients 


     atomic species   valence    mass     pseudopotential
        N              5.00    14.00700     N ( 1.00)
        H              1.00     1.00800     H ( 1.00)

     Starting magnetic structure 
     atomic species   magnetization
        N            0.100
        H            0.100

     No symmetry found



   Cartesian axes

     site n.     atom                  positions (alat units)
         1           N   tau(   1) = (   0.5000000   0.5000000   0.0000000  )
         2           H   tau(   2) = (   0.5001513   0.4999379  -0.0524424  )

     number of k points=    10  Methfessel-Paxton smearing, width (Ry)=  0.0100
                       cart. coord. in units 2pi/alat
        k(    1) = (   0.0000000   0.0000000   0.0000000), wk =   0.0625000
        k(    2) = (   0.0000000   0.2500000   0.0000000), wk =   0.1250000
        k(    3) = (   0.0000000  -0.5000000   0.0000000), wk =   0.0625000
        k(    4) = (   0.2500000   0.0000000   0.0000000), wk =   0.1250000
        k(    5) = (   0.2500000   0.2500000   0.0000000), wk =   0.1250000
        k(    6) = (   0.2500000  -0.5000000   0.0000000), wk =   0.1250000
        k(    7) = (   0.2500000  -0.2500000   0.0000000), wk =   0.1250000
        k(    8) = (  -0.5000000   0.0000000   0.0000000), wk =   0.0625000
        k(    9) = (  -0.5000000   0.2500000   0.0000000), wk =   0.1250000
        k(   10) = (  -0.5000000  -0.5000000   0.0000000), wk =   0.0625000

     Dense  grid:  9587919 G-vectors     FFT dimensions: ( 270, 270, 270)

     Smooth grid:  3389267 G-vectors     FFT dimensions: ( 192, 192, 192)

     Estimated max dynamical RAM per process >     385.51 MB

     Estimated total dynamical RAM >      45.18 GB

     Adding external electric field
        E field amplitude [Ha a.u.]: -1.5855E-03
        Potential amp.       -0.1079 Ry
        Total length         34.0151 bohr

     Generating pointlists ...
     new r_m :   0.0216 (alat units)  0.8176 (a.u.) for type    1
     new r_m :   0.0216 (alat units)  0.8176 (a.u.) for type    2

     Initial potential from superposition of free atoms

     starting charge    5.99998, renormalised to    6.00000

     negative rho (up, down):  9.688E-05 7.927E-05
     Starting wfcs are    5 randomized atomic wfcs +    2 random wfcs

     total cpu time spent up to now is       21.2 secs

     Self-consistent Calculation

     iteration #  1     ecut=    60.00 Ry     beta= 0.70
     CG style diagonalization
     c_bands:  1 eigenvalues not converged
     c_bands:  1 eigenvalues not converged
     c_bands:  1 eigenvalues not converged
     ethr =  1.00E-04,  avg # of iterations = 10.3

     negative rho (up, down):  2.332E-04 9.301E-05

     total cpu time spent up to now is       50.0 secs

     total energy              =     -21.06309556 Ry
     estimated scf accuracy    <       0.13757233 Ry

     total magnetization       =     2.00 Bohr mag/cell
     absolute magnetization    =     2.00 Bohr mag/cell

     iteration #  2     ecut=    60.00 Ry     beta= 0.70
     CG style diagonalization
     ethr =  2.29E-03,  avg # of iterations =  3.2

     negative rho (up, down):  2.358E-04 1.152E-04

     total cpu time spent up to now is       67.0 secs

     total energy              =     -21.08794254 Ry
     estimated scf accuracy    <       0.01374236 Ry

     total magnetization       =     2.00 Bohr mag/cell
     absolute magnetization    =     2.02 Bohr mag/cell

     iteration #  3     ecut=    60.00 Ry     beta= 0.70
     CG style diagonalization
     ethr =  2.29E-04,  avg # of iterations =  3.8

     negative rho (up, down):  2.670E-04 1.224E-04

     total cpu time spent up to now is       85.0 secs

     total energy              =     -21.09590646 Ry
     estimated scf accuracy    <       0.00123373 Ry

     total magnetization       =     2.00 Bohr mag/cell
     absolute magnetization    =     2.03 Bohr mag/cell

     iteration #  4     ecut=    60.00 Ry     beta= 0.70
     CG style diagonalization
     ethr =  2.06E-05,  avg # of iterations =  6.1

     negative rho (up, down):  2.760E-04 1.240E-04

     total cpu time spent up to now is      107.0 secs

     total energy              =     -21.09644514 Ry
     estimated scf accuracy    <       0.00004915 Ry

     total magnetization       =     2.00 Bohr mag/cell
     absolute magnetization    =     2.04 Bohr mag/cell

     iteration #  5     ecut=    60.00 Ry     beta= 0.70
     CG style diagonalization
     ethr =  8.19E-07,  avg # of iterations =  6.5

     negative rho (up, down):  2.790E-04 1.239E-04

     total cpu time spent up to now is      129.8 secs

     total energy              =     -21.09652190 Ry
     estimated scf accuracy    <       0.00000546 Ry

     total magnetization       =     2.00 Bohr mag/cell
     absolute magnetization    =     2.04 Bohr mag/cell

     iteration #  6     ecut=    60.00 Ry     beta= 0.70
     CG style diagonalization
     ethr =  9.10E-08,  avg # of iterations =  5.8

     negative rho (up, down):  2.792E-04 1.235E-04

     total cpu time spent up to now is      151.4 secs

     total energy              =     -21.09652976 Ry
     estimated scf accuracy    <       0.00000049 Ry

     total magnetization       =     2.00 Bohr mag/cell
     absolute magnetization    =     2.04 Bohr mag/cell

     iteration #  7     ecut=    60.00 Ry     beta= 0.70
     CG style diagonalization
     ethr =  8.17E-09,  avg # of iterations =  4.3

     negative rho (up, down):  2.793E-04 1.234E-04

     total cpu time spent up to now is      170.8 secs

     total energy              =     -21.09653069 Ry
     estimated scf accuracy    <       0.00000024 Ry

     total magnetization       =     2.00 Bohr mag/cell
     absolute magnetization    =     2.05 Bohr mag/cell

     iteration #  8     ecut=    60.00 Ry     beta= 0.70
     CG style diagonalization
     ethr =  4.07E-09,  avg # of iterations =  3.7

     negative rho (up, down):  2.794E-04 1.234E-04

     total cpu time spent up to now is      189.2 secs

     total energy              =     -21.09653048 Ry
     estimated scf accuracy    <       0.00000053 Ry

     total magnetization       =     2.00 Bohr mag/cell
     absolute magnetization    =     2.05 Bohr mag/cell

     iteration #  9     ecut=    60.00 Ry     beta= 0.70
     CG style diagonalization
     ethr =  4.07E-09,  avg # of iterations =  3.4

     negative rho (up, down):  2.794E-04 1.234E-04

     total cpu time spent up to now is      207.3 secs

     total energy              =     -21.09653067 Ry
     estimated scf accuracy    <       0.00000007 Ry

     total magnetization       =     2.00 Bohr mag/cell
     absolute magnetization    =     2.05 Bohr mag/cell

     iteration # 10     ecut=    60.00 Ry     beta= 0.70
     CG style diagonalization
     ethr =  1.22E-09,  avg # of iterations =  3.3

     negative rho (up, down):  2.794E-04 1.234E-04

     Magnetic moment per site:
     atom:    1    charge:    1.3449    magn:    0.5549    constr:    0.0000
     atom:    2    charge:    0.4605    magn:   -0.0086    constr:    0.0000

     total cpu time spent up to now is      222.9 secs

     End of self-consistent calculation

 ------ SPIN UP ------------


          k = 0.0000 0.0000 0.0000 (423701 PWs)   bands (ev):

   -21.4225 -10.2429  -8.4994  -8.4993  -1.1448  -0.3214  -0.1413

          k = 0.0000 0.2500 0.0000 (423725 PWs)   bands (ev):

   -21.4225 -10.2429  -8.4994  -8.4993  -1.1443  -0.3280  -0.1749

          k = 0.0000-0.5000 0.0000 (423542 PWs)   bands (ev):

   -21.4225 -10.2429  -8.4994  -8.4993  -1.1440  -0.3385  -0.1802

          k = 0.2500 0.0000 0.0000 (423725 PWs)   bands (ev):

   -21.4225 -10.2429  -8.4994  -8.4993  -1.1444  -0.3284  -0.1724

          k = 0.2500 0.2500 0.0000 (423766 PWs)   bands (ev):

   -21.4225 -10.2429  -8.4994  -8.4993  -1.1440  -0.3214  -0.2327

          k = 0.2500-0.5000 0.0000 (423782 PWs)   bands (ev):

   -21.4225 -10.2429  -8.4994  -8.4993  -1.1436  -0.3175  -0.2449

          k = 0.2500-0.2500 0.0000 (423766 PWs)   bands (ev):

   -21.4225 -10.2429  -8.4994  -8.4993  -1.1440  -0.3213  -0.2310

          k =-0.5000 0.0000 0.0000 (423542 PWs)   bands (ev):

   -21.4225 -10.2429  -8.4994  -8.4993  -1.1440  -0.3391  -0.1841

          k =-0.5000 0.2500 0.0000 (423782 PWs)   bands (ev):

   -21.4225 -10.2429  -8.4994  -8.4993  -1.1435  -0.3161  -0.2427

          k =-0.5000-0.5000 0.0000 (423708 PWs)   bands (ev):

   -21.4225 -10.2429  -8.4994  -8.4993  -1.1430  -0.2761  -0.2080

 ------ SPIN DOWN ----------


          k = 0.0000 0.0000 0.0000 (423701 PWs)   bands (ev):

   -18.7305  -9.1495  -4.6493  -4.6493  -0.7853  -0.2857  -0.0403

          k = 0.0000 0.2500 0.0000 (423725 PWs)   bands (ev):

   -18.7305  -9.1495  -4.6493  -4.6493  -0.7831  -0.2933  -0.1247

          k = 0.0000-0.5000 0.0000 (423542 PWs)   bands (ev):

   -18.7305  -9.1495  -4.6493  -4.6493  -0.7811  -0.3036  -0.1448

          k = 0.2500 0.0000 0.0000 (423725 PWs)   bands (ev):

   -18.7305  -9.1495  -4.6493  -4.6493  -0.7832  -0.2938  -0.1214

          k = 0.2500 0.2500 0.0000 (423766 PWs)   bands (ev):

   -18.7305  -9.1495  -4.6493  -4.6493  -0.7813  -0.2846  -0.1764

          k = 0.2500-0.5000 0.0000 (423782 PWs)   bands (ev):

   -18.7305  -9.1495  -4.6493  -4.6493  -0.7793  -0.2802  -0.1891

          k = 0.2500-0.2500 0.0000 (423766 PWs)   bands (ev):

   -18.7305  -9.1495  -4.6493  -4.6493  -0.7813  -0.2847  -0.1726

          k =-0.5000 0.0000 0.0000 (423542 PWs)   bands (ev):

   -18.7305  -9.1495  -4.6493  -4.6493  -0.7810  -0.3033  -0.1454

          k =-0.5000 0.2500 0.0000 (423782 PWs)   bands (ev):

   -18.7305  -9.1495  -4.6493  -4.6493  -0.7794  -0.2801  -0.1907

          k =-0.5000-0.5000 0.0000 (423708 PWs)   bands (ev):

   -18.7305  -9.1495  -4.6493  -4.6493  -0.7775  -0.2220  -0.2077

     the Fermi energy is    -4.7639 ev

!    total energy              =     -21.09653071 Ry
     estimated scf accuracy    <          2.8E-09 Ry
     smearing contrib. (-TS)   =       0.00057979 Ry
     internal energy E=F+TS    =     -21.09711050 Ry

     The total energy is F=E-TS. E is the sum of the following terms:
     one-electron contribution =     -37.20845997 Ry
     hartree contribution      =      19.42139636 Ry
     xc contribution           =      -5.89967678 Ry
     ewald contribution        =       2.34424492 Ry
     Dispersion Correction     =      -0.00000239 Ry
     electric field correction =       0.24538736 Ry

     total magnetization       =     2.00 Bohr mag/cell
     absolute magnetization    =     2.05 Bohr mag/cell

     convergence has been achieved in  10 iterations

     negative rho (up, down):  2.794E-04 1.234E-04

     Forces acting on atoms (cartesian axes, Ry/au):

     atom    1 type  1   force =    -0.00000097    0.00000022    0.00127330
     atom    2 type  2   force =     0.00000097   -0.00000022   -0.00127330

     Total force =     0.001273     Total SCF correction =     0.000005

     BFGS Geometry Optimization
     Energy error            =      0.0E+00
     Gradient error          =      1.3E-03

     number of scf cycles    =   1
     number of bfgs steps    =   0

     energy   new            =     -21.0965307095 Ry

     new trust radius        =       0.0012732995 bohr
     new conv_thr            =       0.0000000100 Ry


ATOMIC_POSITIONS (angstrom)
N            10.0000000000       10.0000000000        0.0000000000    0   0   0
H            10.0030271759        9.9987572124       -1.0495216978



     Writing output data file ./NH_ESM_std.save/
     NEW-OLD atomic charge density approx. for the potential

     negative rho (up, down):  1.549E-04 2.017E-04

     Adding external electric field
        E field amplitude [Ha a.u.]: -1.5855E-03
        Potential amp.       -0.1079 Ry
        Total length         34.0151 bohr

     Generating pointlists ...

     total cpu time spent up to now is      244.0 secs

     Self-consistent Calculation

     iteration #  1     ecut=    60.00 Ry     beta= 0.70
     CG style diagonalization
     ethr =  1.00E-06,  avg # of iterations =  2.0

     Threshold (ethr) on eigenvalues was too large:
     Diagonalizing with lowered threshold

     CG style diagonalization
     ethr =  1.43E-09,  avg # of iterations =  2.9

     negative rho (up, down):  2.491E-04 1.391E-04

     total cpu time spent up to now is      266.6 secs

     total energy              =     -21.09653175 Ry
     estimated scf accuracy    <       0.00000020 Ry

     total magnetization       =     2.00 Bohr mag/cell
     absolute magnetization    =     2.05 Bohr mag/cell

     iteration #  2     ecut=    60.00 Ry     beta= 0.70
     CG style diagonalization
     ethr =  3.41E-09,  avg # of iterations =  3.4

     negative rho (up, down):  2.674E-04 1.305E-04

     total cpu time spent up to now is      284.0 secs

     total energy              =     -21.09653181 Ry
     estimated scf accuracy    <       0.00000004 Ry

     total magnetization       =     2.00 Bohr mag/cell
     absolute magnetization    =     2.05 Bohr mag/cell

     iteration #  3     ecut=    60.00 Ry     beta= 0.70
     CG style diagonalization
     ethr =  5.98E-10,  avg # of iterations =  3.4

     negative rho (up, down):  2.710E-04 1.303E-04

     total cpu time spent up to now is      301.3 secs

     total energy              =     -21.09653184 Ry
     estimated scf accuracy    <       0.00000004 Ry

     total magnetization       =     2.00 Bohr mag/cell
     absolute magnetization    =     2.05 Bohr mag/cell

     iteration #  4     ecut=    60.00 Ry     beta= 0.70
     CG style diagonalization
     ethr =  5.98E-10,  avg # of iterations =  3.0

     negative rho (up, down):  2.774E-04 1.247E-04

     total cpu time spent up to now is      318.1 secs

     total energy              =     -21.09653176 Ry
     estimated scf accuracy    <       0.00000007 Ry

     total magnetization       =     2.00 Bohr mag/cell
     absolute magnetization    =     2.05 Bohr mag/cell

     iteration #  5     ecut=    60.00 Ry     beta= 0.70
     CG style diagonalization
     ethr =  5.98E-10,  avg # of iterations =  3.0

     negative rho (up, down):  2.793E-04 1.233E-04

     Magnetic moment per site:
     atom:    1    charge:    1.3448    magn:    0.5550    constr:    0.0000
     atom:    2    charge:    0.4600    magn:   -0.0087    constr:    0.0000

     total cpu time spent up to now is      333.2 secs

     End of self-consistent calculation

 ------ SPIN UP ------------


          k = 0.0000 0.0000 0.0000 (423701 PWs)   bands (ev):

   -21.4185 -10.2421  -8.4990  -8.4990  -1.1458  -0.3216  -0.1418

          k = 0.0000 0.2500 0.0000 (423725 PWs)   bands (ev):

   -21.4185 -10.2421  -8.4990  -8.4990  -1.1453  -0.3286  -0.1753

          k = 0.0000-0.5000 0.0000 (423542 PWs)   bands (ev):

   -21.4185 -10.2421  -8.4990  -8.4990  -1.1449  -0.3388  -0.1807

          k = 0.2500 0.0000 0.0000 (423725 PWs)   bands (ev):

   -21.4185 -10.2421  -8.4990  -8.4990  -1.1454  -0.3289  -0.1730

          k = 0.2500 0.2500 0.0000 (423766 PWs)   bands (ev):

   -21.4185 -10.2421  -8.4990  -8.4990  -1.1449  -0.3216  -0.2329

          k = 0.2500-0.5000 0.0000 (423782 PWs)   bands (ev):

   -21.4185 -10.2421  -8.4990  -8.4990  -1.1445  -0.3177  -0.2452

          k = 0.2500-0.2500 0.0000 (423766 PWs)   bands (ev):

   -21.4185 -10.2421  -8.4990  -8.4990  -1.1449  -0.3215  -0.2314

          k =-0.5000 0.0000 0.0000 (423542 PWs)   bands (ev):

   -21.4185 -10.2421  -8.4990  -8.4990  -1.1449  -0.3393  -0.1844

          k =-0.5000 0.2500 0.0000 (423782 PWs)   bands (ev):

   -21.4185 -10.2421  -8.4990  -8.4990  -1.1445  -0.3166  -0.2432

          k =-0.5000-0.5000 0.0000 (423708 PWs)   bands (ev):

   -21.4185 -10.2421  -8.4990  -8.4990  -1.1440  -0.2762  -0.2082

 ------ SPIN DOWN ----------


          k = 0.0000 0.0000 0.0000 (423701 PWs)   bands (ev):

   -18.7257  -9.1492  -4.6491  -4.6491  -0.7863  -0.2860  -0.0405

          k = 0.0000 0.2500 0.0000 (423725 PWs)   bands (ev):

   -18.7257  -9.1492  -4.6491  -4.6491  -0.7842  -0.2934  -0.1249

          k = 0.0000-0.5000 0.0000 (423542 PWs)   bands (ev):

   -18.7257  -9.1492  -4.6491  -4.6491  -0.7821  -0.3035  -0.1453

          k = 0.2500 0.0000 0.0000 (423725 PWs)   bands (ev):

   -18.7257  -9.1492  -4.6491  -4.6491  -0.7842  -0.2938  -0.1220

          k = 0.2500 0.2500 0.0000 (423766 PWs)   bands (ev):

   -18.7257  -9.1492  -4.6491  -4.6491  -0.7823  -0.2848  -0.1763

          k = 0.2500-0.5000 0.0000 (423782 PWs)   bands (ev):

   -18.7257  -9.1492  -4.6491  -4.6491  -0.7803  -0.2802  -0.1895

          k = 0.2500-0.2500 0.0000 (423766 PWs)   bands (ev):

   -18.7257  -9.1492  -4.6491  -4.6491  -0.7823  -0.2849  -0.1729

          k =-0.5000 0.0000 0.0000 (423542 PWs)   bands (ev):

   -18.7257  -9.1492  -4.6491  -4.6491  -0.7821  -0.3033  -0.1457

          k =-0.5000 0.2500 0.0000 (423782 PWs)   bands (ev):

   -18.7257  -9.1492  -4.6491  -4.6491  -0.7803  -0.2801  -0.1909

          k =-0.5000-0.5000 0.0000 (423708 PWs)   bands (ev):

   -18.7257  -9.1492  -4.6491  -4.6491  -0.7786  -0.2221  -0.2078

     the Fermi energy is    -4.7636 ev

!    total energy              =     -21.09653181 Ry
     estimated scf accuracy    <          4.2E-10 Ry
     smearing contrib. (-TS)   =       0.00057979 Ry
     internal energy E=F+TS    =     -21.09711160 Ry

     The total energy is F=E-TS. E is the sum of the following terms:
     one-electron contribution =     -37.20311820 Ry
     hartree contribution      =      19.41875725 Ry
     xc contribution           =      -5.89913938 Ry
     ewald contribution        =       2.34100780 Ry
     Dispersion Correction     =      -0.00000240 Ry
     electric field correction =       0.24538333 Ry

     total magnetization       =     2.00 Bohr mag/cell
     absolute magnetization    =     2.05 Bohr mag/cell

     convergence has been achieved in   5 iterations

     negative rho (up, down):  2.793E-04 1.233E-04

     Forces acting on atoms (cartesian axes, Ry/au):

     atom    1 type  1   force =     0.00000161   -0.00000067    0.00033466
     atom    2 type  2   force =    -0.00000161    0.00000067   -0.00033466

     Total force =     0.000335     Total SCF correction =     0.000005
     Energy error            =      1.1E-06
     Gradient error          =      3.3E-04

     number of scf cycles    =   2
     number of bfgs steps    =   1

     energy   old            =     -21.0965307095 Ry
     energy   new            =     -21.0965318082 Ry

     CASE: energy  _new < energy  _old

     new trust radius        =       0.0004539843 bohr
     new conv_thr            =            1.0E-10 Ry


ATOMIC_POSITIONS (angstrom)
N            10.0000000000       10.0000000000        0.0000000000    0   0   0
H            10.0030260237        9.9987576945       -1.0497619327



     Writing output data file ./NH_ESM_std.save/
     NEW-OLD atomic charge density approx. for the potential

     negative rho (up, down):  1.548E-04 2.015E-04

     Adding external electric field
        E field amplitude [Ha a.u.]: -1.5855E-03
        Potential amp.       -0.1079 Ry
        Total length         34.0151 bohr

     Generating pointlists ...

     total cpu time spent up to now is      354.1 secs

     Self-consistent Calculation

     iteration #  1     ecut=    60.00 Ry     beta= 0.70
     CG style diagonalization
     ethr =  1.00E-06,  avg # of iterations =  2.0

     Threshold (ethr) on eigenvalues was too large:
     Diagonalizing with lowered threshold

     CG style diagonalization
     ethr =  1.69E-10,  avg # of iterations =  3.0

     negative rho (up, down):  2.490E-04 1.390E-04

     total cpu time spent up to now is      376.6 secs

     total energy              =     -21.09653191 Ry
     estimated scf accuracy    <       0.00000002 Ry

     total magnetization       =     2.00 Bohr mag/cell
     absolute magnetization    =     2.05 Bohr mag/cell

     iteration #  2     ecut=    60.00 Ry     beta= 0.70
     CG style diagonalization
     ethr =  3.62E-10,  avg # of iterations =  3.4

     negative rho (up, down):  2.670E-04 1.308E-04

     total cpu time spent up to now is      393.9 secs

     total energy              =     -21.09653192 Ry
     estimated scf accuracy    <          6.9E-09 Ry

     total magnetization       =     2.00 Bohr mag/cell
     absolute magnetization    =     2.05 Bohr mag/cell

     iteration #  3     ecut=    60.00 Ry     beta= 0.70
     CG style diagonalization
     ethr =  1.14E-10,  avg # of iterations =  3.4

     negative rho (up, down):  2.680E-04 1.334E-04

     total cpu time spent up to now is      411.4 secs

     total energy              =     -21.09653191 Ry
     estimated scf accuracy    <       0.00000002 Ry

     total magnetization       =     2.00 Bohr mag/cell
     absolute magnetization    =     2.05 Bohr mag/cell

     iteration #  4     ecut=    60.00 Ry     beta= 0.70
     CG style diagonalization
     ethr =  1.14E-10,  avg # of iterations =  3.0

     negative rho (up, down):  2.773E-04 1.248E-04

     total cpu time spent up to now is      428.1 secs

     total energy              =     -21.09653191 Ry
     estimated scf accuracy    <          3.7E-09 Ry

     total magnetization       =     2.00 Bohr mag/cell
     absolute magnetization    =     2.05 Bohr mag/cell

     iteration #  5     ecut=    60.00 Ry     beta= 0.70
     CG style diagonalization
     ethr =  6.23E-11,  avg # of iterations =  3.1

     negative rho (up, down):  2.793E-04 1.232E-04

     Magnetic moment per site:
     atom:    1    charge:    1.3447    magn:    0.5550    constr:    0.0000
     atom:    2    charge:    0.4598    magn:   -0.0087    constr:    0.0000

     total cpu time spent up to now is      443.4 secs

     End of self-consistent calculation

 ------ SPIN UP ------------


          k = 0.0000 0.0000 0.0000 (423701 PWs)   bands (ev):

   -21.4171 -10.2418  -8.4990  -8.4990  -1.1462  -0.3217  -0.1422

          k = 0.0000 0.2500 0.0000 (423725 PWs)   bands (ev):

   -21.4171 -10.2418  -8.4990  -8.4990  -1.1457  -0.3289  -0.1756

          k = 0.0000-0.5000 0.0000 (423542 PWs)   bands (ev):

   -21.4171 -10.2418  -8.4990  -8.4990  -1.1453  -0.3389  -0.1810

          k = 0.2500 0.0000 0.0000 (423725 PWs)   bands (ev):

   -21.4171 -10.2418  -8.4990  -8.4990  -1.1457  -0.3291  -0.1733

          k = 0.2500 0.2500 0.0000 (423766 PWs)   bands (ev):

   -21.4171 -10.2418  -8.4990  -8.4990  -1.1453  -0.3216  -0.2330

          k = 0.2500-0.5000 0.0000 (423782 PWs)   bands (ev):

   -21.4171 -10.2418  -8.4990  -8.4990  -1.1449  -0.3178  -0.2453

          k = 0.2500-0.2500 0.0000 (423766 PWs)   bands (ev):

   -21.4171 -10.2418  -8.4990  -8.4990  -1.1453  -0.3216  -0.2318

          k =-0.5000 0.0000 0.0000 (423542 PWs)   bands (ev):

   -21.4171 -10.2418  -8.4990  -8.4990  -1.1453  -0.3394  -0.1845

          k =-0.5000 0.2500 0.0000 (423782 PWs)   bands (ev):

   -21.4171 -10.2418  -8.4990  -8.4990  -1.1449  -0.3169  -0.2435

          k =-0.5000-0.5000 0.0000 (423708 PWs)   bands (ev):

   -21.4171 -10.2418  -8.4990  -8.4990  -1.1444  -0.2763  -0.2083

 ------ SPIN DOWN ----------


          k = 0.0000 0.0000 0.0000 (423701 PWs)   bands (ev):

   -18.7240  -9.1491  -4.6490  -4.6490  -0.7866  -0.2863  -0.0408

          k = 0.0000 0.2500 0.0000 (423725 PWs)   bands (ev):

   -18.7240  -9.1491  -4.6490  -4.6490  -0.7845  -0.2936  -0.1252

          k = 0.0000-0.5000 0.0000 (423542 PWs)   bands (ev):

   -18.7240  -9.1491  -4.6490  -4.6490  -0.7824  -0.3036  -0.1457

          k = 0.2500 0.0000 0.0000 (423725 PWs)   bands (ev):

   -18.7240  -9.1491  -4.6490  -4.6490  -0.7845  -0.2939  -0.1225

          k = 0.2500 0.2500 0.0000 (423766 PWs)   bands (ev):

   -18.7240  -9.1491  -4.6490  -4.6490  -0.7826  -0.2850  -0.1763

          k = 0.2500-0.5000 0.0000 (423782 PWs)   bands (ev):

   -18.7240  -9.1491  -4.6490  -4.6490  -0.7807  -0.2803  -0.1898

          k = 0.2500-0.2500 0.0000 (423766 PWs)   bands (ev):

   -18.7240  -9.1491  -4.6490  -4.6490  -0.7826  -0.2852  -0.1733

          k =-0.5000 0.0000 0.0000 (423542 PWs)   bands (ev):

   -18.7240  -9.1491  -4.6490  -4.6490  -0.7824  -0.3034  -0.1461

          k =-0.5000 0.2500 0.0000 (423782 PWs)   bands (ev):

   -18.7240  -9.1491  -4.6490  -4.6490  -0.7807  -0.2802  -0.1911

          k =-0.5000-0.5000 0.0000 (423708 PWs)   bands (ev):

   -18.7240  -9.1491  -4.6490  -4.6490  -0.7789  -0.2223  -0.2080

     the Fermi energy is    -4.7636 ev

!    total energy              =     -21.09653191 Ry
     estimated scf accuracy    <          3.9E-11 Ry
     smearing contrib. (-TS)   =       0.00057979 Ry
     internal energy E=F+TS    =     -21.09711170 Ry

     The total energy is F=E-TS. E is the sum of the following terms:
     one-electron contribution =     -37.20125776 Ry
     hartree contribution      =      19.41787209 Ry
     xc contribution           =      -5.89896020 Ry
     ewald contribution        =       2.33985467 Ry
     Dispersion Correction     =      -0.00000240 Ry
     electric field correction =       0.24538189 Ry

     total magnetization       =     2.00 Bohr mag/cell
     absolute magnetization    =     2.05 Bohr mag/cell

     convergence has been achieved in   5 iterations

     negative rho (up, down):  2.793E-04 1.232E-04

     Forces acting on atoms (cartesian axes, Ry/au):

     atom    1 type  1   force =     0.00000256   -0.00000105    0.00000457
     atom    2 type  2   force =    -0.00000256    0.00000105   -0.00000457

     Total force =     0.000005     Total SCF correction =     0.000001
     SCF correction compared to forces is large: reduce conv_thr to get better values
     Energy error            =      1.1E-07
     Gradient error          =      4.6E-06

     bfgs converged in   3 scf cycles and   2 bfgs steps
     (criteria: energy <  7.3E-07 Ry, force <  3.9E-04 Ry/Bohr)

     End of BFGS Geometry Optimization

     Final energy   =     -21.0965319139 Ry

     File ./NH_ESM_std.bfgs deleted, as requested
Begin final coordinates

ATOMIC_POSITIONS (angstrom)
N            10.0000000000       10.0000000000        0.0000000000    0   0   0
H            10.0030260237        9.9987576945       -1.0497619327
End final coordinates



     Writing output data file ./NH_ESM_std.save/

     init_run     :     19.60s CPU     20.92s WALL (       1 calls)
     electrons    :    360.35s CPU    386.64s WALL (       3 calls)
     update_pot   :     15.58s CPU     16.50s WALL (       2 calls)
     forces       :     23.78s CPU     25.55s WALL (       3 calls)

     Called by init_run:
     wfcinit      :      1.31s CPU      1.44s WALL (       1 calls)
     potinit      :      7.36s CPU      8.11s WALL (       1 calls)
     hinit0       :      1.16s CPU      1.33s WALL (       1 calls)

     Called by electrons:
     c_bands      :    137.70s CPU    139.76s WALL (      22 calls)
     sum_band     :     47.40s CPU     49.04s WALL (      22 calls)
     v_of_rho     :    129.65s CPU    141.10s WALL (      23 calls)
     newd         :     17.08s CPU     17.93s WALL (      23 calls)
     mix_rho      :     24.27s CPU     29.48s WALL (      22 calls)

     Called by c_bands:
     init_us_2    :      0.77s CPU      0.81s WALL (     144 calls)
     ccgdiagg     :    106.03s CPU    107.30s WALL (      66 calls)
     wfcrot       :     26.05s CPU     26.35s WALL (      54 calls)

     Called by *cgdiagg:
     h_psi        :    117.40s CPU    118.78s WALL (    1487 calls)
     s_psi        :      4.34s CPU      4.39s WALL (    2920 calls)

     Called by h_psi:
     h_psi:calbec :      3.82s CPU      3.88s WALL (    1487 calls)
     vloc_psi     :    108.81s CPU    110.09s WALL (    1487 calls)
     add_vuspsi   :      4.17s CPU      4.22s WALL (    1487 calls)
     hs_1psi      :     95.41s CPU     96.55s WALL (    1433 calls)
     s_1psi       :      5.44s CPU      5.50s WALL (    1433 calls)

     General routines
     calbec       :      7.48s CPU      7.59s WALL (    3022 calls)
     fft          :    143.36s CPU    147.38s WALL (     620 calls)
     ffts         :      7.63s CPU      7.71s WALL (      90 calls)
     fftw         :    101.52s CPU    102.66s WALL (    4084 calls)
     interpolate  :     15.97s CPU     17.10s WALL (      46 calls)
     davcio       :      0.07s CPU      2.86s WALL (     371 calls)

     Parallel routines
     fft_scatt_xy :     38.74s CPU     39.20s WALL (    4794 calls)
     fft_scatt_yz :     92.92s CPU     94.06s WALL (    4794 calls)

     PWSCF        :   7m 3.97s CPU   7m35.60s WALL


   This run was terminated on:  20:48: 9  28Sep2022            

=------------------------------------------------------------------------------=
   JOB DONE.
=------------------------------------------------------------------------------=
