
     Program PWSCF v.6.7MaX starts on  8Jul2022 at 17:21:46 

     This program is part of the open-source Quantum ESPRESSO suite
     for quantum simulation of materials; please cite
         "P. Giannozzi et al., J. Phys.:Condens. Matter 21 395502 (2009);
         "P. Giannozzi et al., J. Phys.:Condens. Matter 29 465901 (2017);
          URL http://www.quantum-espresso.org", 
     in publications or presentations arising from this work. More details at
     http://www.quantum-espresso.org/quote

     Parallel version (MPI), running on   256 processors

     MPI processes distributed on     2 nodes
     K-points division:     npool     =       8
     R & G space division:  proc/nbgrp/npool/nimage =      32
     Waiting for input...
     Reading input from standard input
Warning: card &CELL ignored
Warning: card / ignored

     Current dimensions of program PWSCF are:
     Max number of different atomic species (ntypx) = 10
     Max number of k-points (npk) =  40000
     Max angular momentum in pseudopotentials (lmaxx) =  3
     file Fe.pbe-spn-kjpaw_psl.0.2.1.UPF: wavefunction(s)  3D renormalized

     IMPORTANT: XC functional enforced from input :
     Exchange-correlation= PBE
                           (   1   4   3   4   0   0   0)
     Any further DFT definition will be discarded
     Please, verify this is what you really want


     -------------------------------------------------
     Parameters for Dispersion (Grimme-D2) Correction:
     -------------------------------------------------
       atom      VdW radius       C_6     

        Fe         2.952        374.666

     Subspace diagonalization in iterative solution of the eigenvalue problem:
     one sub-group per band group will be used
     scalapack distributed-memory algorithm (size of sub-group:  5*  5 procs)


     Parallelization info
     --------------------
     sticks:   dense  smooth     PW     G-vecs:    dense   smooth      PW
     Min         396     198     52                90796    32100    4368
     Max         397     199     53                90807    32109    4377
     Sum       12685    6351   1677              2905599  1027285  139897



     bravais-lattice index     =            0
     lattice parameter (alat)  =      18.7640  a.u.
     unit-cell volume          =   16360.3161 (a.u.)^3
     number of atoms/cell      =           64
     number of atomic types    =            1
     number of electrons       =      1024.00
     number of Kohn-Sham states=          614
     kinetic-energy cutoff     =      60.0000  Ry
     charge density cutoff     =     480.0000  Ry
     scf convergence threshold =      1.0E-08
     mixing beta               =       0.2000
     number of iterations used =           10  local-TF  mixing
     energy convergence thresh.=      7.3E-07
     force convergence thresh. =      3.9E-04
     Exchange-correlation= PBE
                           (   1   4   3   4   0   0   0)
     nstep                     =           50


     Effective Screening Medium Method
     =================================
     Boundary Conditions: Metal-Slab-Metal
     field strength                   =     0.00 Ry/a.u.
     grid points for fit at edges     =        4 


     celldm(1)=  18.764036  celldm(2)=   0.000000  celldm(3)=   0.000000
     celldm(4)=   0.000000  celldm(5)=   0.000000  celldm(6)=   0.000000

     crystal axes: (cart. coord. in units of alat)
               a(1) = (   1.000000   0.000000   0.000000 )  
               a(2) = (   0.333330   0.942807   0.000000 )  
               a(3) = (   0.000000   0.000000   2.626577 )  

     reciprocal axes: (cart. coord. in units 2 pi/alat)
               b(1) = (  1.000000 -0.353551  0.000000 )  
               b(2) = (  0.000000  1.060663  0.000000 )  
               b(3) = (  0.000000  0.000000  0.380724 )  


     PseudoPot. # 1 for Fe read from file:
     ../SSSP/Fe.pbe-spn-kjpaw_psl.0.2.1.UPF
     MD5 check sum: e86618425769142926afa95317d90200
     Pseudo is Projector augmented-wave + core cor, Zval = 16.0
     Generated using "atomic" code by A. Dal Corso  v.5.0.99 svn rev. 10869
     Shape of augmentation charge: PSQ
     Using radial grid of 1191 points,  6 beta functions with: 
                l(1) =   0
                l(2) =   0
                l(3) =   1
                l(4) =   1
                l(5) =   2
                l(6) =   2
     Q(r) pseudized with 0 coefficients 


     atomic species   valence    mass     pseudopotential
        Fe            16.00    55.84500     Fe( 1.00)

     Starting magnetic structure 
     atomic species   magnetization
        Fe           0.100

     No symmetry found



   Cartesian axes

     site n.     atom                  positions (alat units)
         1           Fe  tau(   1) = (   0.1666663   0.1178509   0.0000000  )
         2           Fe  tau(   2) = (   0.0000000   0.0000000   0.2041376  )
         3           Fe  tau(   3) = (   0.4999989   0.3535526   0.0000000  )
         4           Fe  tau(   4) = (   0.3333326   0.2357017   0.2041376  )
         5           Fe  tau(   5) = (   0.1666583   0.1178604   0.4056786  )
         6           Fe  tau(   6) = (   0.3333372   0.9428321   0.6050000  )
         7           Fe  tau(   7) = (   0.5000109   0.3535846   0.4056440  )
         8           Fe  tau(   8) = (   0.3333816   0.2357328   0.6050372  )
         9           Fe  tau(   9) = (   0.2499989   0.3535526   0.0000000  )
        10           Fe  tau(  10) = (   0.4166663   0.1178509   0.0000000  )
        11           Fe  tau(  11) = (   0.0833326   0.2357017   0.2041376  )
        12           Fe  tau(  12) = (   0.2500000   0.0000000   0.2041376  )
        13           Fe  tau(  13) = (   0.2500109   0.3535587   0.4056671  )
        14           Fe  tau(  14) = (   0.4166703   0.1178684   0.4056526  )
        15           Fe  tau(  15) = (   0.0833638   0.2357119   0.6050805  )
        16           Fe  tau(  16) = (   0.2500018   0.0000404   0.6050522  )
        17           Fe  tau(  17) = (   0.6666663   0.1178509   0.0000000  )
        18           Fe  tau(  18) = (   0.5000000   0.0000000   0.2041376  )
        19           Fe  tau(  19) = (   0.9999989   0.3535526   0.0000000  )
        20           Fe  tau(  20) = (   0.8333326   0.2357017   0.2041376  )
        21           Fe  tau(  21) = (   0.6667122   0.1178260   0.4056586  )
        22           Fe  tau(  22) = (   0.5000073   0.0000370   0.6049980  )
        23           Fe  tau(  23) = (   1.0000314   0.3535184   0.4056587  )
        24           Fe  tau(  24) = (   0.8333707   0.2356879   0.6050877  )
        25           Fe  tau(  25) = (   0.7499989   0.3535526   0.0000000  )
        26           Fe  tau(  26) = (   0.9166663   0.1178509   0.0000000  )
        27           Fe  tau(  27) = (   0.5833326   0.2357017   0.2041376  )
        28           Fe  tau(  28) = (   0.7500000   0.0000000   0.2041376  )
        29           Fe  tau(  29) = (   0.7500326   0.3535313   0.4056576  )
        30           Fe  tau(  30) = (   0.9166854   0.1178493   0.4056660  )
        31           Fe  tau(  31) = (   0.5833860   0.2357360   0.6049709  )
        32           Fe  tau(  32) = (   1.0833472   0.9428051   0.6050798  )
        33           Fe  tau(  33) = (   0.3333315   0.5892543   0.0000000  )
        34           Fe  tau(  34) = (   0.1666652   0.4714034   0.2041376  )
        35           Fe  tau(  35) = (   0.6666640   0.8249560   0.0000000  )
        36           Fe  tau(  36) = (   0.4999978   0.7071052   0.2041376  )
        37           Fe  tau(  37) = (   0.3333266   0.5892990   0.4056671  )
        38           Fe  tau(  38) = (   1.1666657   0.4714322   0.6050008  )
        39           Fe  tau(  39) = (   0.6666453   0.8249933   0.4056672  )
        40           Fe  tau(  40) = (   0.4999876   0.7071611   0.6050451  )
        41           Fe  tau(  41) = (   0.4166640   0.8249560   0.0000000  )
        42           Fe  tau(  42) = (   0.5833315   0.5892543   0.0000000  )
        43           Fe  tau(  43) = (   0.2499978   0.7071052   0.2041376  )
        44           Fe  tau(  44) = (   0.4166652   0.4714034   0.2041376  )
        45           Fe  tau(  45) = (   0.4166550   0.8249925   0.4056524  )
        46           Fe  tau(  46) = (   0.5833196   0.5892971   0.4056558  )
        47           Fe  tau(  47) = (   1.2499986   0.7071383   0.6050548  )
        48           Fe  tau(  48) = (   0.4166930   0.4714566   0.6050379  )
        49           Fe  tau(  49) = (   0.8333315   0.5892543   0.0000000  )
        50           Fe  tau(  50) = (   0.6666652   0.4714034   0.2041376  )
        51           Fe  tau(  51) = (   1.1666640   0.8249560   0.0000000  )
        52           Fe  tau(  52) = (   0.9999978   0.7071052   0.2041376  )
        53           Fe  tau(  53) = (   0.8333221   0.5892703   0.4056445  )
        54           Fe  tau(  54) = (   0.6666804   0.4714241   0.6049899  )
        55           Fe  tau(  55) = (   1.1666815   0.8249821   0.4056794  )
        56           Fe  tau(  56) = (   0.9999921   0.7070927   0.6050336  )
        57           Fe  tau(  57) = (   0.9166640   0.8249560   0.0000000  )
        58           Fe  tau(  58) = (   1.0833315   0.5892543   0.0000000  )
        59           Fe  tau(  59) = (   0.7499978   0.7071052   0.2041376  )
        60           Fe  tau(  60) = (   0.9166652   0.4714034   0.2041376  )
        61           Fe  tau(  61) = (   0.9166769   0.8249636   0.4056666  )
        62           Fe  tau(  62) = (   1.0833382   0.5892719   0.4056532  )
        63           Fe  tau(  63) = (   0.7499785   0.7071230   0.6050363  )
        64           Fe  tau(  64) = (   0.9166542   0.4713900   0.6049733  )

     number of k points=    10  Methfessel-Paxton smearing, width (Ry)=  0.0100
                       cart. coord. in units 2pi/alat
        k(    1) = (   0.0000000   0.0000000   0.0000000), wk =   0.0625000
        k(    2) = (   0.0000000   0.2651656   0.0000000), wk =   0.1250000
        k(    3) = (   0.0000000  -0.5303313   0.0000000), wk =   0.0625000
        k(    4) = (   0.2500000  -0.0883878   0.0000000), wk =   0.1250000
        k(    5) = (   0.2500000   0.1767779   0.0000000), wk =   0.1250000
        k(    6) = (   0.2500000  -0.6187190   0.0000000), wk =   0.1250000
        k(    7) = (   0.2500000  -0.3535534   0.0000000), wk =   0.1250000
        k(    8) = (  -0.5000000   0.1767755   0.0000000), wk =   0.0625000
        k(    9) = (  -0.5000000   0.4419412   0.0000000), wk =   0.1250000
        k(   10) = (  -0.5000000  -0.3535558   0.0000000), wk =   0.0625000

     Dense  grid:  2905599 G-vectors     FFT dimensions: ( 135, 135, 360)

     Smooth grid:  1027285 G-vectors     FFT dimensions: (  96,  96, 243)

     Estimated max dynamical RAM per process >     626.80 MB

     Estimated total dynamical RAM >     156.70 GB

     Check: negative core charge=   -0.000039
     Generating pointlists ...
     new r_m :   0.1015 (alat units)  1.9048 (a.u.) for type    1

     Initial potential from superposition of free atoms

     starting charge 1023.97194, renormalised to 1024.00000

     negative rho (up, down):  1.364E-02 1.116E-02
     Starting wfcs are  832 randomized atomic wfcs
     Checking if some PAW data can be deallocated... 

     total cpu time spent up to now is       29.0 secs

     Self-consistent Calculation

     iteration #  1     ecut=    60.00 Ry     beta= 0.20
     Davidson diagonalization with overlap
     ethr =  1.00E-04,  avg # of iterations = 18.1

     negative rho (up, down):  6.951E-03 5.600E-03

     total cpu time spent up to now is      317.5 secs

     total energy              =  -21071.88466761 Ry
     estimated scf accuracy    <      43.91300050 Ry

     total magnetization       =   134.31 Bohr mag/cell
     absolute magnetization    =   134.65 Bohr mag/cell

     iteration #  2     ecut=    60.00 Ry     beta= 0.20
     Davidson diagonalization with overlap
     ethr =  4.29E-03,  avg # of iterations =  1.0

     negative rho (up, down):  4.252E-03 3.691E-03

     total cpu time spent up to now is      363.3 secs

     total energy              =  -21072.28590004 Ry
     estimated scf accuracy    <      10.47199778 Ry

     total magnetization       =   136.72 Bohr mag/cell
     absolute magnetization    =   137.04 Bohr mag/cell

     iteration #  3     ecut=    60.00 Ry     beta= 0.20
     Davidson diagonalization with overlap
     ethr =  1.02E-03,  avg # of iterations =  1.0

     negative rho (up, down):  1.666E-02 5.362E-02

     total cpu time spent up to now is      409.9 secs

     total energy              =  -21071.57871093 Ry
     estimated scf accuracy    <      10.16605639 Ry

     total magnetization       =   142.27 Bohr mag/cell
     absolute magnetization    =   142.62 Bohr mag/cell

     iteration #  4     ecut=    60.00 Ry     beta= 0.20
     Davidson diagonalization with overlap
     ethr =  9.93E-04,  avg # of iterations =  1.0

     negative rho (up, down):  3.357E-02 1.258E-01

     total cpu time spent up to now is      455.2 secs

     total energy              =  -21070.22964473 Ry
     estimated scf accuracy    <       8.68917691 Ry

     total magnetization       =   155.48 Bohr mag/cell
     absolute magnetization    =   156.25 Bohr mag/cell

     iteration #  5     ecut=    60.00 Ry     beta= 0.20
     Davidson diagonalization with overlap
     ethr =  8.49E-04,  avg # of iterations =  7.1

     negative rho (up, down):  3.892E-03 2.656E-02

     total cpu time spent up to now is      535.5 secs

     total energy              =  -21071.54724194 Ry
     estimated scf accuracy    <       2.08032769 Ry

     total magnetization       =   161.24 Bohr mag/cell
     absolute magnetization    =   165.70 Bohr mag/cell

     iteration #  6     ecut=    60.00 Ry     beta= 0.20
     Davidson diagonalization with overlap
     ethr =  2.03E-04,  avg # of iterations = 11.1

     negative rho (up, down):  1.344E-04 6.041E-03

     total cpu time spent up to now is      658.8 secs

     total energy              =  -21072.16037472 Ry
     estimated scf accuracy    <       0.46271726 Ry

     total magnetization       =   153.11 Bohr mag/cell
     absolute magnetization    =   156.64 Bohr mag/cell

     iteration #  7     ecut=    60.00 Ry     beta= 0.20
     Davidson diagonalization with overlap
     ethr =  4.52E-05,  avg # of iterations = 11.3

     negative rho (up, down):  1.442E-05 3.110E-03

     total cpu time spent up to now is      775.9 secs

     total energy              =  -21072.25348918 Ry
     estimated scf accuracy    <       0.53213327 Ry

     total magnetization       =   151.91 Bohr mag/cell
     absolute magnetization    =   155.75 Bohr mag/cell

     iteration #  8     ecut=    60.00 Ry     beta= 0.20
     Davidson diagonalization with overlap
     ethr =  4.52E-05,  avg # of iterations =  2.3

     negative rho (up, down):  7.209E-04 1.254E-03

     total cpu time spent up to now is      829.9 secs

     total energy              =  -21072.22554592 Ry
     estimated scf accuracy    <       0.28563537 Ry

     total magnetization       =   154.81 Bohr mag/cell
     absolute magnetization    =   158.66 Bohr mag/cell

     iteration #  9     ecut=    60.00 Ry     beta= 0.20
     Davidson diagonalization with overlap
     ethr =  2.79E-05,  avg # of iterations =  5.7

     negative rho (up, down):  6.459E-04 1.226E-03

     total cpu time spent up to now is      890.7 secs

     total energy              =  -21072.23886253 Ry
     estimated scf accuracy    <       0.21112823 Ry

     total magnetization       =   157.47 Bohr mag/cell
     absolute magnetization    =   161.48 Bohr mag/cell

     iteration # 10     ecut=    60.00 Ry     beta= 0.20
     Davidson diagonalization with overlap
     ethr =  2.06E-05,  avg # of iterations =  3.9

     negative rho (up, down):  1.397E-04 2.020E-03

     total cpu time spent up to now is      950.5 secs

     total energy              =  -21072.23330965 Ry
     estimated scf accuracy    <       0.18478099 Ry

     total magnetization       =   157.67 Bohr mag/cell
     absolute magnetization    =   161.82 Bohr mag/cell

     iteration # 11     ecut=    60.00 Ry     beta= 0.20
     Davidson diagonalization with overlap
     ethr =  1.80E-05,  avg # of iterations = 13.9

     negative rho (up, down):  1.329E-04 2.225E-03

     total cpu time spent up to now is     1115.0 secs

     total energy              =  -21072.27268197 Ry
     estimated scf accuracy    <       0.25280716 Ry

     total magnetization       =   160.16 Bohr mag/cell
     absolute magnetization    =   165.20 Bohr mag/cell

     iteration # 12     ecut=    60.00 Ry     beta= 0.20
     Davidson diagonalization with overlap
     ethr =  1.80E-05,  avg # of iterations =  4.8

     negative rho (up, down):  5.072E-02 4.248E-02

     total cpu time spent up to now is     1179.4 secs

     total energy              =  -21072.23387278 Ry
     estimated scf accuracy    <       0.09743889 Ry

     total magnetization       =   160.97 Bohr mag/cell
     absolute magnetization    =   166.01 Bohr mag/cell

     iteration # 13     ecut=    60.00 Ry     beta= 0.20
     Davidson diagonalization with overlap
     ethr =  9.52E-06,  avg # of iterations = 10.0

     negative rho (up, down):  6.986E-02 6.181E-02

     total cpu time spent up to now is     1286.4 secs

     total energy              =  -21072.26183365 Ry
     estimated scf accuracy    <       0.65115389 Ry

     total magnetization       =   161.49 Bohr mag/cell
     absolute magnetization    =   166.45 Bohr mag/cell

     iteration # 14     ecut=    60.00 Ry     beta= 0.20
     Davidson diagonalization with overlap
     ethr =  9.52E-06,  avg # of iterations =  5.2

     negative rho (up, down):  1.048E-01 9.579E-02

     total cpu time spent up to now is     1348.6 secs

     total energy              =  -21072.25494741 Ry
     estimated scf accuracy    <       0.16114004 Ry

     total magnetization       =   162.21 Bohr mag/cell
     absolute magnetization    =   167.19 Bohr mag/cell

     iteration # 15     ecut=    60.00 Ry     beta= 0.20
     Davidson diagonalization with overlap
     ethr =  9.52E-06,  avg # of iterations =  6.8

     negative rho (up, down):  1.180E-01 1.123E-01

     total cpu time spent up to now is     1412.2 secs

     total energy              =  -21072.23666922 Ry
     estimated scf accuracy    <       0.06826962 Ry

     total magnetization       =   163.17 Bohr mag/cell
     absolute magnetization    =   168.37 Bohr mag/cell

     iteration # 16     ecut=    60.00 Ry     beta= 0.20
     Davidson diagonalization with overlap
     ethr =  6.67E-06,  avg # of iterations = 12.9

     negative rho (up, down):  1.037E-01 1.011E-01

     total cpu time spent up to now is     1521.4 secs

     total energy              =  -21072.23129349 Ry
     estimated scf accuracy    <       0.02665945 Ry

     total magnetization       =   162.39 Bohr mag/cell
     absolute magnetization    =   167.96 Bohr mag/cell

     iteration # 17     ecut=    60.00 Ry     beta= 0.20
     Davidson diagonalization with overlap
     ethr =  2.60E-06,  avg # of iterations = 15.4

     negative rho (up, down):  8.272E-02 7.994E-02

     total cpu time spent up to now is     1732.9 secs

     total energy              =  -21072.21988251 Ry
     estimated scf accuracy    <       0.10538651 Ry

     total magnetization       =   161.88 Bohr mag/cell
     absolute magnetization    =   168.06 Bohr mag/cell

     iteration # 18     ecut=    60.00 Ry     beta= 0.20
     Davidson diagonalization with overlap
     ethr =  2.60E-06,  avg # of iterations =  9.4

     negative rho (up, down):  7.798E-02 7.823E-02

     total cpu time spent up to now is     1837.8 secs

     total energy              =  -21072.21399179 Ry
     estimated scf accuracy    <       0.01892586 Ry

     total magnetization       =   162.88 Bohr mag/cell
     absolute magnetization    =   168.85 Bohr mag/cell

     iteration # 19     ecut=    60.00 Ry     beta= 0.20
     Davidson diagonalization with overlap
     ethr =  1.85E-06,  avg # of iterations =  5.5

     negative rho (up, down):  7.110E-02 7.251E-02

     total cpu time spent up to now is     1915.1 secs

     total energy              =  -21072.21068024 Ry
     estimated scf accuracy    <       0.00692353 Ry

     total magnetization       =   163.13 Bohr mag/cell
     absolute magnetization    =   169.17 Bohr mag/cell

     iteration # 20     ecut=    60.00 Ry     beta= 0.20
     Davidson diagonalization with overlap
     ethr =  6.76E-07,  avg # of iterations = 11.4

     negative rho (up, down):  4.084E-02 4.288E-02

     total cpu time spent up to now is     2020.3 secs

     total energy              =  -21072.21491532 Ry
     estimated scf accuracy    <       0.00253049 Ry

     total magnetization       =   162.96 Bohr mag/cell
     absolute magnetization    =   169.17 Bohr mag/cell

     iteration # 21     ecut=    60.00 Ry     beta= 0.20
     Davidson diagonalization with overlap
     ethr =  2.47E-07,  avg # of iterations = 10.4

     negative rho (up, down):  2.506E-02 2.819E-02

     total cpu time spent up to now is     2147.8 secs

     total energy              =  -21072.21675786 Ry
     estimated scf accuracy    <       0.00426180 Ry

     total magnetization       =   162.98 Bohr mag/cell
     absolute magnetization    =   169.27 Bohr mag/cell

     iteration # 22     ecut=    60.00 Ry     beta= 0.20
     Davidson diagonalization with overlap
     ethr =  2.47E-07,  avg # of iterations =  7.9

     negative rho (up, down):  2.312E-02 2.638E-02

     total cpu time spent up to now is     2229.6 secs

     total energy              =  -21072.21786481 Ry
     estimated scf accuracy    <       0.00150196 Ry

     total magnetization       =   162.88 Bohr mag/cell
     absolute magnetization    =   169.12 Bohr mag/cell

     iteration # 23     ecut=    60.00 Ry     beta= 0.20
     Davidson diagonalization with overlap
     ethr =  1.47E-07,  avg # of iterations =  3.7

     negative rho (up, down):  1.360E-02 1.789E-02

     total cpu time spent up to now is     2291.2 secs

     total energy              =  -21072.22038555 Ry
     estimated scf accuracy    <       0.00063766 Ry

     total magnetization       =   162.90 Bohr mag/cell
     absolute magnetization    =   169.15 Bohr mag/cell

     iteration # 24     ecut=    60.00 Ry     beta= 0.20
     Davidson diagonalization with overlap
     ethr =  6.23E-08,  avg # of iterations = 10.0

     negative rho (up, down):  1.435E-02 1.874E-02

     total cpu time spent up to now is     2454.0 secs

     total energy              =  -21072.21980738 Ry
     estimated scf accuracy    <       0.00099335 Ry

     total magnetization       =   162.89 Bohr mag/cell
     absolute magnetization    =   169.18 Bohr mag/cell

     iteration # 25     ecut=    60.00 Ry     beta= 0.20
     Davidson diagonalization with overlap
     ethr =  6.23E-08,  avg # of iterations =  5.5

     negative rho (up, down):  1.350E-02 1.800E-02

     total cpu time spent up to now is     2521.0 secs

     total energy              =  -21072.22035001 Ry
     estimated scf accuracy    <       0.00010392 Ry

     total magnetization       =   162.91 Bohr mag/cell
     absolute magnetization    =   169.17 Bohr mag/cell

     iteration # 26     ecut=    60.00 Ry     beta= 0.20
     Davidson diagonalization with overlap
     ethr =  1.01E-08,  avg # of iterations =  9.4

     negative rho (up, down):  1.202E-02 1.669E-02

     total cpu time spent up to now is     2670.0 secs

     total energy              =  -21072.22171852 Ry
     estimated scf accuracy    <       0.00009537 Ry

     total magnetization       =   162.91 Bohr mag/cell
     absolute magnetization    =   169.18 Bohr mag/cell

     iteration # 27     ecut=    60.00 Ry     beta= 0.20
     Davidson diagonalization with overlap
     ethr =  9.31E-09,  avg # of iterations =  7.7

     negative rho (up, down):  1.206E-02 1.674E-02

     total cpu time spent up to now is     2766.0 secs

     total energy              =  -21072.22218374 Ry
     estimated scf accuracy    <       0.00013290 Ry

     total magnetization       =   162.97 Bohr mag/cell
     absolute magnetization    =   169.26 Bohr mag/cell

     iteration # 28     ecut=    60.00 Ry     beta= 0.20
     Davidson diagonalization with overlap
     ethr =  9.31E-09,  avg # of iterations =  1.1

     negative rho (up, down):  1.208E-02 1.678E-02

     total cpu time spent up to now is     2813.3 secs

     total energy              =  -21072.22206595 Ry
     estimated scf accuracy    <       0.00003961 Ry

     total magnetization       =   162.98 Bohr mag/cell
     absolute magnetization    =   169.27 Bohr mag/cell

     iteration # 29     ecut=    60.00 Ry     beta= 0.20
     Davidson diagonalization with overlap
     ethr =  3.87E-09,  avg # of iterations =  7.2

     negative rho (up, down):  1.206E-02 1.677E-02

     total cpu time spent up to now is     2884.2 secs

     total energy              =  -21072.22190809 Ry
     estimated scf accuracy    <       0.00000811 Ry

     total magnetization       =   162.98 Bohr mag/cell
     absolute magnetization    =   169.27 Bohr mag/cell

     iteration # 30     ecut=    60.00 Ry     beta= 0.20
     Davidson diagonalization with overlap
     c_bands:  1 eigenvalues not converged
     ethr =  7.92E-10,  avg # of iterations = 12.8

     negative rho (up, down):  1.206E-02 1.678E-02

     total cpu time spent up to now is     3059.4 secs

     total energy              =  -21072.22190422 Ry
     estimated scf accuracy    <       0.00000479 Ry

     total magnetization       =   162.98 Bohr mag/cell
     absolute magnetization    =   169.28 Bohr mag/cell

     iteration # 31     ecut=    60.00 Ry     beta= 0.20
     Davidson diagonalization with overlap
     c_bands:  1 eigenvalues not converged
     ethr =  4.68E-10,  avg # of iterations =  4.8

     negative rho (up, down):  1.207E-02 1.680E-02

     total cpu time spent up to now is     3125.9 secs

     total energy              =  -21072.22174677 Ry
     estimated scf accuracy    <       0.00000319 Ry

     total magnetization       =   162.99 Bohr mag/cell
     absolute magnetization    =   169.28 Bohr mag/cell

     iteration # 32     ecut=    60.00 Ry     beta= 0.20
     Davidson diagonalization with overlap
     c_bands:  1 eigenvalues not converged
     ethr =  3.12E-10,  avg # of iterations =  7.7

     negative rho (up, down):  1.199E-02 1.672E-02

     total cpu time spent up to now is     3254.7 secs

     total energy              =  -21072.22178346 Ry
     estimated scf accuracy    <       0.00000335 Ry

     total magnetization       =   163.00 Bohr mag/cell
     absolute magnetization    =   169.31 Bohr mag/cell

     iteration # 33     ecut=    60.00 Ry     beta= 0.20
     Davidson diagonalization with overlap
     c_bands:  1 eigenvalues not converged
     ethr =  3.12E-10,  avg # of iterations =  4.5

     negative rho (up, down):  1.198E-02 1.672E-02

     total cpu time spent up to now is     3331.3 secs

     total energy              =  -21072.22172127 Ry
     estimated scf accuracy    <       0.00000191 Ry

     total magnetization       =   163.00 Bohr mag/cell
     absolute magnetization    =   169.30 Bohr mag/cell

     iteration # 34     ecut=    60.00 Ry     beta= 0.20
     Davidson diagonalization with overlap
     ethr =  1.87E-10,  avg # of iterations =  3.8

     negative rho (up, down):  1.196E-02 1.670E-02

     total cpu time spent up to now is     3389.5 secs

     total energy              =  -21072.22166506 Ry
     estimated scf accuracy    <       0.00000113 Ry

     total magnetization       =   163.00 Bohr mag/cell
     absolute magnetization    =   169.30 Bohr mag/cell

     iteration # 35     ecut=    60.00 Ry     beta= 0.20
     Davidson diagonalization with overlap
     ethr =  1.10E-10,  avg # of iterations =  8.3

     negative rho (up, down):  1.201E-02 1.675E-02

     total cpu time spent up to now is     3525.2 secs

     total energy              =  -21072.22163143 Ry
     estimated scf accuracy    <       0.00000141 Ry

     total magnetization       =   163.00 Bohr mag/cell
     absolute magnetization    =   169.30 Bohr mag/cell

     iteration # 36     ecut=    60.00 Ry     beta= 0.20
     Davidson diagonalization with overlap
     ethr =  1.10E-10,  avg # of iterations =  2.8

     negative rho (up, down):  1.209E-02 1.683E-02

     total cpu time spent up to now is     3578.2 secs

     total energy              =  -21072.22139496 Ry
     estimated scf accuracy    <       0.00000084 Ry

     total magnetization       =   163.00 Bohr mag/cell
     absolute magnetization    =   169.31 Bohr mag/cell

     iteration # 37     ecut=    60.00 Ry     beta= 0.20
     Davidson diagonalization with overlap
     ethr =  8.16E-11,  avg # of iterations =  5.5

     negative rho (up, down):  1.208E-02 1.682E-02

     total cpu time spent up to now is     3638.8 secs

     total energy              =  -21072.22131029 Ry
     estimated scf accuracy    <       0.00000066 Ry

     total magnetization       =   163.00 Bohr mag/cell
     absolute magnetization    =   169.30 Bohr mag/cell

     iteration # 38     ecut=    60.00 Ry     beta= 0.20
     Davidson diagonalization with overlap
     ethr =  6.40E-11,  avg # of iterations =  1.9

     negative rho (up, down):  1.203E-02 1.677E-02

     total cpu time spent up to now is     3691.2 secs

     total energy              =  -21072.22133303 Ry
     estimated scf accuracy    <       0.00000060 Ry

     total magnetization       =   163.00 Bohr mag/cell
     absolute magnetization    =   169.30 Bohr mag/cell

     iteration # 39     ecut=    60.00 Ry     beta= 0.20
     Davidson diagonalization with overlap
     ethr =  5.88E-11,  avg # of iterations =  5.5

     negative rho (up, down):  1.200E-02 1.674E-02

     total cpu time spent up to now is     3762.4 secs

     total energy              =  -21072.22135533 Ry
     estimated scf accuracy    <       0.00000018 Ry

     total magnetization       =   163.00 Bohr mag/cell
     absolute magnetization    =   169.30 Bohr mag/cell

     iteration # 40     ecut=    60.00 Ry     beta= 0.20
     Davidson diagonalization with overlap
     ethr =  1.79E-11,  avg # of iterations = 10.4

     negative rho (up, down):  1.195E-02 1.670E-02

     total cpu time spent up to now is     3938.4 secs

     total energy              =  -21072.22140608 Ry
     estimated scf accuracy    <       0.00000018 Ry

     total magnetization       =   163.00 Bohr mag/cell
     absolute magnetization    =   169.30 Bohr mag/cell

     iteration # 41     ecut=    60.00 Ry     beta= 0.20
     Davidson diagonalization with overlap
     ethr =  1.74E-11,  avg # of iterations =  6.4

     negative rho (up, down):  1.190E-02 1.664E-02

     total cpu time spent up to now is     4027.5 secs

     total energy              =  -21072.22140561 Ry
     estimated scf accuracy    <       0.00000019 Ry

     total magnetization       =   163.00 Bohr mag/cell
     absolute magnetization    =   169.30 Bohr mag/cell

     iteration # 42     ecut=    60.00 Ry     beta= 0.20
     Davidson diagonalization with overlap
     ethr =  1.74E-11,  avg # of iterations =  7.1

     negative rho (up, down):  1.187E-02 1.660E-02

     total cpu time spent up to now is     4107.2 secs

     total energy              =  -21072.22141248 Ry
     estimated scf accuracy    <       0.00000011 Ry

     total magnetization       =   163.00 Bohr mag/cell
     absolute magnetization    =   169.31 Bohr mag/cell

     iteration # 43     ecut=    60.00 Ry     beta= 0.20
     Davidson diagonalization with overlap
     ethr =  1.07E-11,  avg # of iterations =  9.6

     negative rho (up, down):  1.185E-02 1.659E-02

     total cpu time spent up to now is     4183.4 secs

     total energy              =  -21072.22141966 Ry
     estimated scf accuracy    <       0.00000003 Ry

     total magnetization       =   163.00 Bohr mag/cell
     absolute magnetization    =   169.31 Bohr mag/cell

     iteration # 44     ecut=    60.00 Ry     beta= 0.20
     Davidson diagonalization with overlap
     ethr =  3.22E-12,  avg # of iterations =  9.4

     negative rho (up, down):  1.183E-02 1.657E-02

     total cpu time spent up to now is     4346.8 secs

     total energy              =  -21072.22144078 Ry
     estimated scf accuracy    <       0.00000004 Ry

     total magnetization       =   163.01 Bohr mag/cell
     absolute magnetization    =   169.31 Bohr mag/cell

     iteration # 45     ecut=    60.00 Ry     beta= 0.20
     Davidson diagonalization with overlap
     ethr =  3.22E-12,  avg # of iterations =  8.4

     negative rho (up, down):  1.184E-02 1.658E-02

     total cpu time spent up to now is     4468.0 secs

     total energy              =  -21072.22141853 Ry
     estimated scf accuracy    <       0.00000003 Ry

     total magnetization       =   163.01 Bohr mag/cell
     absolute magnetization    =   169.31 Bohr mag/cell

     iteration # 46     ecut=    60.00 Ry     beta= 0.20
     Davidson diagonalization with overlap
     ethr =  2.76E-12,  avg # of iterations =  3.9

     negative rho (up, down):  1.181E-02 1.655E-02

     Magnetic moment per site:
     atom:    1    charge:   14.2696    magn:    2.6664    constr:    0.0000
     atom:    2    charge:   14.3437    magn:    2.4379    constr:    0.0000
     atom:    3    charge:   14.2695    magn:    2.6664    constr:    0.0000
     atom:    4    charge:   14.3438    magn:    2.4379    constr:    0.0000
     atom:    5    charge:   14.3571    magn:    2.4162    constr:    0.0000
     atom:    6    charge:   14.2836    magn:    2.6432    constr:    0.0000
     atom:    7    charge:   14.3571    magn:    2.4163    constr:    0.0000
     atom:    8    charge:   14.2835    magn:    2.6438    constr:    0.0000
     atom:    9    charge:   14.2697    magn:    2.6664    constr:    0.0000
     atom:   10    charge:   14.2697    magn:    2.6665    constr:    0.0000
     atom:   11    charge:   14.3438    magn:    2.4379    constr:    0.0000
     atom:   12    charge:   14.3437    magn:    2.4380    constr:    0.0000
     atom:   13    charge:   14.3571    magn:    2.4161    constr:    0.0000
     atom:   14    charge:   14.3571    magn:    2.4163    constr:    0.0000
     atom:   15    charge:   14.2835    magn:    2.6439    constr:    0.0000
     atom:   16    charge:   14.2836    magn:    2.6436    constr:    0.0000
     atom:   17    charge:   14.2696    magn:    2.6665    constr:    0.0000
     atom:   18    charge:   14.3440    magn:    2.4380    constr:    0.0000
     atom:   19    charge:   14.2696    magn:    2.6665    constr:    0.0000
     atom:   20    charge:   14.3436    magn:    2.4379    constr:    0.0000
     atom:   21    charge:   14.3571    magn:    2.4161    constr:    0.0000
     atom:   22    charge:   14.2838    magn:    2.6437    constr:    0.0000
     atom:   23    charge:   14.3571    magn:    2.4161    constr:    0.0000
     atom:   24    charge:   14.2833    magn:    2.6439    constr:    0.0000
     atom:   25    charge:   14.2694    magn:    2.6664    constr:    0.0000
     atom:   26    charge:   14.2694    magn:    2.6664    constr:    0.0000
     atom:   27    charge:   14.3437    magn:    2.4381    constr:    0.0000
     atom:   28    charge:   14.3438    magn:    2.4379    constr:    0.0000
     atom:   29    charge:   14.3570    magn:    2.4165    constr:    0.0000
     atom:   30    charge:   14.3572    magn:    2.4156    constr:    0.0000
     atom:   31    charge:   14.2837    magn:    2.6433    constr:    0.0000
     atom:   32    charge:   14.2835    magn:    2.6439    constr:    0.0000
     atom:   33    charge:   14.2696    magn:    2.6664    constr:    0.0000
     atom:   34    charge:   14.3440    magn:    2.4380    constr:    0.0000
     atom:   35    charge:   14.2696    magn:    2.6664    constr:    0.0000
     atom:   36    charge:   14.3436    magn:    2.4379    constr:    0.0000
     atom:   37    charge:   14.3571    magn:    2.4163    constr:    0.0000
     atom:   38    charge:   14.2838    magn:    2.6437    constr:    0.0000
     atom:   39    charge:   14.3571    magn:    2.4163    constr:    0.0000
     atom:   40    charge:   14.2834    magn:    2.6436    constr:    0.0000
     atom:   41    charge:   14.2694    magn:    2.6664    constr:    0.0000
     atom:   42    charge:   14.2694    magn:    2.6664    constr:    0.0000
     atom:   43    charge:   14.3437    magn:    2.4380    constr:    0.0000
     atom:   44    charge:   14.3438    magn:    2.4380    constr:    0.0000
     atom:   45    charge:   14.3572    magn:    2.4157    constr:    0.0000
     atom:   46    charge:   14.3571    magn:    2.4161    constr:    0.0000
     atom:   47    charge:   14.2836    magn:    2.6436    constr:    0.0000
     atom:   48    charge:   14.2835    magn:    2.6439    constr:    0.0000
     atom:   49    charge:   14.2695    magn:    2.6664    constr:    0.0000
     atom:   50    charge:   14.3437    magn:    2.4381    constr:    0.0000
     atom:   51    charge:   14.2696    magn:    2.6664    constr:    0.0000
     atom:   52    charge:   14.3438    magn:    2.4379    constr:    0.0000
     atom:   53    charge:   14.3571    magn:    2.4163    constr:    0.0000
     atom:   54    charge:   14.2838    magn:    2.6433    constr:    0.0000
     atom:   55    charge:   14.3571    magn:    2.4163    constr:    0.0000
     atom:   56    charge:   14.2835    magn:    2.6438    constr:    0.0000
     atom:   57    charge:   14.2697    magn:    2.6665    constr:    0.0000
     atom:   58    charge:   14.2697    magn:    2.6665    constr:    0.0000
     atom:   59    charge:   14.3438    magn:    2.4380    constr:    0.0000
     atom:   60    charge:   14.3437    magn:    2.4381    constr:    0.0000
     atom:   61    charge:   14.3571    magn:    2.4162    constr:    0.0000
     atom:   62    charge:   14.3571    magn:    2.4163    constr:    0.0000
     atom:   63    charge:   14.2835    magn:    2.6439    constr:    0.0000
     atom:   64    charge:   14.2837    magn:    2.6433    constr:    0.0000

     total cpu time spent up to now is     4526.4 secs

     End of self-consistent calculation

 ------ SPIN UP ------------


          k = 0.0000 0.0000 0.0000 (128403 PWs)   bands (ev):

   -92.5954 -92.5776 -92.5776 -92.5776 -92.5775 -92.5743 -92.5654 -92.5654
   -92.5597 -92.5597 -92.5596 -92.5596 -92.5560 -92.5559 -92.5557 -92.5556
   -92.5476 -92.5476 -92.5476 -92.5476 -92.5440 -92.5440 -92.5374 -92.5373
   -92.5373 -92.5371 -92.5356 -92.5258 -92.5257 -92.5255 -92.5253 -92.5139
   -92.4548 -92.4339 -92.4339 -92.4339 -92.4339 -92.4235 -92.4235 -92.4160
   -92.4094 -92.4094 -92.4089 -92.4089 -92.4053 -92.4053 -92.4052 -92.4052
   -92.4017 -92.4017 -92.4017 -92.4017 -92.3987 -92.3986 -92.3981 -92.3980
   -92.3922 -92.3892 -92.3891 -92.3794 -92.3794 -92.3793 -92.3793 -92.3624
   -58.7893 -58.7634 -58.7634 -58.7634 -58.7634 -58.7611 -58.7557 -58.7557
   -58.7522 -58.7521 -58.7435 -58.7435 -58.7411 -58.7411 -58.7408 -58.7406
   -58.7361 -58.7361 -58.7361 -58.7361 -58.7346 -58.7346 -58.7300 -58.7299
   -58.7227 -58.7204 -58.7203 -58.7170 -58.7130 -58.7130 -58.7127 -58.7125
   -58.7050 -58.7020 -58.7020 -58.6963 -58.6931 -58.6931 -58.6794 -58.6794
   -58.6794 -58.6794 -58.6662 -58.6662 -58.6662 -58.6662 -58.6372 -58.6059
   -58.6059 -58.6059 -58.6059 -58.6054 -58.6054 -58.5969 -58.5969 -58.5960
   -58.5952 -58.5952 -58.5951 -58.5951 -58.5892 -58.5892 -58.5861 -58.5829
   -58.5761 -58.5760 -58.5725 -58.5725 -58.5725 -58.5725 -58.5631 -58.5631
   -58.5630 -58.5630 -58.5553 -58.5553 -58.5485 -58.5485 -58.5415 -58.5415
   -58.5350 -58.5350 -58.5350 -58.5349 -58.5347 -58.5346 -58.5281 -58.5281
   -58.5266 -58.5203 -58.5202 -58.5202 -58.5202 -58.5149 -58.5149 -58.5109
   -58.5109 -58.5005 -58.5005 -58.5005 -58.5005 -58.4955 -58.4954 -58.4940
   -58.4778 -58.4777 -58.4755 -58.4755 -58.4755 -58.4755 -58.4701 -58.4701
   -58.4699 -58.4625 -58.4625 -58.4624 -58.4624 -58.4615 -58.4615 -58.4598
   -58.4548 -58.4548 -58.4466 -58.4460 -58.4460 -58.4460 -58.4460 -58.4460
   -58.4460 -58.4456 -58.4456 -58.4424 -58.4423 -58.4274 -58.4273 -58.4237
   -58.4237 -58.4237 -58.4237 -58.4231 -58.4130 -58.4129 -58.4129 -58.4129
   -58.4067 -58.4067 -58.4066 -58.4066 -58.3993 -58.3993 -58.3919 -58.3812
   -58.3811 -58.3788 -58.3788 -58.3787 -58.3787 -58.3769 -58.3651 -58.3650
   -58.3604 -58.3601 -58.3600 -58.3564 -58.3564 -58.3563 -58.3563 -58.3513
   -58.3512 -58.3477 -58.3423 -58.3423 -58.3423 -58.3422 -58.3383 -58.3383
   -58.3332 -58.3163 -58.3163 -58.3163 -58.3162 -58.3107 -58.3107 -58.3075
   -58.3069 -58.3069 -58.3042 -58.3042 -58.3042 -58.3042 -58.3006 -58.2966
   -12.3593 -11.1343 -10.6786 -10.6785 -10.6785 -10.6784 -10.2034 -10.2033
    -9.7442  -9.6965  -9.6964  -9.6964  -9.6963  -9.2717  -9.2600  -9.2600
    -9.0537  -9.0537  -9.0344  -9.0344  -9.0189  -8.9679  -8.9463  -8.8702
    -8.8702  -8.6243  -8.6243  -8.6242  -8.6242  -8.5783  -8.5357  -8.4745
    -8.4745  -8.4734  -8.4733  -8.4732  -8.4732  -8.4600  -8.4599  -8.4598
    -8.4597  -8.4553  -8.4553  -8.4519  -8.4518  -8.4141  -8.4141  -8.3943
    -8.3943  -8.3746  -8.3745  -8.3745  -8.3745  -8.3404  -8.2668  -8.2668
    -8.2667  -8.2667  -8.1905  -8.1904  -8.1904  -8.1903  -7.9118  -7.9118
    -7.8782  -7.8780  -7.8780  -7.8779  -7.7650  -7.7650  -7.7175  -7.7173
    -7.7058  -7.7058  -7.6952  -7.6952  -7.6826  -7.6825  -7.6824  -7.6824
    -7.6678  -7.6511  -7.6511  -7.6450  -7.6449  -7.6447  -7.6446  -7.6281
    -7.6281  -7.6206  -7.6206  -7.5991  -7.5990  -7.5989  -7.5989  -7.5656
    -7.5656  -7.5655  -7.5654  -7.5467  -7.5445  -7.5444  -7.5328  -7.5328
    -7.5067  -7.5067  -7.5067  -7.5067  -7.4303  -7.3631  -7.3631  -7.3266
    -7.3266  -7.3265  -7.3265  -7.3053  -7.2165  -7.2164  -7.1291  -7.1291
    -7.1214  -7.1213  -7.1213  -7.1212  -7.0891  -7.0848  -7.0847  -7.0437
    -7.0436  -7.0436  -7.0435  -7.0388  -7.0387  -6.9847  -6.9846  -6.9845
    -6.9845  -6.9829  -6.9828  -6.9828  -6.9827  -6.9498  -6.9496  -6.9261
    -6.8387  -6.8358  -6.8358  -6.8357  -6.8357  -6.8195  -6.8195  -6.8192
    -6.8192  -6.7922  -6.7693  -6.7487  -6.7486  -6.6985  -6.6984  -6.6803
    -6.6803  -6.6760  -6.6760  -6.6691  -6.6689  -6.6243  -6.6081  -6.6080
    -6.6080  -6.6079  -6.5819  -6.5818  -6.5818  -6.5816  -6.5555  -6.5555
    -6.5544  -6.5466  -6.5465  -6.5408  -6.5408  -6.5025  -6.5024  -6.5023
    -6.5022  -6.4184  -6.4183  -6.3017  -6.3017  -6.1527  -6.1527  -6.0130
    -6.0130  -6.0130  -6.0129  -6.0098  -6.0098  -5.9968  -5.9879  -5.9714
    -5.9713  -5.9710  -5.9710  -5.9430  -5.9266  -5.9266  -5.8931  -5.8930
    -5.8451  -5.8451  -5.8451  -5.8450  -5.8172  -5.8171  -5.8040  -5.8039
    -5.8038  -5.8037  -5.7926  -5.7925  -5.7882  -5.7354  -5.7294  -5.7294
    -5.7057  -5.7057  -5.7056  -5.7056  -5.6663  -5.6662  -5.6661  -5.6660
    -5.6622  -5.6621  -5.6602  -5.6602  -5.6465  -5.6221  -5.6099  -5.6099
    -5.6098  -5.6097  -5.5885  -5.5885  -5.5847  -5.5822  -5.5822  -5.5820
    -5.5820  -5.5808  -5.5808  -5.5694  -5.5599  -5.5599  -5.5598  -5.5597
    -5.5589  -5.5587  -5.5489  -5.5395  -5.5367  -5.5366  -5.5166  -5.5166
    -5.5166  -5.5164  -5.4741  -5.4719  -5.4719  -5.4709  -5.4709  -5.4677
    -5.4677  -5.4613  -5.4612  -5.4612  -5.4610  -5.4457  -5.4158  -5.4158
    -5.4157  -5.4156  -5.3587  -5.3551  -5.3551  -5.3550  -5.3550  -5.3299
    -5.3298  -5.3194  -5.3194  -5.2022  -5.2022  -5.1953  -5.1952  -5.1952
    -5.1952  -5.1707  -5.1706  -5.1681  -5.1679  -5.1679  -5.1678  -5.1599
    -5.1331  -5.1330  -5.1329  -5.1329  -5.1063  -5.1063  -5.1054  -5.1054
    -5.0875  -5.0129  -5.0128  -4.7295  -4.7041  -4.6753  -4.6752  -4.6590
    -4.6590  -4.5859  -4.5858  -4.5858  -4.5858  -4.5158  -4.5156  -4.4467
    -4.4466  -4.4465  -4.4465  -4.3832  -4.3832  -4.3831  -4.3830  -4.3643
    -4.3547  -4.3264  -4.2241  -4.1561  -4.1561  -4.1202  -4.0521  -4.0470
    -4.0469  -3.4346  -3.4346  -3.3990  -3.3989  -3.3836  -3.3836  -3.2222
    -2.4778  -2.4661  -2.4661  -2.4258  -2.4257  -2.4256

          k = 0.0000 0.2652 0.0000 (128375 PWs)   bands (ev):

   -92.5941 -92.5844 -92.5775 -92.5753 -92.5729 -92.5709 -92.5707 -92.5656
   -92.5629 -92.5610 -92.5595 -92.5587 -92.5559 -92.5542 -92.5534 -92.5522
   -92.5499 -92.5495 -92.5487 -92.5476 -92.5434 -92.5431 -92.5387 -92.5380
   -92.5365 -92.5364 -92.5318 -92.5300 -92.5280 -92.5254 -92.5211 -92.5148
   -92.4532 -92.4421 -92.4348 -92.4303 -92.4291 -92.4252 -92.4171 -92.4170
   -92.4151 -92.4113 -92.4091 -92.4086 -92.4056 -92.4055 -92.4049 -92.4035
   -92.4031 -92.4019 -92.4017 -92.3999 -92.3986 -92.3982 -92.3969 -92.3944
   -92.3931 -92.3929 -92.3862 -92.3843 -92.3823 -92.3788 -92.3728 -92.3637
   -58.7871 -58.7720 -58.7650 -58.7612 -58.7601 -58.7597 -58.7570 -58.7525
   -58.7511 -58.7493 -58.7489 -58.7489 -58.7424 -58.7422 -58.7390 -58.7378
   -58.7367 -58.7359 -58.7359 -58.7336 -58.7323 -58.7322 -58.7303 -58.7253
   -58.7239 -58.7236 -58.7191 -58.7163 -58.7150 -58.7120 -58.7105 -58.7070
   -58.7005 -58.7001 -58.6962 -58.6942 -58.6904 -58.6872 -58.6832 -58.6808
   -58.6748 -58.6739 -58.6676 -58.6662 -58.6620 -58.6528 -58.6345 -58.6315
   -58.6236 -58.6152 -58.6149 -58.6123 -58.6074 -58.6048 -58.6002 -58.5964
   -58.5963 -58.5961 -58.5956 -58.5897 -58.5864 -58.5846 -58.5837 -58.5829
   -58.5825 -58.5809 -58.5797 -58.5747 -58.5718 -58.5696 -58.5695 -58.5695
   -58.5667 -58.5646 -58.5640 -58.5622 -58.5572 -58.5536 -58.5494 -58.5431
   -58.5430 -58.5416 -58.5360 -58.5334 -58.5317 -58.5300 -58.5289 -58.5260
   -58.5165 -58.5159 -58.5148 -58.5136 -58.5097 -58.5092 -58.5082 -58.5056
   -58.5036 -58.5035 -58.5017 -58.4997 -58.4973 -58.4937 -58.4911 -58.4839
   -58.4828 -58.4815 -58.4808 -58.4755 -58.4750 -58.4740 -58.4727 -58.4726
   -58.4717 -58.4713 -58.4705 -58.4652 -58.4640 -58.4640 -58.4602 -58.4602
   -58.4558 -58.4534 -58.4505 -58.4485 -58.4445 -58.4427 -58.4421 -58.4415
   -58.4392 -58.4367 -58.4356 -58.4326 -58.4314 -58.4297 -58.4277 -58.4266
   -58.4234 -58.4214 -58.4196 -58.4158 -58.4151 -58.4143 -58.4087 -58.4058
   -58.4053 -58.4044 -58.4034 -58.4003 -58.3976 -58.3967 -58.3959 -58.3843
   -58.3830 -58.3793 -58.3788 -58.3758 -58.3755 -58.3727 -58.3698 -58.3690
   -58.3665 -58.3656 -58.3594 -58.3562 -58.3559 -58.3530 -58.3469 -58.3442
   -58.3438 -58.3416 -58.3406 -58.3398 -58.3396 -58.3391 -58.3390 -58.3376
   -58.3340 -58.3248 -58.3200 -58.3196 -58.3168 -58.3153 -58.3140 -58.3136
   -58.3135 -58.3110 -58.3079 -58.3076 -58.3067 -58.3054 -58.3026 -58.2989
   -12.2429 -11.3619 -11.0236 -10.8240 -10.5653 -10.3528 -10.2261  -9.9562
    -9.7950  -9.7414  -9.6409  -9.5410  -9.4430  -9.3484  -9.2920  -9.1876
    -9.0947  -9.0501  -8.9944  -8.9736  -8.9674  -8.9518  -8.9481  -8.9156
    -8.9017  -8.7652  -8.6925  -8.6659  -8.6202  -8.6192  -8.6071  -8.5854
    -8.5807  -8.5748  -8.5611  -8.5552  -8.5483  -8.5276  -8.5188  -8.5124
    -8.4879  -8.4765  -8.4636  -8.4401  -8.4383  -8.4217  -8.3992  -8.3941
    -8.3726  -8.3568  -8.3331  -8.3202  -8.3030  -8.3018  -8.2940  -8.2874
    -8.2669  -8.1712  -8.1426  -8.1292  -8.1207  -8.0991  -8.0778  -7.9927
    -7.9628  -7.9381  -7.8849  -7.8723  -7.8231  -7.8146  -7.7729  -7.7272
    -7.7181  -7.7142  -7.7032  -7.6933  -7.6926  -7.6806  -7.6644  -7.6620
    -7.6539  -7.6480  -7.6460  -7.6416  -7.6204  -7.6150  -7.6148  -7.6119
    -7.6059  -7.5992  -7.5833  -7.5743  -7.5719  -7.5676  -7.5644  -7.5605
    -7.5586  -7.5536  -7.5493  -7.5485  -7.5132  -7.4855  -7.4690  -7.4656
    -7.4596  -7.4538  -7.4317  -7.4237  -7.4196  -7.4012  -7.3975  -7.3937
    -7.3133  -7.3088  -7.2906  -7.2535  -7.2276  -7.2217  -7.2188  -7.2052
    -7.1943  -7.1220  -7.1213  -7.1062  -7.0976  -7.0949  -7.0845  -7.0832
    -7.0804  -7.0780  -7.0617  -7.0608  -7.0447  -7.0285  -7.0119  -7.0113
    -7.0058  -6.9997  -6.9719  -6.9654  -6.9560  -6.9138  -6.9087  -6.8804
    -6.8763  -6.8599  -6.8543  -6.8380  -6.8243  -6.8223  -6.8222  -6.8142
    -6.8034  -6.8029  -6.7970  -6.7831  -6.7782  -6.7688  -6.7618  -6.7558
    -6.7535  -6.7310  -6.7106  -6.7007  -6.6640  -6.6441  -6.6414  -6.6203
    -6.6076  -6.5984  -6.5792  -6.5683  -6.5663  -6.5574  -6.5481  -6.5380
    -6.5241  -6.4809  -6.4746  -6.4385  -6.4354  -6.4277  -6.3985  -6.3660
    -6.3473  -6.3464  -6.3256  -6.2647  -6.1501  -6.1392  -6.1355  -6.0940
    -6.0895  -6.0695  -6.0552  -6.0359  -6.0098  -6.0049  -6.0022  -5.9785
    -5.9710  -5.9706  -5.9524  -5.9483  -5.9466  -5.9404  -5.9287  -5.9266
    -5.8972  -5.8880  -5.8634  -5.8296  -5.8218  -5.8096  -5.8026  -5.8008
    -5.8008  -5.7937  -5.7715  -5.7702  -5.7697  -5.7666  -5.7663  -5.7529
    -5.7421  -5.7409  -5.7065  -5.6977  -5.6903  -5.6824  -5.6712  -5.6651
    -5.6509  -5.6502  -5.6456  -5.6390  -5.6366  -5.6308  -5.6243  -5.6231
    -5.6198  -5.6081  -5.6012  -5.5995  -5.5957  -5.5869  -5.5853  -5.5712
    -5.5616  -5.5547  -5.5516  -5.5449  -5.5434  -5.5381  -5.5337  -5.5327
    -5.5293  -5.5276  -5.5234  -5.5208  -5.5035  -5.5015  -5.4971  -5.4911
    -5.4816  -5.4723  -5.4713  -5.4670  -5.4663  -5.4582  -5.4570  -5.4541
    -5.4518  -5.4319  -5.4294  -5.4149  -5.4036  -5.4032  -5.3961  -5.3749
    -5.3492  -5.3431  -5.3291  -5.3111  -5.3080  -5.3079  -5.2995  -5.2870
    -5.2812  -5.2773  -5.2682  -5.2652  -5.2651  -5.2638  -5.2418  -5.2114
    -5.1930  -5.1881  -5.1846  -5.1844  -5.1824  -5.1623  -5.1560  -5.1476
    -5.1417  -5.1378  -5.1305  -5.1141  -5.0974  -5.0341  -4.9986  -4.9971
    -4.9947  -4.7852  -4.7709  -4.7613  -4.7400  -4.7279  -4.7140  -4.6988
    -4.6896  -4.6851  -4.6807  -4.6095  -4.6076  -4.6001  -4.5815  -4.5791
    -4.5672  -4.5603  -4.5551  -4.5206  -4.5182  -4.5122  -4.4744  -4.4679
    -4.4530  -4.3841  -4.3550  -4.3282  -4.2664  -4.2168  -4.0275  -3.9639
    -3.7376  -3.5764  -3.5714  -3.4688  -3.3143  -3.3027  -3.1483  -3.1436
    -3.0539  -3.0090  -2.9507  -2.8106  -2.7815  -2.5781

          k = 0.0000-0.5303 0.0000 (128388 PWs)   bands (ev):

   -92.5902 -92.5902 -92.5752 -92.5752 -92.5711 -92.5711 -92.5689 -92.5689
   -92.5649 -92.5649 -92.5561 -92.5561 -92.5541 -92.5541 -92.5537 -92.5537
   -92.5499 -92.5499 -92.5491 -92.5490 -92.5427 -92.5427 -92.5392 -92.5391
   -92.5339 -92.5338 -92.5324 -92.5323 -92.5276 -92.5275 -92.5173 -92.5173
   -92.4489 -92.4488 -92.4331 -92.4331 -92.4244 -92.4244 -92.4173 -92.4173
   -92.4127 -92.4126 -92.4109 -92.4108 -92.4074 -92.4073 -92.4045 -92.4044
   -92.4004 -92.4004 -92.3995 -92.3994 -92.3993 -92.3992 -92.3951 -92.3950
   -92.3924 -92.3924 -92.3873 -92.3872 -92.3806 -92.3805 -92.3674 -92.3673
   -58.7808 -58.7808 -58.7644 -58.7644 -58.7555 -58.7554 -58.7552 -58.7552
   -58.7537 -58.7537 -58.7478 -58.7478 -58.7422 -58.7422 -58.7404 -58.7403
   -58.7366 -58.7366 -58.7310 -58.7310 -58.7304 -58.7303 -58.7261 -58.7261
   -58.7261 -58.7260 -58.7187 -58.7186 -58.7134 -58.7133 -58.7021 -58.7020
   -58.6956 -58.6956 -58.6948 -58.6948 -58.6832 -58.6832 -58.6822 -58.6822
   -58.6705 -58.6705 -58.6547 -58.6547 -58.6538 -58.6538 -58.6421 -58.6420
   -58.6370 -58.6370 -58.6236 -58.6236 -58.6205 -58.6205 -58.6087 -58.6087
   -58.5925 -58.5924 -58.5916 -58.5916 -58.5845 -58.5845 -58.5833 -58.5832
   -58.5794 -58.5793 -58.5719 -58.5719 -58.5718 -58.5718 -58.5642 -58.5642
   -58.5628 -58.5628 -58.5622 -58.5622 -58.5563 -58.5563 -58.5497 -58.5497
   -58.5494 -58.5494 -58.5442 -58.5442 -58.5410 -58.5410 -58.5399 -58.5399
   -58.5279 -58.5279 -58.5166 -58.5166 -58.5033 -58.5033 -58.5006 -58.5006
   -58.4987 -58.4987 -58.4902 -58.4902 -58.4867 -58.4866 -58.4811 -58.4811
   -58.4764 -58.4764 -58.4734 -58.4734 -58.4725 -58.4725 -58.4718 -58.4718
   -58.4682 -58.4682 -58.4660 -58.4659 -58.4613 -58.4613 -58.4597 -58.4597
   -58.4560 -58.4560 -58.4533 -58.4532 -58.4499 -58.4499 -58.4488 -58.4488
   -58.4350 -58.4350 -58.4343 -58.4343 -58.4341 -58.4341 -58.4232 -58.4231
   -58.4182 -58.4181 -58.4110 -58.4110 -58.4103 -58.4102 -58.4041 -58.4040
   -58.4027 -58.4027 -58.4001 -58.4000 -58.3936 -58.3936 -58.3936 -58.3936
   -58.3909 -58.3909 -58.3757 -58.3757 -58.3742 -58.3742 -58.3704 -58.3704
   -58.3636 -58.3636 -58.3524 -58.3523 -58.3388 -58.3387 -58.3384 -58.3384
   -58.3377 -58.3376 -58.3370 -58.3369 -58.3364 -58.3363 -58.3338 -58.3338
   -58.3330 -58.3330 -58.3300 -58.3299 -58.3297 -58.3295 -58.3241 -58.3240
   -58.3203 -58.3202 -58.3118 -58.3118 -58.3062 -58.3062 -58.3009 -58.3009
   -11.9017 -11.9016 -10.7820 -10.7820 -10.7050 -10.7048  -9.8833  -9.8833
    -9.7349  -9.7349  -9.3712  -9.3710  -9.3502  -9.3501  -9.2390  -9.2390
    -9.1056  -9.1056  -9.0770  -9.0769  -8.9499  -8.9498  -8.8323  -8.8321
    -8.8209  -8.8209  -8.8058  -8.8058  -8.7736  -8.7735  -8.7643  -8.7643
    -8.6777  -8.6777  -8.6154  -8.6154  -8.6043  -8.6043  -8.4525  -8.4524
    -8.4434  -8.4434  -8.3757  -8.3757  -8.3644  -8.3644  -8.3480  -8.3480
    -8.3419  -8.3418  -8.3211  -8.3211  -8.3196  -8.3195  -8.2068  -8.2068
    -8.2043  -8.2043  -8.1806  -8.1805  -8.1759  -8.1759  -8.0746  -8.0746
    -8.0086  -8.0086  -7.9660  -7.9660  -7.8933  -7.8933  -7.7466  -7.7464
    -7.7115  -7.7115  -7.6857  -7.6857  -7.6716  -7.6716  -7.6624  -7.6623
    -7.6436  -7.6435  -7.6338  -7.6336  -7.6263  -7.6259  -7.6015  -7.6015
    -7.6000  -7.6000  -7.5954  -7.5951  -7.5559  -7.5558  -7.5050  -7.5050
    -7.4690  -7.4690  -7.4612  -7.4611  -7.4329  -7.4329  -7.4132  -7.4132
    -7.4028  -7.4026  -7.4009  -7.4008  -7.3995  -7.3995  -7.3897  -7.3896
    -7.3425  -7.3425  -7.3391  -7.3390  -7.3333  -7.3331  -7.1833  -7.1831
    -7.1353  -7.1351  -7.0841  -7.0840  -7.0823  -7.0823  -7.0686  -7.0686
    -7.0605  -7.0605  -7.0546  -7.0545  -7.0477  -7.0477  -7.0367  -7.0367
    -7.0229  -7.0229  -6.9929  -6.9929  -6.9898  -6.9897  -6.9810  -6.9808
    -6.9285  -6.9285  -6.9173  -6.9171  -6.8962  -6.8960  -6.8567  -6.8567
    -6.8545  -6.8543  -6.8418  -6.8416  -6.7985  -6.7985  -6.7668  -6.7667
    -6.7380  -6.7379  -6.7171  -6.7171  -6.6077  -6.6076  -6.5876  -6.5875
    -6.5798  -6.5797  -6.5511  -6.5509  -6.5481  -6.5480  -6.5182  -6.5180
    -6.4120  -6.4119  -6.2746  -6.2746  -6.2710  -6.2709  -6.2577  -6.2577
    -6.2104  -6.2102  -6.1990  -6.1990  -6.1222  -6.1220  -6.1059  -6.1059
    -6.0866  -6.0865  -6.0817  -6.0817  -6.0786  -6.0786  -6.0571  -6.0571
    -6.0464  -6.0462  -6.0271  -6.0270  -5.9416  -5.9415  -5.9110  -5.9109
    -5.9086  -5.9085  -5.9003  -5.9002  -5.8702  -5.8701  -5.7819  -5.7817
    -5.7744  -5.7742  -5.7716  -5.7714  -5.7603  -5.7603  -5.7596  -5.7595
    -5.7560  -5.7557  -5.7503  -5.7503  -5.7271  -5.7270  -5.7243  -5.7243
    -5.7198  -5.7197  -5.7160  -5.7159  -5.6358  -5.6356  -5.5965  -5.5964
    -5.5958  -5.5957  -5.5934  -5.5933  -5.5693  -5.5692  -5.5578  -5.5576
    -5.5568  -5.5568  -5.5494  -5.5494  -5.5436  -5.5434  -5.5356  -5.5356
    -5.5183  -5.5180  -5.5142  -5.5141  -5.4791  -5.4790  -5.4678  -5.4677
    -5.4589  -5.4587  -5.4126  -5.4126  -5.4028  -5.4027  -5.3980  -5.3980
    -5.3655  -5.3654  -5.3463  -5.3461  -5.3164  -5.3164  -5.3139  -5.3138
    -5.3119  -5.3119  -5.2979  -5.2977  -5.2949  -5.2949  -5.2927  -5.2925
    -5.2885  -5.2885  -5.2827  -5.2827  -5.2790  -5.2790  -5.2738  -5.2738
    -5.2123  -5.2123  -5.1819  -5.1819  -5.1115  -5.1115  -5.0636  -5.0636
    -5.0207  -5.0204  -5.0151  -5.0151  -4.8947  -4.8947  -4.8932  -4.8932
    -4.8661  -4.8660  -4.8133  -4.8133  -4.8086  -4.8085  -4.7925  -4.7925
    -4.7651  -4.7650  -4.7381  -4.7380  -4.7225  -4.7225  -4.6386  -4.6385
    -4.6076  -4.6075  -4.5682  -4.5682  -4.5335  -4.5335  -4.5219  -4.5218
    -4.4951  -4.4950  -4.4830  -4.4830  -4.4583  -4.4582  -4.1409  -4.1408
    -3.9950  -3.9948  -3.4918  -3.4918  -3.4737  -3.4735  -2.8462  -2.8462
    -2.6856  -2.6854  -2.6318  -2.6316  -2.5746  -2.5743

          k = 0.2500-0.0884 0.0000 (128371 PWs)   bands (ev):

   -92.5941 -92.5844 -92.5775 -92.5753 -92.5729 -92.5709 -92.5707 -92.5656
   -92.5629 -92.5610 -92.5595 -92.5587 -92.5559 -92.5542 -92.5534 -92.5522
   -92.5499 -92.5495 -92.5487 -92.5476 -92.5434 -92.5431 -92.5387 -92.5380
   -92.5365 -92.5364 -92.5318 -92.5300 -92.5280 -92.5254 -92.5211 -92.5148
   -92.4532 -92.4421 -92.4348 -92.4303 -92.4291 -92.4252 -92.4171 -92.4170
   -92.4151 -92.4113 -92.4091 -92.4086 -92.4056 -92.4055 -92.4049 -92.4035
   -92.4031 -92.4018 -92.4017 -92.3999 -92.3986 -92.3982 -92.3969 -92.3944
   -92.3931 -92.3929 -92.3862 -92.3843 -92.3823 -92.3788 -92.3728 -92.3637
   -58.7871 -58.7720 -58.7650 -58.7612 -58.7601 -58.7597 -58.7570 -58.7525
   -58.7511 -58.7493 -58.7489 -58.7489 -58.7424 -58.7422 -58.7390 -58.7378
   -58.7367 -58.7359 -58.7359 -58.7336 -58.7323 -58.7322 -58.7303 -58.7253
   -58.7239 -58.7236 -58.7191 -58.7163 -58.7150 -58.7120 -58.7105 -58.7070
   -58.7005 -58.7001 -58.6962 -58.6942 -58.6904 -58.6872 -58.6832 -58.6808
   -58.6748 -58.6739 -58.6676 -58.6662 -58.6620 -58.6528 -58.6345 -58.6315
   -58.6236 -58.6152 -58.6149 -58.6123 -58.6074 -58.6048 -58.6002 -58.5964
   -58.5963 -58.5961 -58.5956 -58.5898 -58.5864 -58.5846 -58.5837 -58.5829
   -58.5825 -58.5809 -58.5796 -58.5747 -58.5718 -58.5696 -58.5695 -58.5695
   -58.5667 -58.5646 -58.5640 -58.5622 -58.5571 -58.5536 -58.5494 -58.5431
   -58.5430 -58.5416 -58.5360 -58.5334 -58.5317 -58.5300 -58.5289 -58.5260
   -58.5165 -58.5159 -58.5148 -58.5136 -58.5097 -58.5092 -58.5082 -58.5056
   -58.5036 -58.5035 -58.5017 -58.4997 -58.4973 -58.4937 -58.4911 -58.4839
   -58.4828 -58.4815 -58.4808 -58.4755 -58.4750 -58.4740 -58.4727 -58.4726
   -58.4717 -58.4713 -58.4705 -58.4652 -58.4640 -58.4640 -58.4602 -58.4602
   -58.4558 -58.4534 -58.4505 -58.4485 -58.4445 -58.4427 -58.4421 -58.4415
   -58.4392 -58.4367 -58.4356 -58.4326 -58.4314 -58.4297 -58.4277 -58.4266
   -58.4234 -58.4214 -58.4196 -58.4158 -58.4151 -58.4143 -58.4087 -58.4058
   -58.4053 -58.4044 -58.4034 -58.4003 -58.3976 -58.3967 -58.3959 -58.3843
   -58.3830 -58.3793 -58.3788 -58.3758 -58.3755 -58.3727 -58.3697 -58.3690
   -58.3665 -58.3655 -58.3594 -58.3562 -58.3559 -58.3530 -58.3469 -58.3442
   -58.3438 -58.3416 -58.3406 -58.3398 -58.3396 -58.3391 -58.3390 -58.3376
   -58.3340 -58.3248 -58.3200 -58.3196 -58.3168 -58.3153 -58.3140 -58.3136
   -58.3135 -58.3110 -58.3079 -58.3076 -58.3067 -58.3054 -58.3026 -58.2989
   -12.2429 -11.3619 -11.0236 -10.8240 -10.5653 -10.3528 -10.2261  -9.9563
    -9.7950  -9.7414  -9.6409  -9.5410  -9.4430  -9.3484  -9.2920  -9.1876
    -9.0948  -9.0501  -8.9944  -8.9736  -8.9674  -8.9518  -8.9481  -8.9156
    -8.9017  -8.7652  -8.6925  -8.6659  -8.6202  -8.6192  -8.6071  -8.5854
    -8.5807  -8.5748  -8.5611  -8.5552  -8.5483  -8.5276  -8.5188  -8.5124
    -8.4879  -8.4765  -8.4636  -8.4401  -8.4383  -8.4217  -8.3992  -8.3941
    -8.3726  -8.3568  -8.3331  -8.3202  -8.3030  -8.3018  -8.2940  -8.2874
    -8.2669  -8.1712  -8.1426  -8.1292  -8.1207  -8.0991  -8.0778  -7.9927
    -7.9628  -7.9381  -7.8849  -7.8723  -7.8230  -7.8146  -7.7729  -7.7272
    -7.7181  -7.7142  -7.7032  -7.6933  -7.6926  -7.6806  -7.6644  -7.6620
    -7.6539  -7.6480  -7.6460  -7.6415  -7.6204  -7.6150  -7.6148  -7.6119
    -7.6059  -7.5992  -7.5833  -7.5743  -7.5719  -7.5676  -7.5644  -7.5605
    -7.5586  -7.5536  -7.5493  -7.5485  -7.5132  -7.4855  -7.4690  -7.4656
    -7.4596  -7.4538  -7.4317  -7.4237  -7.4196  -7.4012  -7.3975  -7.3937
    -7.3133  -7.3088  -7.2906  -7.2534  -7.2276  -7.2217  -7.2188  -7.2052
    -7.1943  -7.1220  -7.1213  -7.1061  -7.0976  -7.0948  -7.0845  -7.0832
    -7.0804  -7.0780  -7.0617  -7.0608  -7.0447  -7.0285  -7.0119  -7.0113
    -7.0058  -6.9997  -6.9719  -6.9654  -6.9560  -6.9138  -6.9087  -6.8804
    -6.8763  -6.8599  -6.8543  -6.8380  -6.8243  -6.8223  -6.8222  -6.8142
    -6.8034  -6.8029  -6.7970  -6.7831  -6.7782  -6.7688  -6.7618  -6.7558
    -6.7535  -6.7310  -6.7106  -6.7007  -6.6640  -6.6441  -6.6414  -6.6203
    -6.6076  -6.5984  -6.5792  -6.5683  -6.5663  -6.5574  -6.5481  -6.5380
    -6.5241  -6.4809  -6.4746  -6.4385  -6.4354  -6.4277  -6.3985  -6.3660
    -6.3473  -6.3464  -6.3256  -6.2647  -6.1501  -6.1392  -6.1355  -6.0940
    -6.0894  -6.0695  -6.0552  -6.0359  -6.0098  -6.0049  -6.0022  -5.9785
    -5.9709  -5.9706  -5.9524  -5.9483  -5.9466  -5.9404  -5.9287  -5.9265
    -5.8972  -5.8880  -5.8634  -5.8296  -5.8218  -5.8096  -5.8026  -5.8008
    -5.8008  -5.7937  -5.7714  -5.7702  -5.7696  -5.7666  -5.7663  -5.7529
    -5.7421  -5.7409  -5.7065  -5.6977  -5.6903  -5.6824  -5.6712  -5.6651
    -5.6509  -5.6502  -5.6456  -5.6390  -5.6366  -5.6308  -5.6243  -5.6231
    -5.6198  -5.6081  -5.6012  -5.5995  -5.5957  -5.5869  -5.5853  -5.5712
    -5.5616  -5.5547  -5.5516  -5.5449  -5.5434  -5.5381  -5.5337  -5.5326
    -5.5293  -5.5276  -5.5234  -5.5208  -5.5035  -5.5015  -5.4971  -5.4911
    -5.4816  -5.4723  -5.4713  -5.4670  -5.4662  -5.4582  -5.4570  -5.4541
    -5.4518  -5.4319  -5.4294  -5.4149  -5.4036  -5.4032  -5.3961  -5.3749
    -5.3492  -5.3431  -5.3291  -5.3111  -5.3080  -5.3079  -5.2995  -5.2870
    -5.2812  -5.2773  -5.2682  -5.2652  -5.2651  -5.2638  -5.2418  -5.2114
    -5.1930  -5.1881  -5.1846  -5.1844  -5.1824  -5.1623  -5.1560  -5.1476
    -5.1417  -5.1378  -5.1305  -5.1141  -5.0974  -5.0341  -4.9986  -4.9971
    -4.9947  -4.7852  -4.7709  -4.7613  -4.7400  -4.7280  -4.7140  -4.6988
    -4.6896  -4.6851  -4.6807  -4.6095  -4.6076  -4.6002  -4.5815  -4.5791
    -4.5672  -4.5603  -4.5550  -4.5206  -4.5182  -4.5122  -4.4743  -4.4679
    -4.4530  -4.3841  -4.3550  -4.3282  -4.2665  -4.2168  -4.0275  -3.9639
    -3.7377  -3.5764  -3.5714  -3.4688  -3.3143  -3.3027  -3.1483  -3.1436
    -3.0540  -3.0090  -2.9507  -2.7815  -2.5781  -2.4789

          k = 0.2500 0.1768 0.0000 (128340 PWs)   bands (ev):

   -92.5932 -92.5822 -92.5822 -92.5769 -92.5720 -92.5706 -92.5706 -92.5606
   -92.5603 -92.5597 -92.5597 -92.5596 -92.5596 -92.5555 -92.5545 -92.5545
   -92.5541 -92.5489 -92.5487 -92.5430 -92.5430 -92.5379 -92.5374 -92.5374
   -92.5373 -92.5372 -92.5326 -92.5325 -92.5323 -92.5210 -92.5208 -92.5162
   -92.4524 -92.4389 -92.4388 -92.4354 -92.4265 -92.4264 -92.4139 -92.4115
   -92.4094 -92.4094 -92.4093 -92.4092 -92.4091 -92.4091 -92.4090 -92.4090
   -92.3994 -92.3993 -92.3992 -92.3986 -92.3985 -92.3982 -92.3981 -92.3967
   -92.3967 -92.3946 -92.3853 -92.3852 -92.3790 -92.3754 -92.3753 -92.3645
   -58.7868 -58.7684 -58.7676 -58.7676 -58.7588 -58.7575 -58.7574 -58.7507
   -58.7507 -58.7451 -58.7448 -58.7446 -58.7446 -58.7434 -58.7434 -58.7433
   -58.7420 -58.7350 -58.7348 -58.7321 -58.7320 -58.7300 -58.7299 -58.7256
   -58.7221 -58.7221 -58.7206 -58.7203 -58.7178 -58.7059 -58.7056 -58.7042
   -58.7004 -58.6931 -58.6931 -58.6912 -58.6840 -58.6840 -58.6734 -58.6734
   -58.6728 -58.6728 -58.6605 -58.6605 -58.6591 -58.6591 -58.6311 -58.6311
   -58.6256 -58.6240 -58.6240 -58.6220 -58.6220 -58.6164 -58.6143 -58.6142
   -58.6033 -58.6032 -58.6032 -58.5909 -58.5882 -58.5882 -58.5843 -58.5842
   -58.5817 -58.5817 -58.5777 -58.5758 -58.5757 -58.5756 -58.5696 -58.5696
   -58.5691 -58.5691 -58.5626 -58.5625 -58.5542 -58.5461 -58.5460 -58.5459
   -58.5409 -58.5358 -58.5358 -58.5300 -58.5299 -58.5299 -58.5299 -58.5259
   -58.5258 -58.5251 -58.5178 -58.5119 -58.5118 -58.5046 -58.5046 -58.5020
   -58.5007 -58.4956 -58.4956 -58.4925 -58.4924 -58.4899 -58.4889 -58.4888
   -58.4847 -58.4846 -58.4820 -58.4820 -58.4788 -58.4762 -58.4758 -58.4758
   -58.4729 -58.4728 -58.4715 -58.4649 -58.4615 -58.4615 -58.4529 -58.4517
   -58.4509 -58.4509 -58.4494 -58.4493 -58.4434 -58.4433 -58.4423 -58.4423
   -58.4387 -58.4386 -58.4303 -58.4303 -58.4278 -58.4278 -58.4272 -58.4272
   -58.4184 -58.4138 -58.4138 -58.4129 -58.4127 -58.4074 -58.4073 -58.4073
   -58.4043 -58.4043 -58.4043 -58.4017 -58.3925 -58.3916 -58.3916 -58.3896
   -58.3873 -58.3872 -58.3842 -58.3765 -58.3764 -58.3654 -58.3629 -58.3628
   -58.3557 -58.3557 -58.3554 -58.3553 -58.3538 -58.3537 -58.3471 -58.3467
   -58.3466 -58.3440 -58.3440 -58.3399 -58.3382 -58.3381 -58.3365 -58.3358
   -58.3336 -58.3213 -58.3213 -58.3202 -58.3202 -58.3194 -58.3175 -58.3175
   -58.3146 -58.3146 -58.3143 -58.3143 -58.3120 -58.3097 -58.3097 -58.3015
   -12.2036 -11.0535 -11.0534 -11.0448 -10.9871 -10.0995 -10.0995  -9.9490
    -9.9490  -9.9338  -9.6140  -9.4677  -9.3373  -9.3373  -9.1692  -9.0220
    -9.0114  -9.0114  -8.9778  -8.9778  -8.9027  -8.8895  -8.8840  -8.8840
    -8.7924  -8.7831  -8.7831  -8.7719  -8.6915  -8.6915  -8.6517  -8.6516
    -8.5662  -8.5630  -8.5630  -8.5416  -8.5250  -8.5082  -8.5047  -8.5046
    -8.4954  -8.4936  -8.4936  -8.4868  -8.4867  -8.4831  -8.4829  -8.4116
    -8.4115  -8.3993  -8.3992  -8.3273  -8.3273  -8.3141  -8.3140  -8.2684
    -8.1429  -8.1429  -8.1196  -8.1196  -8.0560  -8.0209  -8.0209  -8.0156
    -8.0156  -7.9922  -7.9922  -7.8456  -7.8456  -7.8071  -7.8070  -7.7385
    -7.7385  -7.7373  -7.7199  -7.7198  -7.7084  -7.7082  -7.7005  -7.7005
    -7.6989  -7.6988  -7.6869  -7.6868  -7.6777  -7.6776  -7.6398  -7.6398
    -7.5782  -7.5781  -7.5732  -7.5657  -7.5656  -7.5123  -7.5072  -7.5071
    -7.5071  -7.5070  -7.4962  -7.4962  -7.4798  -7.4797  -7.4522  -7.4521
    -7.4087  -7.4086  -7.3672  -7.3611  -7.3610  -7.3417  -7.3238  -7.3171
    -7.3030  -7.3029  -7.2915  -7.2915  -7.2876  -7.2875  -7.2802  -7.2802
    -7.2634  -7.2000  -7.2000  -7.1793  -7.1792  -7.1000  -7.1000  -7.0897
    -7.0897  -7.0854  -7.0853  -7.0690  -7.0688  -7.0313  -7.0313  -7.0137
    -7.0137  -7.0091  -6.9849  -6.9818  -6.9818  -6.9465  -6.9465  -6.9312
    -6.9311  -6.9263  -6.9037  -6.8661  -6.8365  -6.8197  -6.8197  -6.8120
    -6.8067  -6.8030  -6.8030  -6.7875  -6.7875  -6.7168  -6.6935  -6.6934
    -6.6889  -6.6869  -6.6869  -6.6729  -6.6729  -6.6671  -6.6623  -6.6622
    -6.6586  -6.6546  -6.6546  -6.6399  -6.6398  -6.6295  -6.6004  -6.5875
    -6.5255  -6.5254  -6.4003  -6.3618  -6.3440  -6.3439  -6.3334  -6.3243
    -6.3242  -6.2623  -6.1973  -6.1685  -6.1683  -6.1425  -6.0950  -6.0929
    -6.0929  -6.0921  -6.0666  -6.0665  -6.0123  -6.0098  -5.9950  -5.9949
    -5.9807  -5.9807  -5.9669  -5.9652  -5.9064  -5.9036  -5.9036  -5.8877
    -5.8877  -5.8709  -5.8709  -5.8682  -5.8681  -5.8529  -5.8498  -5.8357
    -5.8219  -5.8152  -5.7749  -5.7459  -5.7458  -5.7456  -5.7455  -5.7288
    -5.7211  -5.7211  -5.7198  -5.7198  -5.7086  -5.6937  -5.6936  -5.6795
    -5.6478  -5.6477  -5.6446  -5.6408  -5.6406  -5.6250  -5.6249  -5.6189
    -5.6188  -5.6115  -5.6115  -5.5688  -5.5688  -5.5619  -5.5618  -5.5591
    -5.5590  -5.5456  -5.5455  -5.5158  -5.5130  -5.5075  -5.4940  -5.4939
    -5.4850  -5.4846  -5.4846  -5.4762  -5.4607  -5.4607  -5.4435  -5.4434
    -5.4254  -5.4191  -5.4190  -5.4138  -5.4138  -5.4136  -5.4136  -5.4091
    -5.4090  -5.3827  -5.3827  -5.3748  -5.3746  -5.3626  -5.3625  -5.3280
    -5.3279  -5.3272  -5.3271  -5.3270  -5.3260  -5.3260  -5.3091  -5.3090
    -5.2973  -5.2857  -5.2856  -5.2794  -5.2794  -5.2520  -5.2520  -5.2235
    -5.2162  -5.2161  -5.1786  -5.1657  -5.1657  -5.1414  -5.1414  -5.1262
    -5.0989  -5.0988  -5.0822  -5.0821  -5.0329  -4.9949  -4.9948  -4.9745
    -4.9744  -4.8281  -4.8281  -4.8062  -4.7418  -4.7214  -4.7213  -4.6589
    -4.6454  -4.6366  -4.6366  -4.5811  -4.5810  -4.5716  -4.5533  -4.5532
    -4.5452  -4.5451  -4.5358  -4.5356  -4.4616  -4.4614  -4.4552  -4.4521
    -4.3672  -4.3527  -4.2407  -4.1541  -4.1540  -4.1376  -4.1376  -3.8830
    -3.7142  -3.7142  -3.5687  -3.5686  -3.5469  -3.4724  -3.4724  -3.4380
    -3.4380  -3.3835  -3.3834  -3.1198  -3.1125  -2.6397

          k = 0.2500-0.6187 0.0000 (128424 PWs)   bands (ev):

   -92.5897 -92.5881 -92.5815 -92.5778 -92.5685 -92.5685 -92.5667 -92.5648
   -92.5647 -92.5632 -92.5602 -92.5588 -92.5582 -92.5566 -92.5559 -92.5550
   -92.5490 -92.5468 -92.5451 -92.5427 -92.5425 -92.5409 -92.5409 -92.5393
   -92.5371 -92.5361 -92.5343 -92.5326 -92.5274 -92.5229 -92.5192 -92.5173
   -92.4487 -92.4461 -92.4401 -92.4330 -92.4253 -92.4187 -92.4159 -92.4150
   -92.4140 -92.4124 -92.4116 -92.4112 -92.4078 -92.4062 -92.4061 -92.4044
   -92.4039 -92.4012 -92.4001 -92.3976 -92.3972 -92.3967 -92.3952 -92.3951
   -92.3942 -92.3938 -92.3912 -92.3866 -92.3801 -92.3749 -92.3695 -92.3676
   -58.7821 -58.7759 -58.7729 -58.7618 -58.7561 -58.7552 -58.7533 -58.7525
   -58.7517 -58.7502 -58.7485 -58.7470 -58.7468 -58.7467 -58.7421 -58.7384
   -58.7375 -58.7336 -58.7314 -58.7298 -58.7297 -58.7287 -58.7275 -58.7269
   -58.7255 -58.7251 -58.7242 -58.7208 -58.7126 -58.7067 -58.7037 -58.7012
   -58.6892 -58.6879 -58.6869 -58.6831 -58.6793 -58.6753 -58.6746 -58.6715
   -58.6687 -58.6638 -58.6614 -58.6589 -58.6518 -58.6496 -58.6472 -58.6470
   -58.6415 -58.6379 -58.6371 -58.6342 -58.6278 -58.6227 -58.6153 -58.6123
   -58.6118 -58.6103 -58.5980 -58.5933 -58.5917 -58.5898 -58.5863 -58.5853
   -58.5846 -58.5828 -58.5792 -58.5728 -58.5668 -58.5657 -58.5642 -58.5641
   -58.5640 -58.5618 -58.5612 -58.5603 -58.5598 -58.5579 -58.5549 -58.5516
   -58.5467 -58.5458 -58.5458 -58.5416 -58.5382 -58.5316 -58.5308 -58.5295
   -58.5288 -58.5287 -58.5243 -58.5226 -58.5158 -58.5083 -58.5013 -58.4989
   -58.4988 -58.4943 -58.4908 -58.4867 -58.4824 -58.4820 -58.4810 -58.4804
   -58.4774 -58.4767 -58.4767 -58.4734 -58.4733 -58.4732 -58.4721 -58.4719
   -58.4696 -58.4634 -58.4609 -58.4603 -58.4601 -58.4586 -58.4576 -58.4560
   -58.4555 -58.4536 -58.4532 -58.4524 -58.4491 -58.4473 -58.4463 -58.4429
   -58.4415 -58.4377 -58.4365 -58.4343 -58.4273 -58.4264 -58.4198 -58.4190
   -58.4174 -58.4136 -58.4118 -58.4115 -58.4106 -58.4052 -58.4049 -58.4047
   -58.4043 -58.4026 -58.4020 -58.4011 -58.4000 -58.3931 -58.3862 -58.3858
   -58.3840 -58.3839 -58.3819 -58.3776 -58.3748 -58.3714 -58.3705 -58.3588
   -58.3537 -58.3529 -58.3496 -58.3479 -58.3411 -58.3405 -58.3402 -58.3399
   -58.3397 -58.3395 -58.3374 -58.3364 -58.3360 -58.3348 -58.3344 -58.3335
   -58.3330 -58.3318 -58.3317 -58.3314 -58.3288 -58.3280 -58.3264 -58.3264
   -58.3241 -58.3211 -58.3182 -58.3176 -58.3150 -58.3131 -58.3114 -58.3046
   -11.9372 -11.6436 -11.3537 -10.7385 -10.5650 -10.4620 -10.2083 -10.0956
    -9.5205  -9.4414  -9.3944  -9.3222  -9.2879  -9.2662  -9.1909  -9.1745
    -9.1107  -9.0849  -9.0064  -8.9942  -8.9861  -8.9631  -8.9355  -8.8595
    -8.8490  -8.8340  -8.8022  -8.7971  -8.7964  -8.7876  -8.7596  -8.6771
    -8.6739  -8.6705  -8.6559  -8.6409  -8.6050  -8.5863  -8.5602  -8.5548
    -8.5471  -8.5369  -8.5146  -8.4311  -8.4111  -8.3956  -8.3831  -8.3585
    -8.3180  -8.3123  -8.2856  -8.2850  -8.2296  -8.2256  -8.2006  -8.1985
    -8.1902  -8.1590  -8.1477  -8.1258  -8.1205  -8.0916  -8.0575  -8.0387
    -8.0302  -8.0120  -8.0110  -8.0045  -7.9237  -7.9053  -7.8911  -7.8264
    -7.7500  -7.7399  -7.7272  -7.7213  -7.7157  -7.7133  -7.7051  -7.6917
    -7.6908  -7.6671  -7.6215  -7.6149  -7.5801  -7.5752  -7.5692  -7.5612
    -7.5512  -7.5477  -7.5109  -7.5107  -7.5102  -7.5024  -7.4963  -7.4949
    -7.4908  -7.4889  -7.4812  -7.4732  -7.4602  -7.4419  -7.4189  -7.4181
    -7.4109  -7.4043  -7.3767  -7.3732  -7.3663  -7.3572  -7.3563  -7.3469
    -7.3298  -7.3069  -7.2885  -7.2665  -7.2657  -7.2589  -7.2486  -7.2387
    -7.2349  -7.2325  -7.2271  -7.2171  -7.1961  -7.1912  -7.1873  -7.1806
    -7.1790  -7.1782  -7.1545  -7.1310  -7.1191  -7.1165  -7.1011  -7.0729
    -7.0696  -6.9704  -6.9494  -6.9373  -6.9365  -6.9346  -6.9159  -6.9029
    -6.9007  -6.8977  -6.8920  -6.8914  -6.8689  -6.8669  -6.8584  -6.8554
    -6.8479  -6.8448  -6.8443  -6.8383  -6.7954  -6.7888  -6.7873  -6.7736
    -6.7703  -6.7600  -6.7015  -6.6808  -6.6467  -6.6324  -6.6109  -6.5930
    -6.5881  -6.5424  -6.5260  -6.5111  -6.4995  -6.4989  -6.4281  -6.4085
    -6.3861  -6.3667  -6.3498  -6.3455  -6.3141  -6.2648  -6.2575  -6.2321
    -6.2301  -6.1925  -6.1877  -6.1856  -6.1809  -6.1603  -6.1441  -6.1395
    -6.1335  -6.1214  -6.1173  -6.1075  -6.0542  -6.0490  -6.0278  -6.0033
    -6.0021  -5.9743  -5.9690  -5.9592  -5.9494  -5.9388  -5.9191  -5.9105
    -5.8997  -5.8869  -5.8821  -5.8766  -5.8744  -5.8578  -5.8509  -5.8384
    -5.8331  -5.8006  -5.7994  -5.7795  -5.7679  -5.7597  -5.7552  -5.7496
    -5.7472  -5.7469  -5.7426  -5.7373  -5.7261  -5.7144  -5.7134  -5.7052
    -5.6929  -5.6727  -5.6473  -5.6373  -5.6366  -5.6266  -5.6163  -5.6119
    -5.6033  -5.5995  -5.5928  -5.5918  -5.5763  -5.5732  -5.5701  -5.5588
    -5.5403  -5.5311  -5.5282  -5.5220  -5.5164  -5.5143  -5.5124  -5.4822
    -5.4762  -5.4751  -5.4689  -5.4678  -5.4610  -5.4542  -5.4336  -5.4306
    -5.4301  -5.4292  -5.4218  -5.4102  -5.4101  -5.3934  -5.3917  -5.3825
    -5.3723  -5.3651  -5.3630  -5.3585  -5.3552  -5.3428  -5.3373  -5.3321
    -5.3296  -5.3273  -5.3182  -5.3166  -5.3126  -5.2985  -5.2816  -5.2579
    -5.2531  -5.2411  -5.2315  -5.2210  -5.2057  -5.2036  -5.1890  -5.1707
    -5.1614  -5.1451  -5.1119  -5.0776  -5.0689  -5.0583  -5.0507  -5.0471
    -5.0061  -4.9735  -4.9636  -4.9520  -4.9175  -4.9079  -4.8975  -4.8856
    -4.8705  -4.8224  -4.8206  -4.8187  -4.8137  -4.8047  -4.7739  -4.7394
    -4.7316  -4.7270  -4.6877  -4.6813  -4.6720  -4.6685  -4.6257  -4.6080
    -4.5968  -4.5964  -4.5749  -4.5662  -4.5561  -4.5516  -4.5179  -4.5116
    -4.4960  -4.4822  -4.4744  -4.4434  -4.3096  -4.3078  -4.1669  -4.0987
    -4.0302  -3.9431  -3.8153  -3.6752  -3.6325  -3.6210  -3.5541  -3.4564
    -3.1965  -3.1538  -2.9725  -2.8493  -2.7635  -2.6599

          k = 0.2500-0.3536 0.0000 (128397 PWs)   bands (ev):

   -92.5923 -92.5842 -92.5842 -92.5720 -92.5710 -92.5686 -92.5686 -92.5646
   -92.5646 -92.5629 -92.5628 -92.5605 -92.5605 -92.5524 -92.5524 -92.5499
   -92.5491 -92.5465 -92.5464 -92.5451 -92.5451 -92.5430 -92.5430 -92.5383
   -92.5382 -92.5370 -92.5301 -92.5300 -92.5267 -92.5234 -92.5233 -92.5152
   -92.4510 -92.4426 -92.4425 -92.4254 -92.4220 -92.4219 -92.4216 -92.4216
   -92.4146 -92.4124 -92.4123 -92.4073 -92.4073 -92.4052 -92.4031 -92.4031
   -92.4025 -92.4024 -92.4014 -92.4014 -92.3994 -92.3960 -92.3959 -92.3928
   -92.3900 -92.3899 -92.3894 -92.3893 -92.3865 -92.3727 -92.3726 -92.3654
   -58.7831 -58.7741 -58.7741 -58.7576 -58.7555 -58.7547 -58.7546 -58.7532
   -58.7532 -58.7518 -58.7518 -58.7495 -58.7494 -58.7419 -58.7419 -58.7345
   -58.7328 -58.7328 -58.7312 -58.7308 -58.7307 -58.7298 -58.7296 -58.7293
   -58.7292 -58.7233 -58.7199 -58.7198 -58.7106 -58.7092 -58.7090 -58.7036
   -58.6984 -58.6917 -58.6910 -58.6910 -58.6826 -58.6826 -58.6775 -58.6775
   -58.6712 -58.6712 -58.6708 -58.6708 -58.6581 -58.6581 -58.6395 -58.6395
   -58.6244 -58.6192 -58.6191 -58.6191 -58.6116 -58.6038 -58.6038 -58.6021
   -58.6000 -58.5986 -58.5980 -58.5980 -58.5951 -58.5905 -58.5880 -58.5879
   -58.5843 -58.5843 -58.5834 -58.5834 -58.5769 -58.5769 -58.5751 -58.5671
   -58.5671 -58.5627 -58.5627 -58.5568 -58.5550 -58.5550 -58.5464 -58.5463
   -58.5402 -58.5347 -58.5347 -58.5339 -58.5322 -58.5322 -58.5320 -58.5320
   -58.5205 -58.5205 -58.5131 -58.5131 -58.5111 -58.5110 -58.5076 -58.5075
   -58.5067 -58.4982 -58.4977 -58.4977 -58.4968 -58.4872 -58.4856 -58.4770
   -58.4770 -58.4766 -58.4766 -58.4742 -58.4732 -58.4727 -58.4727 -58.4726
   -58.4714 -58.4672 -58.4672 -58.4658 -58.4658 -58.4597 -58.4597 -58.4581
   -58.4581 -58.4575 -58.4499 -58.4499 -58.4477 -58.4441 -58.4441 -58.4425
   -58.4425 -58.4394 -58.4394 -58.4356 -58.4356 -58.4211 -58.4211 -58.4206
   -58.4206 -58.4142 -58.4085 -58.4085 -58.4068 -58.4068 -58.4067 -58.4061
   -58.4060 -58.4034 -58.3974 -58.3974 -58.3970 -58.3970 -58.3904 -58.3885
   -58.3884 -58.3795 -58.3795 -58.3787 -58.3786 -58.3762 -58.3761 -58.3749
   -58.3591 -58.3554 -58.3554 -58.3548 -58.3492 -58.3492 -58.3442 -58.3442
   -58.3421 -58.3420 -58.3380 -58.3379 -58.3369 -58.3369 -58.3361 -58.3353
   -58.3311 -58.3309 -58.3309 -58.3191 -58.3188 -58.3188 -58.3166 -58.3166
   -58.3154 -58.3153 -58.3128 -58.3127 -58.3120 -58.3091 -58.3063 -58.3063
   -12.0518 -11.4635 -11.4634 -10.8416 -10.3135 -10.3134  -9.9641  -9.9641
    -9.9585  -9.6721  -9.6719  -9.4639  -9.1228  -9.1227  -9.1197  -9.1197
    -9.0651  -9.0651  -9.0431  -9.0422  -9.0347  -9.0345  -9.0017  -9.0016
    -8.8794  -8.8793  -8.8347  -8.8280  -8.8159  -8.6931  -8.6930  -8.6429
    -8.6428  -8.6108  -8.6107  -8.5811  -8.5809  -8.5709  -8.5708  -8.5389
    -8.5389  -8.4889  -8.4889  -8.4621  -8.4621  -8.4179  -8.4047  -8.3534
    -8.3533  -8.3420  -8.2654  -8.2004  -8.2003  -8.1990  -8.1990  -8.1563
    -8.1561  -8.1544  -8.1543  -8.1500  -8.1499  -8.1386  -8.0803  -8.0803
    -8.0144  -7.9692  -7.9690  -7.9237  -7.8709  -7.8376  -7.8157  -7.7754
    -7.7368  -7.7367  -7.7169  -7.6996  -7.6763  -7.6763  -7.6723  -7.6722
    -7.6541  -7.6541  -7.6398  -7.6397  -7.6328  -7.6211  -7.6042  -7.6042
    -7.6013  -7.6013  -7.5763  -7.5675  -7.5675  -7.5280  -7.5280  -7.5003
    -7.5002  -7.4919  -7.4919  -7.4694  -7.4610  -7.4543  -7.4541  -7.4406
    -7.4406  -7.4120  -7.4119  -7.3422  -7.3421  -7.3365  -7.3296  -7.3296
    -7.3222  -7.3221  -7.3112  -7.2995  -7.2956  -7.2955  -7.2757  -7.2757
    -7.2532  -7.2249  -7.2249  -7.1578  -7.1578  -7.1503  -7.1278  -7.0605
    -7.0600  -7.0600  -7.0145  -7.0125  -7.0124  -6.9849  -6.9848  -6.9803
    -6.9803  -6.9734  -6.9734  -6.9702  -6.9702  -6.9641  -6.9543  -6.9543
    -6.9541  -6.9473  -6.9473  -6.9302  -6.9217  -6.9215  -6.9123  -6.9122
    -6.8677  -6.8677  -6.8451  -6.8168  -6.7898  -6.7683  -6.7683  -6.7207
    -6.7207  -6.7166  -6.6533  -6.6533  -6.6142  -6.6141  -6.5886  -6.5885
    -6.5726  -6.5725  -6.5657  -6.5281  -6.4894  -6.3961  -6.3918  -6.3917
    -6.3868  -6.3627  -6.3627  -6.3259  -6.3259  -6.2847  -6.2593  -6.2593
    -6.2293  -6.2293  -6.2185  -6.2184  -6.1989  -6.1989  -6.1944  -6.1944
    -6.1813  -6.1811  -6.1188  -6.1187  -6.0499  -6.0479  -6.0479  -6.0215
    -6.0214  -5.9668  -5.9667  -5.9606  -5.9573  -5.9570  -5.9449  -5.9447
    -5.9162  -5.9161  -5.8970  -5.8665  -5.8253  -5.8185  -5.8185  -5.8182
    -5.8182  -5.8100  -5.8099  -5.7837  -5.7837  -5.7332  -5.7332  -5.7290
    -5.7290  -5.7231  -5.6969  -5.6969  -5.6945  -5.6944  -5.6564  -5.6557
    -5.6555  -5.6475  -5.6399  -5.6183  -5.6183  -5.6070  -5.6068  -5.6029
    -5.5928  -5.5900  -5.5899  -5.5842  -5.5803  -5.5739  -5.5739  -5.5615
    -5.5445  -5.5444  -5.5441  -5.5379  -5.5379  -5.5273  -5.5273  -5.5252
    -5.5251  -5.5098  -5.5025  -5.5025  -5.4863  -5.4862  -5.4853  -5.4853
    -5.4750  -5.4750  -5.4636  -5.4613  -5.4505  -5.4504  -5.4323  -5.4323
    -5.4310  -5.4165  -5.3850  -5.3850  -5.3816  -5.3811  -5.3786  -5.3785
    -5.3742  -5.3742  -5.3530  -5.3392  -5.3391  -5.3308  -5.3105  -5.2855
    -5.2854  -5.2692  -5.2588  -5.2588  -5.2484  -5.2484  -5.2154  -5.2154
    -5.1375  -5.1374  -5.1119  -5.1119  -5.1056  -5.1055  -5.0848  -5.0847
    -5.0657  -5.0564  -5.0564  -5.0396  -5.0339  -5.0099  -4.9617  -4.9615
    -4.9142  -4.9142  -4.9069  -4.8732  -4.8731  -4.8071  -4.7569  -4.7177
    -4.7176  -4.6901  -4.6715  -4.6715  -4.6666  -4.6664  -4.6553  -4.6266
    -4.6265  -4.6112  -4.6110  -4.5945  -4.5944  -4.5930  -4.5929  -4.5567
    -4.5438  -4.5355  -4.5355  -4.1500  -4.0074  -4.0074  -3.8886  -3.8886
    -3.7110  -3.7109  -3.6503  -3.6500  -3.5288  -3.5287  -3.5247  -3.5246
    -3.4740  -3.0457  -3.0457  -2.9354  -2.9352  -2.8638

          k =-0.5000 0.1768 0.0000 (128388 PWs)   bands (ev):

   -92.5902 -92.5902 -92.5752 -92.5752 -92.5711 -92.5711 -92.5689 -92.5689
   -92.5649 -92.5649 -92.5561 -92.5561 -92.5541 -92.5541 -92.5537 -92.5537
   -92.5499 -92.5499 -92.5491 -92.5490 -92.5427 -92.5427 -92.5392 -92.5391
   -92.5339 -92.5338 -92.5324 -92.5323 -92.5276 -92.5276 -92.5173 -92.5173
   -92.4489 -92.4488 -92.4331 -92.4331 -92.4244 -92.4244 -92.4173 -92.4173
   -92.4127 -92.4126 -92.4109 -92.4108 -92.4074 -92.4073 -92.4045 -92.4044
   -92.4004 -92.4004 -92.3995 -92.3994 -92.3993 -92.3992 -92.3951 -92.3950
   -92.3924 -92.3924 -92.3873 -92.3872 -92.3806 -92.3805 -92.3674 -92.3673
   -58.7808 -58.7808 -58.7644 -58.7644 -58.7555 -58.7554 -58.7552 -58.7552
[...]
    -2.3486  -2.3376  -2.3366  -2.3361  -2.3340  -2.3318  -2.3196  -2.2999
    -2.2992  -2.2923  -2.2754  -2.2651  -2.2594  -2.2557  -2.2518  -2.2439
    -2.2179  -2.2149  -2.2145  -2.1722  -2.1626  -2.1557  -2.1381  -2.1263
    -2.1109  -2.1097  -2.1073  -2.1002  -2.0994  -2.0902  -2.0786  -2.0572
    -2.0356  -2.0269  -2.0190  -2.0094  -2.0074  -1.9829  -1.9761  -1.9484
    -1.8581  -1.8067  -1.7443  -1.7396  -1.7296  -1.6106  -1.5580  -1.4909
    -1.3703  -1.3255  -1.3090  -1.1466  -1.1225  -1.0964

          k =-0.5000-0.3536 0.0000 (128560 PWs)   bands (ev):

   -89.5840 -89.5839 -89.5757 -89.5757 -89.5495 -89.5494 -89.5494 -89.5494
   -89.5443 -89.5443 -89.5430 -89.5430 -89.5375 -89.5374 -89.5374 -89.5373
   -89.5330 -89.5330 -89.5233 -89.5232 -89.5232 -89.5232 -89.5232 -89.5232
   -89.5210 -89.5210 -89.5210 -89.5210 -89.4994 -89.4994 -89.4994 -89.4993
   -89.4881 -89.4881 -89.4875 -89.4875 -89.4849 -89.4849 -89.4846 -89.4846
   -89.4656 -89.4656 -89.4655 -89.4655 -89.4655 -89.4655 -89.4655 -89.4654
   -89.4630 -89.4630 -89.4630 -89.4630 -89.4627 -89.4627 -89.4627 -89.4627
   -89.4437 -89.4437 -89.4434 -89.4434 -89.4411 -89.4411 -89.4409 -89.4409
   -55.8346 -55.8346 -55.8345 -55.8345 -55.8250 -55.8249 -55.8249 -55.8249
   -55.8231 -55.8230 -55.8188 -55.8187 -55.8165 -55.8165 -55.8098 -55.8098
   -55.8097 -55.8097 -55.8015 -55.8014 -55.8014 -55.8014 -55.7933 -55.7933
   -55.7822 -55.7822 -55.7808 -55.7808 -55.7761 -55.7761 -55.7578 -55.7578
   -55.7537 -55.7537 -55.7453 -55.7453 -55.7453 -55.7452 -55.7435 -55.7435
   -55.7435 -55.7435 -55.7364 -55.7364 -55.7364 -55.7364 -55.7363 -55.7363
   -55.7347 -55.7346 -55.7309 -55.7309 -55.7268 -55.7267 -55.7251 -55.7251
   -55.7225 -55.7225 -55.7207 -55.7207 -55.7207 -55.7206 -55.6842 -55.6842
   -55.6732 -55.6732 -55.6732 -55.6732 -55.6715 -55.6714 -55.6616 -55.6616
   -55.6613 -55.6612 -55.6441 -55.6441 -55.6256 -55.6256 -55.6256 -55.6256
   -55.6248 -55.6248 -55.6244 -55.6244 -55.6148 -55.6148 -55.6148 -55.6148
   -55.6129 -55.6129 -55.6129 -55.6129 -55.5973 -55.5973 -55.5962 -55.5962
   -55.5895 -55.5895 -55.5895 -55.5895 -55.5834 -55.5834 -55.5832 -55.5832
   -55.5832 -55.5832 -55.5719 -55.5718 -55.5718 -55.5718 -55.5688 -55.5687
   -55.5603 -55.5603 -55.5559 -55.5559 -55.5475 -55.5475 -55.5458 -55.5458
   -55.5458 -55.5458 -55.5388 -55.5388 -55.5319 -55.5319 -55.5298 -55.5298
   -55.5238 -55.5238 -55.5219 -55.5218 -55.5172 -55.5172 -55.5172 -55.5172
   -55.5150 -55.5150 -55.5144 -55.5144 -55.5144 -55.5143 -55.5099 -55.5099
   -55.5099 -55.5099 -55.5081 -55.5081 -55.5012 -55.5011 -55.4998 -55.4998
   -55.4972 -55.4972 -55.4955 -55.4955 -55.4931 -55.4931 -55.4914 -55.4914
   -55.4914 -55.4914 -55.4913 -55.4913 -55.4897 -55.4897 -55.4856 -55.4856
   -55.4856 -55.4855 -55.4804 -55.4804 -55.4788 -55.4788 -55.4788 -55.4788
   -55.4784 -55.4784 -55.4784 -55.4784 -55.4687 -55.4687 -55.4638 -55.4638
   -55.4638 -55.4638 -55.4624 -55.4624 -55.4591 -55.4591 -55.4580 -55.4580
   -11.5387 -11.5386 -10.9534 -10.9534 -10.2458 -10.2457  -9.7023  -9.7023
    -8.9503  -8.9503  -8.9502  -8.9502  -8.5416  -8.5414  -8.1011  -8.1011
    -8.1010  -8.1010  -8.1005  -8.1005  -8.0058  -8.0058  -7.9671  -7.9671
    -7.9670  -7.9670  -7.5406  -7.5404  -7.5389  -7.5388  -7.5388  -7.5388
    -7.3296  -7.3296  -7.0705  -7.0705  -7.0364  -7.0364  -7.0363  -7.0363
    -6.9785  -6.9784  -6.9349  -6.9348  -6.9348  -6.9347  -6.7764  -6.7763
    -6.7654  -6.7652  -6.7460  -6.7459  -6.5012  -6.5011  -6.4843  -6.4843
    -6.4842  -6.4842  -6.2652  -6.2650  -6.2144  -6.2143  -6.1636  -6.1635
    -6.0571  -6.0570  -5.9761  -5.9761  -5.9759  -5.9759  -5.9673  -5.9671
    -5.9500  -5.9498  -5.9415  -5.9413  -5.8424  -5.8424  -5.8423  -5.8423
    -5.8370  -5.8369  -5.8369  -5.8368  -5.8305  -5.8304  -5.8304  -5.8304
    -5.6179  -5.6179  -5.6099  -5.6098  -5.4781  -5.4781  -5.4780  -5.4780
    -5.4640  -5.4639  -5.4146  -5.4145  -5.4145  -5.4144  -5.4043  -5.4041
    -5.3990  -5.3989  -5.3778  -5.3777  -5.3776  -5.3775  -5.3440  -5.3440
    -5.3440  -5.3438  -5.3408  -5.3408  -5.3408  -5.3407  -5.3346  -5.3342
    -5.2916  -5.2916  -5.2915  -5.2914  -5.2314  -5.2314  -5.2313  -5.2312
    -5.2310  -5.2310  -5.2310  -5.2309  -5.2273  -5.2271  -5.2120  -5.2117
    -5.1540  -5.1539  -5.0208  -5.0205  -4.9587  -4.9587  -4.9587  -4.9586
    -4.9394  -4.9393  -4.8994  -4.8993  -4.8993  -4.8993  -4.7930  -4.7929
    -4.7767  -4.7766  -4.7766  -4.7765  -4.7704  -4.7703  -4.7212  -4.7210
    -4.7108  -4.7105  -4.6625  -4.6623  -4.5281  -4.5281  -4.5156  -4.5155
    -4.4475  -4.4474  -4.4422  -4.4421  -4.4203  -4.4202  -4.4202  -4.4201
    -4.4088  -4.4085  -4.3958  -4.3957  -4.3230  -4.3229  -4.3229  -4.3229
    -4.2989  -4.2985  -4.0480  -4.0480  -3.9752  -3.9748  -3.9327  -3.9324
    -3.8642  -3.8641  -3.6831  -3.6829  -3.6612  -3.6610  -3.6135  -3.6134
    -3.5407  -3.5406  -3.5025  -3.5025  -3.5024  -3.5023  -3.4243  -3.4243
    -3.4241  -3.4238  -3.3811  -3.3810  -3.3688  -3.3687  -3.2670  -3.2670
    -3.2638  -3.2638  -3.2637  -3.2636  -3.1642  -3.1642  -3.1642  -3.1641
    -3.1599  -3.1599  -3.1598  -3.1598  -3.1350  -3.1350  -3.1348  -3.1348
    -3.0590  -3.0590  -3.0590  -3.0590  -2.9931  -2.9931  -2.9930  -2.9929
    -2.9588  -2.9587  -2.9167  -2.9167  -2.8625  -2.8624  -2.8059  -2.8059
    -2.7253  -2.7252  -2.7214  -2.7214  -2.7214  -2.7213  -2.7189  -2.7187
    -2.7015  -2.7015  -2.6753  -2.6752  -2.6646  -2.6645  -2.6645  -2.6644
    -2.6584  -2.6583  -2.6583  -2.6583  -2.6327  -2.6324  -2.5846  -2.5846
    -2.5845  -2.5844  -2.5833  -2.5831  -2.5597  -2.5596  -2.5589  -2.5586
    -2.5532  -2.5530  -2.5222  -2.5222  -2.5093  -2.5093  -2.4881  -2.4881
    -2.4881  -2.4881  -2.4753  -2.4752  -2.4735  -2.4734  -2.4734  -2.4734
    -2.4326  -2.4326  -2.3672  -2.3672  -2.3512  -2.3511  -2.3321  -2.3319
    -2.3208  -2.3207  -2.2871  -2.2871  -2.2871  -2.2870  -2.2856  -2.2856
    -2.2855  -2.2855  -2.2712  -2.2711  -2.2680  -2.2680  -2.2680  -2.2680
    -2.2607  -2.2605  -2.2137  -2.2137  -2.2064  -2.2064  -2.2064  -2.2063
    -2.1920  -2.1919  -2.1834  -2.1833  -2.1832  -2.1832  -2.0941  -2.0939
    -2.0892  -2.0892  -2.0891  -2.0891  -1.8946  -1.8944  -1.8772  -1.8772
    -1.6640  -1.6639  -1.6639  -1.6639  -1.5936  -1.5935  -1.5934  -1.5933
    -1.5753  -1.5753  -1.5753  -1.5753  -1.5552  -1.5552

     the Fermi energy is    -4.4328 ev

!    total energy              =  -21072.22144546 Ry

     total all-electron energy =   -162915.199718 Ry
     estimated scf accuracy    <          7.1E-09 Ry
     smearing contrib. (-TS)   =      -0.00015409 Ry
     internal energy E=F+TS    =  -21072.22129137 Ry

     The total energy is F=E-TS. E is the sum of the following terms:
     one-electron contribution = -737322.18602777 Ry
     hartree contribution      =  368488.67246453 Ry
     xc contribution           =   -2228.22253944 Ry
     ewald contribution        =  354864.31004418 Ry
     Dispersion Correction     =      -1.37032025 Ry
     one-center paw contrib.   =   -4873.42491262 Ry

     total magnetization       =   163.01 Bohr mag/cell
     absolute magnetization    =   169.31 Bohr mag/cell

     convergence has been achieved in  46 iterations

     negative rho (up, down):  1.181E-02 1.655E-02

     Forces acting on atoms (cartesian axes, Ry/au):

     atom    1 type  1   force =     0.00000610    0.00000832    0.00932678
     atom    2 type  1   force =    -0.00000289    0.00001394   -0.00925396
     atom    3 type  1   force =     0.00000449    0.00000696    0.00942230
     atom    4 type  1   force =    -0.00003093   -0.00000615   -0.00924117
     atom    5 type  1   force =     0.00001137   -0.00000600    0.00005150
     atom    6 type  1   force =     0.00000603   -0.00001206   -0.00030389
     atom    7 type  1   force =    -0.00001743   -0.00004088    0.00007330
     atom    8 type  1   force =    -0.00001180    0.00000704   -0.00030958
     atom    9 type  1   force =    -0.00001560    0.00002724    0.00939371
     atom   10 type  1   force =     0.00001806   -0.00002290    0.00939120
     atom   11 type  1   force =     0.00002201   -0.00008152   -0.00923606
     atom   12 type  1   force =    -0.00007261    0.00005101   -0.00922195
     atom   13 type  1   force =    -0.00000508   -0.00000229    0.00005311
     atom   14 type  1   force =     0.00000035    0.00000138    0.00006651
     atom   15 type  1   force =     0.00002104    0.00001130   -0.00034446
     atom   16 type  1   force =     0.00002565    0.00001247   -0.00030257
     atom   17 type  1   force =     0.00001458   -0.00000899    0.00937461
     atom   18 type  1   force =     0.00000818    0.00000053   -0.00924018
     atom   19 type  1   force =     0.00000498   -0.00001640    0.00937415
     atom   20 type  1   force =     0.00008899   -0.00011347   -0.00921520
     atom   21 type  1   force =    -0.00002185    0.00000804    0.00007227
     atom   22 type  1   force =    -0.00000138   -0.00002673   -0.00031672
     atom   23 type  1   force =    -0.00000547    0.00001847    0.00007299
     atom   24 type  1   force =     0.00000510   -0.00002079   -0.00035246
     atom   25 type  1   force =     0.00000841   -0.00000893    0.00942877
     atom   26 type  1   force =     0.00000414   -0.00000545    0.00932308
     atom   27 type  1   force =     0.00003876   -0.00007212   -0.00921776
     atom   28 type  1   force =     0.00008079   -0.00004162   -0.00923543
     atom   29 type  1   force =     0.00000005   -0.00000675    0.00006357
     atom   30 type  1   force =     0.00000743   -0.00001581    0.00005233
     atom   31 type  1   force =    -0.00002128   -0.00003376   -0.00026125
     atom   32 type  1   force =    -0.00002900   -0.00001849   -0.00034241
     atom   33 type  1   force =    -0.00000369    0.00001472    0.00937785
     atom   34 type  1   force =     0.00000850    0.00000031   -0.00924146
     atom   35 type  1   force =    -0.00001016    0.00000968    0.00937775
     atom   36 type  1   force =    -0.00008494    0.00012974   -0.00922126
     atom   37 type  1   force =    -0.00000922    0.00000261    0.00006259
     atom   38 type  1   force =     0.00001865   -0.00001382   -0.00032036
     atom   39 type  1   force =    -0.00000012    0.00000526    0.00006351
     atom   40 type  1   force =    -0.00001088    0.00001012   -0.00030583
     atom   41 type  1   force =    -0.00000355    0.00000673    0.00931587
     atom   42 type  1   force =    -0.00000689    0.00001369    0.00943166
     atom   43 type  1   force =    -0.00001431    0.00009131   -0.00922234
     atom   44 type  1   force =    -0.00006552    0.00007257   -0.00922309
     atom   45 type  1   force =     0.00000022   -0.00000323    0.00007083
     atom   46 type  1   force =    -0.00000781    0.00000469    0.00006618
     atom   47 type  1   force =    -0.00002844   -0.00002177   -0.00030419
     atom   48 type  1   force =    -0.00002507   -0.00001367   -0.00033970
     atom   49 type  1   force =    -0.00000635   -0.00000195    0.00942337
     atom   50 type  1   force =     0.00000700    0.00000178   -0.00921518
     atom   51 type  1   force =    -0.00000645   -0.00000216    0.00932678
     atom   52 type  1   force =     0.00002818    0.00003386   -0.00924109
     atom   53 type  1   force =     0.00003879   -0.00000044    0.00007082
     atom   54 type  1   force =    -0.00000899    0.00000159   -0.00035500
     atom   55 type  1   force =    -0.00000319   -0.00001539    0.00005230
     atom   56 type  1   force =    -0.00001388    0.00001025   -0.00030914
     atom   57 type  1   force =    -0.00001841    0.00002349    0.00939304
     atom   58 type  1   force =     0.00001772   -0.00002417    0.00938990
     atom   59 type  1   force =    -0.00003704    0.00009354   -0.00922116
     atom   60 type  1   force =     0.00006749   -0.00005341   -0.00921822
     atom   61 type  1   force =     0.00000045    0.00000365    0.00005347
     atom   62 type  1   force =    -0.00000417   -0.00000421    0.00006389
     atom   63 type  1   force =     0.00001182    0.00001562   -0.00033951
     atom   64 type  1   force =     0.00002907    0.00000343   -0.00026520

     Total force =     0.001304     Total SCF correction =     0.000162
     SCF correction compared to forces is large: reduce conv_thr to get better values

     BFGS Geometry Optimization
     Energy error            =      0.0E+00
     Gradient error          =      3.5E-04

     bfgs converged in   1 scf cycles and   0 bfgs steps
     (criteria: energy <  7.3E-07 Ry, force <  3.9E-04 Ry/Bohr)

     End of BFGS Geometry Optimization

     Final energy   =  -21072.2214454592 Ry
Begin final coordinates

ATOMIC_POSITIONS (angstrom)
Fe            1.6549129530        1.1702001330        0.0000000000    0   0   0
Fe            0.0000000000        0.0000000000        2.0269842320    0   0   0
Fe            4.9647388580        3.5106003990        0.0000000000    0   0   0
Fe            3.3098259060        2.3404002660        2.0269842320    0   0   0
Fe            1.6548331340        1.1702945770        4.0281854820
Fe            3.3098718440        9.3618511040        6.0073479780
Fe            4.9648582600        3.5109180290        4.0278421470
Fe            3.3103130120        2.3407084850        6.0077165100
Fe            2.4823638580        3.5106003990        0.0000000000    0   0   0
Fe            4.1372879530        1.1702001330        0.0000000000    0   0   0
Fe            0.8274509060        2.3404002660        2.0269842320    0   0   0
Fe            2.4823750000        0.0000000000        2.0269842320    0   0   0
Fe            2.4824832400        3.5106611570        4.0280711710
Fe            4.1373274610        1.1703745590        4.0279276460
Fe            0.8277604040        2.3405008600        6.0081468940
Fe            2.4823932550        0.0004016000        6.0078653900
Fe            6.6196629530        1.1702001330        0.0000000000    0   0   0
Fe            4.9647500000        0.0000000000        2.0269842320    0   0   0
Fe            9.9294888580        3.5106003990        0.0000000000    0   0   0
Fe            8.2745759060        2.3404002660        2.0269842320    0   0   0
Fe            6.6201190670        1.1699533980        4.0279873420
Fe            4.9648220250        0.0003675990        6.0073274060
Fe            9.9298119420        3.5102605710        4.0279881530
Fe            8.2749545270        2.3402634790        6.0082184760
Fe            7.4471138580        3.5106003990        0.0000000000    0   0   0
Fe            9.1020379530        1.1702001330        0.0000000000    0   0   0
Fe            5.7922009060        2.3404002660        2.0269842320    0   0   0
Fe            7.4471250000        0.0000000000        2.0269842320    0   0   0
Fe            7.4474491130        3.5103889870        4.0279771040
Fe            9.1022273770        1.1701844920        4.0280601700
Fe            5.7927312560        2.3407408280        6.0070589480
Fe           10.7570958870        9.3615828630        6.0081400900
Fe            3.3098147640        5.8510006640        0.0000000000    0   0   0
Fe            1.6549018110        4.6808005310        2.0269842320    0   0   0
Fe            6.6196406700        8.1914009300        0.0000000000    0   0   0
Fe            4.9647277170        7.0212007970        2.0269842320    0   0   0
Fe            3.3097661060        5.8514448960        4.0280716740
Fe           11.5844070340        4.6810857810        6.0073551270
Fe            6.6194544960        8.1917713470        4.0280720900
Fe            4.9646265050        7.0217562550        6.0077949010
Fe            4.1372656700        8.1914009300        0.0000000000    0   0   0
Fe            5.7921897640        5.8510006640        0.0000000000    0   0   0
Fe            2.4823527170        7.0212007970        2.0269842320    0   0   0
Fe            4.1372768110        4.6808005310        2.0269842320    0   0   0
Fe            4.1371754650        8.1917631220        4.0279257400
Fe            5.7920724260        5.8514254830        4.0279588540
Fe           12.4118606070        7.0215300190        6.0078919860
Fe            4.1375528570        4.6813286290        6.0077236710
Fe            8.2745647640        5.8510006640        0.0000000000    0   0   0
Fe            6.6196518110        4.6808005310        2.0269842320    0   0   0
Fe           11.5843906700        8.1914009300        0.0000000000    0   0   0
Fe            9.9294777170        7.0212007970        2.0269842320    0   0   0
Fe            8.2744713180        5.8511591570        4.0278469000
Fe            6.6198034550        4.6810057990        6.0072475640
Fe           11.5845641640        8.1916597190        4.0281938640
Fe            9.9294215430        7.0210770570        6.0076816220
Fe            9.1020156700        8.1914009300        0.0000000000    0   0   0
Fe           10.7569397640        5.8510006640        0.0000000000    0   0   0
Fe            7.4471027170        7.0212007970        2.0269842320    0   0   0
Fe            9.1020268110        4.6808005310        2.0269842320    0   0   0
Fe            9.1021430390        8.1914761000        4.0280665610
Fe           10.7570069640        5.8511757280        4.0279334520
Fe            7.4469112800        7.0213774910        6.0077080420
Fe            9.1019174990        4.6806673830        6.0070823510
End final coordinates



     Writing output data file ./Fe_paper_480c_ESM_std.save/

     init_run     :     27.41s CPU     28.58s WALL (       1 calls)
     electrons    :   4418.76s CPU   4498.19s WALL (       1 calls)
     forces       :     15.88s CPU     16.19s WALL (       1 calls)

     Called by init_run:
     wfcinit      :     20.39s CPU     21.28s WALL (       1 calls)
     potinit      :      1.74s CPU      1.82s WALL (       1 calls)
     hinit0       :      3.40s CPU      3.50s WALL (       1 calls)

     Called by electrons:
     c_bands      :   3969.52s CPU   4034.84s WALL (      46 calls)
     sum_band     :    220.37s CPU    229.43s WALL (      46 calls)
     v_of_rho     :     39.69s CPU     40.26s WALL (      47 calls)
     newd         :      7.73s CPU      7.84s WALL (      47 calls)
     PAW_pot      :      8.49s CPU      8.59s WALL (      47 calls)
     mix_rho      :    159.76s CPU    163.05s WALL (      46 calls)

     Called by c_bands:
     init_us_2    :     20.41s CPU     21.49s WALL (     282 calls)
     cegterg      :   3313.70s CPU   3359.40s WALL (     138 calls)

     Called by *egterg:
     cdiaghg      :    988.39s CPU    995.35s WALL (    1134 calls)
     h_psi        :   1019.76s CPU   1036.93s WALL (    1137 calls)
     s_psi        :    267.85s CPU    269.73s WALL (    1137 calls)
     g_psi        :      5.02s CPU      5.11s WALL (     996 calls)

     Called by h_psi:
     h_psi:calbec :    292.36s CPU    294.49s WALL (    1137 calls)
     vloc_psi     :    451.63s CPU    457.36s WALL (    1137 calls)
     add_vuspsi   :    267.57s CPU    269.51s WALL (    1137 calls)

     General routines
     calbec       :    405.69s CPU    408.57s WALL (    1287 calls)
     fft          :     26.02s CPU     26.30s WALL (    1188 calls)
     ffts         :     71.93s CPU     72.67s WALL (   27229 calls)
     fftw         :    492.50s CPU    499.03s WALL (  542982 calls)
     interpolate  :      3.13s CPU      3.17s WALL (      94 calls)
     davcio       :      0.20s CPU     21.50s WALL (    1391 calls)

     Parallel routines
     fft_scatt_xy :     68.58s CPU     69.39s WALL (  571399 calls)
     fft_scatt_yz :    274.95s CPU    278.67s WALL (  571399 calls)

     PWSCF        :      1h14m CPU      1h15m WALL


   This run was terminated on:  18:37:37   8Jul2022            

=------------------------------------------------------------------------------=
   JOB DONE.
=------------------------------------------------------------------------------=
