     Message from routine get_command_line:
     unexpected argument # 4     :-in

     Program PWSCF v.6.7MaX starts on 28Sep2022 at 20:50: 7 

     This program is part of the open-source Quantum ESPRESSO suite
     for quantum simulation of materials; please cite
         "P. Giannozzi et al., J. Phys.:Condens. Matter 21 395502 (2009);
         "P. Giannozzi et al., J. Phys.:Condens. Matter 29 465901 (2017);
          URL http://www.quantum-espresso.org", 
     in publications or presentations arising from this work. More details at
     http://www.quantum-espresso.org/quote

     Parallel version (MPI), running on   120 processors

     MPI processes distributed on     1 nodes
     K-points division:     npool     =       8
     R & G space division:  proc/nbgrp/npool/nimage =      15
     Waiting for input...
     Reading input from standard input
Warning: card &CELL ignored
Warning: card / ignored

     Current dimensions of program PWSCF are:
     Max number of different atomic species (ntypx) = 10
     Max number of k-points (npk) =  40000
     Max angular momentum in pseudopotentials (lmaxx) =  3

     IMPORTANT: XC functional enforced from input :
     Exchange-correlation= PBE
                           (   1   4   3   4   0   0   0)
     Any further DFT definition will be discarded
     Please, verify this is what you really want


     -------------------------------------------------
     Parameters for Dispersion (Grimme-D2) Correction:
     -------------------------------------------------
       atom      VdW radius       C_6     

        N          2.640         42.670
        H          1.892          4.857

     Subspace diagonalization in iterative solution of the eigenvalue problem:
     one sub-group per band group will be used
     scalapack distributed-memory algorithm (size of sub-group:  3*  3 procs)


     Parallelization info
     --------------------
     sticks:   dense  smooth     PW     G-vecs:    dense   smooth      PW
     Min        3636    1818    468               639190   225950   29545
     Max        3637    1819    470               639197   225953   29547
     Sum       54553   27281   7033              9587919  3389267  443191



     bravais-lattice index     =            0
     lattice parameter (alat)  =      37.7945  a.u.
     unit-cell volume          =   53986.6760 (a.u.)^3
     number of atoms/cell      =            2
     number of atomic types    =            2
     number of electrons       =         6.00
     number of Kohn-Sham states=            7
     kinetic-energy cutoff     =      60.0000  Ry
     charge density cutoff     =     480.0000  Ry
     scf convergence threshold =      1.0E-08
     mixing beta               =       0.7000
     number of iterations used =           10  plain     mixing
     energy convergence thresh.=      7.3E-07
     force convergence thresh. =      3.9E-04
     Exchange-correlation= PBE
                           (   1   4   3   4   0   0   0)
     nstep                     =           50


     celldm(1)=  37.794522  celldm(2)=   0.000000  celldm(3)=   0.000000
     celldm(4)=   0.000000  celldm(5)=   0.000000  celldm(6)=   0.000000

     crystal axes: (cart. coord. in units of alat)
               a(1) = (   1.000000   0.000000   0.000000 )  
               a(2) = (   0.000000   1.000000   0.000000 )  
               a(3) = (   0.000000   0.000000   1.000000 )  

     reciprocal axes: (cart. coord. in units 2 pi/alat)
               b(1) = (  1.000000  0.000000  0.000000 )  
               b(2) = (  0.000000  1.000000  0.000000 )  
               b(3) = (  0.000000  0.000000  1.000000 )  


     PseudoPot. # 1 for N  read from file:
     ../../SSSP/N.pbe-n-radius_5.UPF
     MD5 check sum: 16739722b17309cd8fe442a2ace49922
     Pseudo is Ultrasoft + core correction, Zval =  5.0
     Generated using "atomic" code by A. Dal Corso  v.5.1
     Using radial grid of 1085 points,  4 beta functions with: 
                l(1) =   0
                l(2) =   0
                l(3) =   1
                l(4) =   1
     Q(r) pseudized with 0 coefficients 


     PseudoPot. # 2 for H  read from file:
     ../../SSSP/H.pbe-rrkjus_psl.1.0.0.UPF
     MD5 check sum: f52b6d4d1c606e5624b1dc7b2218f220
     Pseudo is Ultrasoft, Zval =  1.0
     Generated using "atomic" code by A. Dal Corso  v.5.1
     Using radial grid of  929 points,  2 beta functions with: 
                l(1) =   0
                l(2) =   0
     Q(r) pseudized with 0 coefficients 


     atomic species   valence    mass     pseudopotential
        N              5.00    14.00700     N ( 1.00)
        H              1.00     1.00800     H ( 1.00)

     Starting magnetic structure 
     atomic species   magnetization
        N            0.100
        H            0.100

     No symmetry found



   Cartesian axes

     site n.     atom                  positions (alat units)
         1           N   tau(   1) = (   0.5000000   0.5000000   0.0000000  )
         2           H   tau(   2) = (   0.5001513   0.4999379  -0.0524424  )

     number of k points=    10  Methfessel-Paxton smearing, width (Ry)=  0.0100
                       cart. coord. in units 2pi/alat
        k(    1) = (   0.0000000   0.0000000   0.0000000), wk =   0.0625000
        k(    2) = (   0.0000000   0.2500000   0.0000000), wk =   0.1250000
        k(    3) = (   0.0000000  -0.5000000   0.0000000), wk =   0.0625000
        k(    4) = (   0.2500000   0.0000000   0.0000000), wk =   0.1250000
        k(    5) = (   0.2500000   0.2500000   0.0000000), wk =   0.1250000
        k(    6) = (   0.2500000  -0.5000000   0.0000000), wk =   0.1250000
        k(    7) = (   0.2500000  -0.2500000   0.0000000), wk =   0.1250000
        k(    8) = (  -0.5000000   0.0000000   0.0000000), wk =   0.0625000
        k(    9) = (  -0.5000000   0.2500000   0.0000000), wk =   0.1250000
        k(   10) = (  -0.5000000  -0.5000000   0.0000000), wk =   0.0625000

     Dense  grid:  9587919 G-vectors     FFT dimensions: ( 270, 270, 270)

     Smooth grid:  3389267 G-vectors     FFT dimensions: ( 192, 192, 192)

     Estimated max dynamical RAM per process >     385.51 MB

     Estimated total dynamical RAM >      45.18 GB

     Adding external electric field
        E field amplitude [Ha a.u.]: -1.5762E-02
        Potential amp.       -1.0723 Ry
        Total length         34.0151 bohr

     Generating pointlists ...
     new r_m :   0.0216 (alat units)  0.8176 (a.u.) for type    1
     new r_m :   0.0216 (alat units)  0.8176 (a.u.) for type    2

     Initial potential from superposition of free atoms

     starting charge    5.99998, renormalised to    6.00000

     negative rho (up, down):  9.688E-05 7.927E-05
     Starting wfcs are    5 randomized atomic wfcs +    2 random wfcs

     total cpu time spent up to now is       21.5 secs

     Self-consistent Calculation

     iteration #  1     ecut=    60.00 Ry     beta= 0.70
     CG style diagonalization
     c_bands:  1 eigenvalues not converged
     c_bands:  2 eigenvalues not converged
     c_bands:  2 eigenvalues not converged
     ethr =  1.00E-04,  avg # of iterations = 11.3

     negative rho (up, down):  2.354E-04 9.402E-05

     total cpu time spent up to now is       51.7 secs

     total energy              =     -21.07636677 Ry
     estimated scf accuracy    <       0.15459193 Ry

     total magnetization       =     2.00 Bohr mag/cell
     absolute magnetization    =     2.00 Bohr mag/cell

     iteration #  2     ecut=    60.00 Ry     beta= 0.70
     CG style diagonalization
     ethr =  2.58E-03,  avg # of iterations =  3.2

     negative rho (up, down):  2.291E-04 1.184E-04

     total cpu time spent up to now is       68.7 secs

     total energy              =     -21.10376095 Ry
     estimated scf accuracy    <       0.01596895 Ry

     total magnetization       =     2.00 Bohr mag/cell
     absolute magnetization    =     2.02 Bohr mag/cell

     iteration #  3     ecut=    60.00 Ry     beta= 0.70
     CG style diagonalization
     ethr =  2.66E-04,  avg # of iterations =  3.7

     negative rho (up, down):  2.679E-04 1.255E-04

     total cpu time spent up to now is       86.6 secs

     total energy              =     -21.11521364 Ry
     estimated scf accuracy    <       0.00135512 Ry

     total magnetization       =     2.00 Bohr mag/cell
     absolute magnetization    =     2.03 Bohr mag/cell

     iteration #  4     ecut=    60.00 Ry     beta= 0.70
     CG style diagonalization
     ethr =  2.26E-05,  avg # of iterations =  4.9

     negative rho (up, down):  2.807E-04 1.280E-04

     total cpu time spent up to now is      106.9 secs

     total energy              =     -21.11521444 Ry
     estimated scf accuracy    <       0.00005550 Ry

     total magnetization       =     2.00 Bohr mag/cell
     absolute magnetization    =     2.04 Bohr mag/cell

     iteration #  5     ecut=    60.00 Ry     beta= 0.70
     CG style diagonalization
     ethr =  9.25E-07,  avg # of iterations =  7.9

     negative rho (up, down):  2.847E-04 1.280E-04

     total cpu time spent up to now is      132.0 secs

     total energy              =     -21.11531186 Ry
     estimated scf accuracy    <       0.00000809 Ry

     total magnetization       =     2.00 Bohr mag/cell
     absolute magnetization    =     2.04 Bohr mag/cell

     iteration #  6     ecut=    60.00 Ry     beta= 0.70
     CG style diagonalization
     ethr =  1.35E-07,  avg # of iterations =  5.0

     negative rho (up, down):  2.846E-04 1.277E-04

     total cpu time spent up to now is      152.4 secs

     total energy              =     -21.11532196 Ry
     estimated scf accuracy    <       0.00000186 Ry

     total magnetization       =     2.00 Bohr mag/cell
     absolute magnetization    =     2.05 Bohr mag/cell

     iteration #  7     ecut=    60.00 Ry     beta= 0.70
     CG style diagonalization
     ethr =  3.10E-08,  avg # of iterations =  4.2

     negative rho (up, down):  2.847E-04 1.277E-04

     total cpu time spent up to now is      171.6 secs

     total energy              =     -21.11532367 Ry
     estimated scf accuracy    <       0.00000109 Ry

     total magnetization       =     2.00 Bohr mag/cell
     absolute magnetization    =     2.05 Bohr mag/cell

     iteration #  8     ecut=    60.00 Ry     beta= 0.70
     CG style diagonalization
     ethr =  1.82E-08,  avg # of iterations =  3.3

     negative rho (up, down):  2.848E-04 1.277E-04

     total cpu time spent up to now is      189.5 secs

     total energy              =     -21.11532143 Ry
     estimated scf accuracy    <       0.00000253 Ry

     total magnetization       =     2.00 Bohr mag/cell
     absolute magnetization    =     2.05 Bohr mag/cell

     iteration #  9     ecut=    60.00 Ry     beta= 0.70
     CG style diagonalization
     ethr =  1.82E-08,  avg # of iterations =  3.2

     negative rho (up, down):  2.848E-04 1.276E-04

     total cpu time spent up to now is      207.3 secs

     total energy              =     -21.11532286 Ry
     estimated scf accuracy    <       0.00000006 Ry

     total magnetization       =     2.00 Bohr mag/cell
     absolute magnetization    =     2.05 Bohr mag/cell

     iteration # 10     ecut=    60.00 Ry     beta= 0.70
     CG style diagonalization
     ethr =  9.93E-10,  avg # of iterations =  3.4

     negative rho (up, down):  2.848E-04 1.276E-04

     total cpu time spent up to now is      225.5 secs

     total energy              =     -21.11532291 Ry
     estimated scf accuracy    <       0.00000002 Ry

     total magnetization       =     2.00 Bohr mag/cell
     absolute magnetization    =     2.05 Bohr mag/cell

     iteration # 11     ecut=    60.00 Ry     beta= 0.70
     CG style diagonalization
     ethr =  2.71E-10,  avg # of iterations =  3.8

     negative rho (up, down):  2.849E-04 1.276E-04

     Magnetic moment per site:
     atom:    1    charge:    1.3472    magn:    0.5547    constr:    0.0000
     atom:    2    charge:    0.4537    magn:   -0.0093    constr:    0.0000

     total cpu time spent up to now is      242.0 secs

     End of self-consistent calculation

 ------ SPIN UP ------------


          k = 0.0000 0.0000 0.0000 (423701 PWs)   bands (ev):

   -26.3143 -15.2416 -13.4902 -13.4902  -5.6921  -5.0607  -4.9259

          k = 0.0000 0.2500 0.0000 (423725 PWs)   bands (ev):

   -26.3143 -15.2416 -13.4902 -13.4902  -5.6905  -5.0890  -4.9236

          k = 0.0000-0.5000 0.0000 (423542 PWs)   bands (ev):

   -26.3143 -15.2416 -13.4902 -13.4902  -5.6889  -5.1137  -4.8988

          k = 0.2500 0.0000 0.0000 (423725 PWs)   bands (ev):

   -26.3143 -15.2416 -13.4902 -13.4902  -5.6905  -5.0878  -4.9273

          k = 0.2500 0.2500 0.0000 (423766 PWs)   bands (ev):

   -26.3143 -15.2416 -13.4902 -13.4902  -5.6890  -5.0851  -5.0108

          k = 0.2500-0.5000 0.0000 (423782 PWs)   bands (ev):

   -26.3143 -15.2416 -13.4902 -13.4902  -5.6875  -5.0924  -5.0132

          k = 0.2500-0.2500 0.0000 (423766 PWs)   bands (ev):

   -26.3143 -15.2416 -13.4902 -13.4902  -5.6891  -5.0852  -5.0103

          k =-0.5000 0.0000 0.0000 (423542 PWs)   bands (ev):

   -26.3143 -15.2416 -13.4902 -13.4902  -5.6889  -5.1135  -4.9129

          k =-0.5000 0.2500 0.0000 (423782 PWs)   bands (ev):

   -26.3143 -15.2416 -13.4902 -13.4902  -5.6876  -5.0919  -5.0142

          k =-0.5000-0.5000 0.0000 (423708 PWs)   bands (ev):

   -26.3143 -15.2416 -13.4902 -13.4902  -5.6863  -5.0527  -4.9805

 ------ SPIN DOWN ----------


          k = 0.0000 0.0000 0.0000 (423701 PWs)   bands (ev):

   -23.6000 -14.1750  -9.6365  -9.6364  -5.2931  -4.9613  -4.8067

          k = 0.0000 0.2500 0.0000 (423725 PWs)   bands (ev):

   -23.6000 -14.1750  -9.6365  -9.6364  -5.2806  -5.0180  -4.8378

          k = 0.0000-0.5000 0.0000 (423542 PWs)   bands (ev):

   -23.6000 -14.1750  -9.6365  -9.6364  -5.2641  -5.0694  -4.8291

          k = 0.2500 0.0000 0.0000 (423725 PWs)   bands (ev):

   -23.6000 -14.1750  -9.6365  -9.6364  -5.2806  -5.0190  -4.8241

          k = 0.2500 0.2500 0.0000 (423766 PWs)   bands (ev):

   -23.6000 -14.1750  -9.6365  -9.6364  -5.2687  -5.0186  -4.9334

          k = 0.2500-0.5000 0.0000 (423782 PWs)   bands (ev):

   -23.6000 -14.1750  -9.6365  -9.6364  -5.2546  -5.0458  -4.9295

          k = 0.2500-0.2500 0.0000 (423766 PWs)   bands (ev):

   -23.6000 -14.1750  -9.6365  -9.6364  -5.2690  -5.0189  -4.9367

          k =-0.5000 0.0000 0.0000 (423542 PWs)   bands (ev):

   -23.6000 -14.1750  -9.6365  -9.6364  -5.2645  -5.0690  -4.8296

          k =-0.5000 0.2500 0.0000 (423782 PWs)   bands (ev):

   -23.6000 -14.1750  -9.6365  -9.6364  -5.2544  -5.0459  -4.9276

          k =-0.5000-0.5000 0.0000 (423708 PWs)   bands (ev):

   -23.6000 -14.1750  -9.6365  -9.6364  -5.2429  -4.9847  -4.9746

     the Fermi energy is    -9.7510 ev

!    total energy              =     -21.11532292 Ry
     estimated scf accuracy    <          5.4E-10 Ry
     smearing contrib. (-TS)   =       0.00057979 Ry
     internal energy E=F+TS    =     -21.11590271 Ry

     The total energy is F=E-TS. E is the sum of the following terms:
     one-electron contribution =     -39.44437537 Ry
     hartree contribution      =      19.44751655 Ry
     xc contribution           =      -5.90287699 Ry
     ewald contribution        =       2.34424492 Ry
     Dispersion Correction     =      -0.00000239 Ry
     electric field correction =       2.43959057 Ry

     total magnetization       =     2.00 Bohr mag/cell
     absolute magnetization    =     2.05 Bohr mag/cell

     convergence has been achieved in  11 iterations

     negative rho (up, down):  2.849E-04 1.276E-04

     Forces acting on atoms (cartesian axes, Ry/au):

     atom    1 type  1   force =     0.00003143   -0.00001289   -0.00168101
     atom    2 type  2   force =    -0.00003143    0.00001289    0.00168101

     Total force =     0.001681     Total SCF correction =     0.000002

     BFGS Geometry Optimization
     Energy error            =      0.0E+00
     Gradient error          =      1.7E-03

     number of scf cycles    =   1
     number of bfgs steps    =   0

     energy   new            =     -21.1153229230 Ry

     new trust radius        =       0.0016813572 bohr
     new conv_thr            =       0.0000000100 Ry


ATOMIC_POSITIONS (angstrom)
N            10.0000000000       10.0000000000        0.0000000000    0   0   0
H            10.0030100292        9.9987641482       -1.0479583426



     Writing output data file ./NH_ESM_VA8.save/
     NEW-OLD atomic charge density approx. for the potential

     negative rho (up, down):  1.605E-04 2.067E-04

     Adding external electric field
        E field amplitude [Ha a.u.]: -1.5762E-02
        Potential amp.       -1.0723 Ry
        Total length         34.0151 bohr

     Generating pointlists ...

     total cpu time spent up to now is      263.1 secs

     Self-consistent Calculation

     iteration #  1     ecut=    60.00 Ry     beta= 0.70
     CG style diagonalization
     ethr =  1.00E-06,  avg # of iterations =  2.0

     Threshold (ethr) on eigenvalues was too large:
     Diagonalizing with lowered threshold

     CG style diagonalization
     ethr =  2.45E-09,  avg # of iterations =  2.7

     negative rho (up, down):  2.547E-04 1.439E-04

     total cpu time spent up to now is      285.4 secs

     total energy              =     -21.11532339 Ry
     estimated scf accuracy    <       0.00000028 Ry

     total magnetization       =     2.00 Bohr mag/cell
     absolute magnetization    =     2.05 Bohr mag/cell

     iteration #  2     ecut=    60.00 Ry     beta= 0.70
     CG style diagonalization
     ethr =  4.72E-09,  avg # of iterations =  3.5

     negative rho (up, down):  2.739E-04 1.342E-04

     total cpu time spent up to now is      302.8 secs

     total energy              =     -21.11532346 Ry
     estimated scf accuracy    <       0.00000003 Ry

     total magnetization       =     2.00 Bohr mag/cell
     absolute magnetization    =     2.05 Bohr mag/cell

     iteration #  3     ecut=    60.00 Ry     beta= 0.70
     CG style diagonalization
     ethr =  4.89E-10,  avg # of iterations =  3.5

     negative rho (up, down):  2.850E-04 1.278E-04

     Magnetic moment per site:
     atom:    1    charge:    1.3474    magn:    0.5547    constr:    0.0000
     atom:    2    charge:    0.4544    magn:   -0.0093    constr:    0.0000

     total cpu time spent up to now is      318.8 secs

     End of self-consistent calculation

 ------ SPIN UP ------------


          k = 0.0000 0.0000 0.0000 (423701 PWs)   bands (ev):

   -26.3200 -15.2437 -13.4911 -13.4909  -5.6913  -5.0609  -4.9262

          k = 0.0000 0.2500 0.0000 (423725 PWs)   bands (ev):

   -26.3200 -15.2437 -13.4911 -13.4909  -5.6897  -5.0894  -4.9240

          k = 0.0000-0.5000 0.0000 (423542 PWs)   bands (ev):

   -26.3200 -15.2437 -13.4911 -13.4909  -5.6881  -5.1141  -4.8992

          k = 0.2500 0.0000 0.0000 (423725 PWs)   bands (ev):

   -26.3200 -15.2437 -13.4911 -13.4909  -5.6897  -5.0883  -4.9276

          k = 0.2500 0.2500 0.0000 (423766 PWs)   bands (ev):

   -26.3200 -15.2437 -13.4911 -13.4909  -5.6883  -5.0854  -5.0112

          k = 0.2500-0.5000 0.0000 (423782 PWs)   bands (ev):

   -26.3200 -15.2437 -13.4911 -13.4909  -5.6868  -5.0928  -5.0137

          k = 0.2500-0.2500 0.0000 (423766 PWs)   bands (ev):

   -26.3200 -15.2437 -13.4911 -13.4909  -5.6883  -5.0855  -5.0108

          k =-0.5000 0.0000 0.0000 (423542 PWs)   bands (ev):

   -26.3200 -15.2437 -13.4911 -13.4909  -5.6881  -5.1140  -4.9133

          k =-0.5000 0.2500 0.0000 (423782 PWs)   bands (ev):

   -26.3200 -15.2437 -13.4911 -13.4909  -5.6868  -5.0925  -5.0146

          k =-0.5000-0.5000 0.0000 (423708 PWs)   bands (ev):

   -26.3200 -15.2437 -13.4911 -13.4909  -5.6855  -5.0532  -4.9809

 ------ SPIN DOWN ----------


          k = 0.0000 0.0000 0.0000 (423701 PWs)   bands (ev):

   -23.6065 -14.1761  -9.6373  -9.6370  -5.2925  -4.9608  -4.8064

          k = 0.0000 0.2500 0.0000 (423725 PWs)   bands (ev):

   -23.6065 -14.1761  -9.6373  -9.6370  -5.2799  -5.0176  -4.8380

          k = 0.0000-0.5000 0.0000 (423542 PWs)   bands (ev):

   -23.6065 -14.1761  -9.6373  -9.6370  -5.2635  -5.0690  -4.8286

          k = 0.2500 0.0000 0.0000 (423725 PWs)   bands (ev):

   -23.6065 -14.1761  -9.6373  -9.6370  -5.2799  -5.0185  -4.8249

          k = 0.2500 0.2500 0.0000 (423766 PWs)   bands (ev):

   -23.6065 -14.1761  -9.6373  -9.6370  -5.2681  -5.0182  -4.9339

          k = 0.2500-0.5000 0.0000 (423782 PWs)   bands (ev):

   -23.6065 -14.1761  -9.6373  -9.6370  -5.2539  -5.0455  -4.9290

          k = 0.2500-0.2500 0.0000 (423766 PWs)   bands (ev):

   -23.6065 -14.1761  -9.6373  -9.6370  -5.2684  -5.0184  -4.9363

          k =-0.5000 0.0000 0.0000 (423542 PWs)   bands (ev):

   -23.6065 -14.1761  -9.6373  -9.6370  -5.2638  -5.0686  -4.8291

          k =-0.5000 0.2500 0.0000 (423782 PWs)   bands (ev):

   -23.6065 -14.1761  -9.6373  -9.6370  -5.2538  -5.0456  -4.9273

          k =-0.5000-0.5000 0.0000 (423708 PWs)   bands (ev):

   -23.6065 -14.1761  -9.6373  -9.6370  -5.2422  -4.9842  -4.9743

     the Fermi energy is    -9.7517 ev

!    total energy              =     -21.11532348 Ry
     estimated scf accuracy    <          7.8E-09 Ry
     smearing contrib. (-TS)   =       0.00057979 Ry
     internal energy E=F+TS    =     -21.11590328 Ry

     The total energy is F=E-TS. E is the sum of the following terms:
     one-electron contribution =     -39.45141971 Ry
     hartree contribution      =      19.45095047 Ry
     xc contribution           =      -5.90360043 Ry
     ewald contribution        =       2.34852521 Ry
     Dispersion Correction     =      -0.00000239 Ry
     electric field correction =       2.43964356 Ry

     total magnetization       =     2.00 Bohr mag/cell
     absolute magnetization    =     2.05 Bohr mag/cell

     convergence has been achieved in   3 iterations

     negative rho (up, down):  2.850E-04 1.278E-04

     Forces acting on atoms (cartesian axes, Ry/au):

     atom    1 type  1   force =     0.00002744   -0.00001127   -0.00045676
     atom    2 type  2   force =    -0.00002744    0.00001127    0.00045676

     Total force =     0.000458     Total SCF correction =     0.000013
     Energy error            =      5.6E-07
     Gradient error          =      4.6E-04

     number of scf cycles    =   2
     number of bfgs steps    =   1

     energy   old            =     -21.1153229230 Ry
     energy   new            =     -21.1153234815 Ry

     CASE: energy  _new < energy  _old

     new trust radius        =       0.0006291841 bohr
     new conv_thr            =            1.0E-10 Ry


ATOMIC_POSITIONS (angstrom)
N            10.0000000000       10.0000000000        0.0000000000    0   0   0
H            10.0029900809        9.9987723448       -1.0476260919



     Writing output data file ./NH_ESM_VA8.save/
     NEW-OLD atomic charge density approx. for the potential

     negative rho (up, down):  1.605E-04 2.067E-04

     Adding external electric field
        E field amplitude [Ha a.u.]: -1.5762E-02
        Potential amp.       -1.0723 Ry
        Total length         34.0151 bohr

     Generating pointlists ...

     total cpu time spent up to now is      338.9 secs

     Self-consistent Calculation

     iteration #  1     ecut=    60.00 Ry     beta= 0.70
     CG style diagonalization
     ethr =  1.00E-06,  avg # of iterations =  2.0

     Threshold (ethr) on eigenvalues was too large:
     Diagonalizing with lowered threshold

     CG style diagonalization
     ethr =  1.20E-09,  avg # of iterations =  2.8

     negative rho (up, down):  2.547E-04 1.439E-04

     total cpu time spent up to now is      361.4 secs

     total energy              =     -21.11532324 Ry
     estimated scf accuracy    <       0.00000008 Ry

     total magnetization       =     2.00 Bohr mag/cell
     absolute magnetization    =     2.05 Bohr mag/cell

     iteration #  2     ecut=    60.00 Ry     beta= 0.70
     CG style diagonalization
     ethr =  1.41E-09,  avg # of iterations =  3.4

     negative rho (up, down):  2.591E-04 1.510E-04

     total cpu time spent up to now is      378.6 secs

     total energy              =     -21.11532308 Ry
     estimated scf accuracy    <       0.00000042 Ry

     total magnetization       =     2.00 Bohr mag/cell
     absolute magnetization    =     2.05 Bohr mag/cell

     iteration #  3     ecut=    60.00 Ry     beta= 0.70
     CG style diagonalization
     ethr =  1.41E-09,  avg # of iterations =  3.1

     negative rho (up, down):  2.741E-04 1.376E-04

     total cpu time spent up to now is      395.4 secs

     total energy              =     -21.11532310 Ry
     estimated scf accuracy    <       0.00000008 Ry

     total magnetization       =     2.00 Bohr mag/cell
     absolute magnetization    =     2.05 Bohr mag/cell

     iteration #  4     ecut=    60.00 Ry     beta= 0.70
     CG style diagonalization
     ethr =  1.31E-09,  avg # of iterations =  3.0

     negative rho (up, down):  2.837E-04 1.286E-04

     total cpu time spent up to now is      412.3 secs

     total energy              =     -21.11532315 Ry
     estimated scf accuracy    <          1.3E-09 Ry

     total magnetization       =     2.00 Bohr mag/cell
     absolute magnetization    =     2.05 Bohr mag/cell

     iteration #  5     ecut=    60.00 Ry     beta= 0.70
     CG style diagonalization
     ethr =  2.23E-11,  avg # of iterations =  3.5

     negative rho (up, down):  2.848E-04 1.279E-04

     total cpu time spent up to now is      430.0 secs

     total energy              =     -21.11532315 Ry
     estimated scf accuracy    <          1.7E-10 Ry

     total magnetization       =     2.00 Bohr mag/cell
     absolute magnetization    =     2.05 Bohr mag/cell

     iteration #  6     ecut=    60.00 Ry     beta= 0.70
     CG style diagonalization
     ethr =  2.76E-12,  avg # of iterations =  3.4

     negative rho (up, down):  2.850E-04 1.278E-04

     Magnetic moment per site:
     atom:    1    charge:    1.3475    magn:    0.5546    constr:    0.0000
     atom:    2    charge:    0.4547    magn:   -0.0093    constr:    0.0000

     total cpu time spent up to now is      445.7 secs

     End of self-consistent calculation

 ------ SPIN UP ------------


          k = 0.0000 0.0000 0.0000 (423701 PWs)   bands (ev):

   -26.3220 -15.2443 -13.4912 -13.4912  -5.6910  -5.0606  -4.9261

          k = 0.0000 0.2500 0.0000 (423725 PWs)   bands (ev):

   -26.3220 -15.2443 -13.4912 -13.4912  -5.6895  -5.0892  -4.9240

          k = 0.0000-0.5000 0.0000 (423542 PWs)   bands (ev):

   -26.3220 -15.2443 -13.4912 -13.4912  -5.6879  -5.1140  -4.8993

          k = 0.2500 0.0000 0.0000 (423725 PWs)   bands (ev):

   -26.3220 -15.2443 -13.4912 -13.4912  -5.6894  -5.0883  -4.9273

          k = 0.2500 0.2500 0.0000 (423766 PWs)   bands (ev):

   -26.3220 -15.2443 -13.4912 -13.4912  -5.6880  -5.0852  -5.0109

          k = 0.2500-0.5000 0.0000 (423782 PWs)   bands (ev):

   -26.3220 -15.2443 -13.4912 -13.4912  -5.6865  -5.0927  -5.0137

          k = 0.2500-0.2500 0.0000 (423766 PWs)   bands (ev):

   -26.3220 -15.2443 -13.4912 -13.4912  -5.6880  -5.0852  -5.0106

          k =-0.5000 0.0000 0.0000 (423542 PWs)   bands (ev):

   -26.3220 -15.2443 -13.4912 -13.4912  -5.6879  -5.1139  -4.9132

          k =-0.5000 0.2500 0.0000 (423782 PWs)   bands (ev):

   -26.3220 -15.2443 -13.4912 -13.4912  -5.6865  -5.0925  -5.0145

          k =-0.5000-0.5000 0.0000 (423708 PWs)   bands (ev):

   -26.3220 -15.2443 -13.4912 -13.4912  -5.6852  -5.0530  -4.9807

 ------ SPIN DOWN ----------


          k = 0.0000 0.0000 0.0000 (423701 PWs)   bands (ev):

   -23.6088 -14.1764  -9.6374  -9.6373  -5.2927  -4.9612  -4.8069

          k = 0.0000 0.2500 0.0000 (423725 PWs)   bands (ev):

   -23.6088 -14.1764  -9.6374  -9.6373  -5.2801  -5.0183  -4.8395

          k = 0.0000-0.5000 0.0000 (423542 PWs)   bands (ev):

   -23.6088 -14.1764  -9.6374  -9.6373  -5.2638  -5.0696  -4.8293

          k = 0.2500 0.0000 0.0000 (423725 PWs)   bands (ev):

   -23.6088 -14.1764  -9.6374  -9.6373  -5.2801  -5.0190  -4.8316

          k = 0.2500 0.2500 0.0000 (423766 PWs)   bands (ev):

   -23.6088 -14.1764  -9.6374  -9.6373  -5.2683  -5.0188  -4.9377

          k = 0.2500-0.5000 0.0000 (423782 PWs)   bands (ev):

   -23.6088 -14.1764  -9.6374  -9.6373  -5.2540  -5.0462  -4.9297

          k = 0.2500-0.2500 0.0000 (423766 PWs)   bands (ev):

   -23.6088 -14.1764  -9.6374  -9.6373  -5.2685  -5.0189  -4.9370

          k =-0.5000 0.0000 0.0000 (423542 PWs)   bands (ev):

   -23.6088 -14.1764  -9.6374  -9.6373  -5.2639  -5.0693  -4.8297

          k =-0.5000 0.2500 0.0000 (423782 PWs)   bands (ev):

   -23.6088 -14.1764  -9.6374  -9.6373  -5.2539  -5.0463  -4.9281

          k =-0.5000-0.5000 0.0000 (423708 PWs)   bands (ev):

   -23.6088 -14.1764  -9.6374  -9.6373  -5.2422  -4.9848  -4.9751

     the Fermi energy is    -9.7519 ev

!    total energy              =     -21.11532315 Ry
     estimated scf accuracy    <          9.2E-11 Ry
     smearing contrib. (-TS)   =       0.00057979 Ry
     internal energy E=F+TS    =     -21.11590294 Ry

     The total energy is F=E-TS. E is the sum of the following terms:
     one-electron contribution =     -39.45394008 Ry
     hartree contribution      =      19.45208477 Ry
     xc contribution           =      -5.90383461 Ry
     ewald contribution        =       2.35012600 Ry
     Dispersion Correction     =      -0.00000238 Ry
     electric field correction =       2.43966336 Ry

     total magnetization       =     2.00 Bohr mag/cell
     absolute magnetization    =     2.05 Bohr mag/cell

     convergence has been achieved in   6 iterations

     negative rho (up, down):  2.850E-04 1.278E-04

     Forces acting on atoms (cartesian axes, Ry/au):

     atom    1 type  1   force =     0.00002619   -0.00001076    0.00000602
     atom    2 type  2   force =    -0.00002619    0.00001076   -0.00000602

     Total force =     0.000029     Total SCF correction =     0.000000
     Energy error            =      3.3E-07
     Gradient error          =      2.6E-05

     bfgs converged in   3 scf cycles and   2 bfgs steps
     (criteria: energy <  7.3E-07 Ry, force <  3.9E-04 Ry/Bohr)

     End of BFGS Geometry Optimization

     Final energy   =     -21.1153231478 Ry

     File ./NH_ESM_VA8.bfgs deleted, as requested
Begin final coordinates

ATOMIC_POSITIONS (angstrom)
N            10.0000000000       10.0000000000        0.0000000000    0   0   0
H            10.0029900809        9.9987723448       -1.0476260919
End final coordinates



     Writing output data file ./NH_ESM_VA8.save/

     init_run     :     19.80s CPU     21.28s WALL (       1 calls)
     electrons    :    362.28s CPU    389.07s WALL (       3 calls)
     update_pot   :     15.09s CPU     15.88s WALL (       2 calls)
     forces       :     23.67s CPU     25.45s WALL (       3 calls)

     Called by init_run:
     wfcinit      :      1.35s CPU      1.67s WALL (       1 calls)
     potinit      :      7.33s CPU      8.02s WALL (       1 calls)
     hinit0       :      1.19s CPU      1.36s WALL (       1 calls)

     Called by electrons:
     c_bands      :    139.59s CPU    141.80s WALL (      22 calls)
     sum_band     :     47.44s CPU     49.08s WALL (      22 calls)
     v_of_rho     :    130.22s CPU    141.72s WALL (      23 calls)
     newd         :     16.84s CPU     17.93s WALL (      23 calls)
     mix_rho      :     24.85s CPU     30.28s WALL (      22 calls)

     Called by c_bands:
     init_us_2    :      0.79s CPU      0.82s WALL (     144 calls)
     ccgdiagg     :    105.85s CPU    107.13s WALL (      66 calls)
     wfcrot       :     25.95s CPU     26.26s WALL (      54 calls)

     Called by *cgdiagg:
     h_psi        :    117.32s CPU    118.74s WALL (    1463 calls)
     s_psi        :      4.55s CPU      4.60s WALL (    2872 calls)

     Called by h_psi:
     h_psi:calbec :      3.96s CPU      4.02s WALL (    1463 calls)
     vloc_psi     :    108.58s CPU    109.89s WALL (    1463 calls)
     add_vuspsi   :      4.21s CPU      4.26s WALL (    1463 calls)
     hs_1psi      :     95.48s CPU     96.64s WALL (    1409 calls)
     s_1psi       :      5.49s CPU      5.55s WALL (    1409 calls)

     General routines
     calbec       :      7.51s CPU      7.62s WALL (    2974 calls)
     fft          :    143.95s CPU    148.16s WALL (     620 calls)
     ffts         :      7.28s CPU      7.35s WALL (      90 calls)
     fftw         :    101.04s CPU    102.23s WALL (    4036 calls)
     interpolate  :     15.75s CPU     16.99s WALL (      46 calls)
     davcio       :      0.07s CPU      3.36s WALL (     387 calls)

     Parallel routines
     fft_scatt_xy :     39.30s CPU     39.80s WALL (    4746 calls)
     fft_scatt_yz :     87.97s CPU     89.13s WALL (    4746 calls)

     PWSCF        :   7m 5.98s CPU   7m38.27s WALL


   This run was terminated on:  20:57:45  28Sep2022            

=------------------------------------------------------------------------------=
   JOB DONE.
=------------------------------------------------------------------------------=
