
     Program PHONON v.6.7MaX starts on 29Sep2022 at  0:52:41 

     This program is part of the open-source Quantum ESPRESSO suite
     for quantum simulation of materials; please cite
         "P. Giannozzi et al., J. Phys.:Condens. Matter 21 395502 (2009);
         "P. Giannozzi et al., J. Phys.:Condens. Matter 29 465901 (2017);
          URL http://www.quantum-espresso.org", 
     in publications or presentations arising from this work. More details at
     http://www.quantum-espresso.org/quote

     Parallel version (MPI), running on   120 processors

     MPI processes distributed on     1 nodes
     K-points division:     npool     =       8
     R & G space division:  proc/nbgrp/npool/nimage =      15
     Waiting for input...
     Reading input from standard input

     Reading xml data from directory:

     ./NH_ESM_VA8.save/

     IMPORTANT: XC functional enforced from input :
     Exchange-correlation= PBE
                           (   1   4   3   4   0   0   0)
     Any further DFT definition will be discarded
     Please, verify this is what you really want


     Parallelization info
     --------------------
     sticks:   dense  smooth     PW     G-vecs:    dense   smooth      PW
     Min        3636    1818    468               639190   225950   29545
     Max        3637    1819    470               639197   225953   29547
     Sum       54553   27281   7033              9587919  3389267  443191


     Adding external electric field
        E field amplitude [Ha a.u.]: -1.5762E-02
        Potential amp.       -1.0723 Ry
        Total length         34.0151 bohr


     negative rho (up, down):  2.850E-04 1.278E-04
     Reading collected, re-writing distributed wavefunctions

     Calculation of q =    0.0000000   0.0000000   0.0000000

     phonons (vibrational modes) for NH                                         

     bravais-lattice index     =            0
     lattice parameter (alat)  =      37.7945  a.u.
     unit-cell volume          =   53986.6760 (a.u.)^3
     number of atoms/cell      =            2
     number of atomic types    =            2
     kinetic-energy cut-off    =      60.0000  Ry
     charge density cut-off    =     480.0000  Ry
     convergence threshold     =      1.0E-12
     beta                      =       0.7000
     number of iterations used =            4
     Exchange-correlation= PBE
                           (   1   4   3   4   0   0   0)


     celldm(1)=   37.79452  celldm(2)=    0.00000  celldm(3)=    0.00000
     celldm(4)=    0.00000  celldm(5)=    0.00000  celldm(6)=    0.00000

     crystal axes: (cart. coord. in units of alat)
               a(1) = (  1.0000  0.0000  0.0000 )  
               a(2) = (  0.0000  1.0000  0.0000 )  
               a(3) = (  0.0000  0.0000  1.0000 )  

     reciprocal axes: (cart. coord. in units 2 pi/alat)
               b(1) = (  1.0000  0.0000  0.0000 )  
               b(2) = (  0.0000  1.0000  0.0000 )  
               b(3) = (  0.0000  0.0000  1.0000 )  


     Atoms inside the unit cell: 

     Cartesian axes

     site n.  atom      mass           positions (alat units)
        1     N   14.0067   tau(    1) = (    0.50000    0.50000    0.00000  )
        2     H    1.0078   tau(    2) = (    0.50015    0.49994   -0.05238  )

     Computing dynamical matrix for 
                    q = (   0.0000000   0.0000000   0.0000000 )

      2 Sym.Ops. (with q -> -q+G )


     G cutoff =17367.5767  ( 639197 G-vectors)     FFT grid: (270,270,270)
     G cutoff = 8683.7884  ( 225950 G-vectors)  smooth grid: (192,192,192)

     number of k points=    20  Methfessel-Paxton smearing, width (Ry)=  0.0100
                       cart. coord. in units 2pi/alat
        k(    1) = (   0.0000000   0.0000000   0.0000000), wk =   0.0625000
        k(    2) = (   0.0000000   0.2500000   0.0000000), wk =   0.1250000
        k(    3) = (   0.0000000  -0.5000000   0.0000000), wk =   0.0625000
        k(    4) = (   0.2500000   0.0000000   0.0000000), wk =   0.1250000
        k(    5) = (   0.2500000   0.2500000   0.0000000), wk =   0.1250000
        k(    6) = (   0.2500000  -0.5000000   0.0000000), wk =   0.1250000
        k(    7) = (   0.2500000  -0.2500000   0.0000000), wk =   0.1250000
        k(    8) = (  -0.5000000   0.0000000   0.0000000), wk =   0.0625000
        k(    9) = (  -0.5000000   0.2500000   0.0000000), wk =   0.1250000
        k(   10) = (  -0.5000000  -0.5000000   0.0000000), wk =   0.0625000
        k(   11) = (   0.0000000   0.0000000   0.0000000), wk =   0.0625000
        k(   12) = (   0.0000000   0.2500000   0.0000000), wk =   0.1250000
        k(   13) = (   0.0000000  -0.5000000   0.0000000), wk =   0.0625000
        k(   14) = (   0.2500000   0.0000000   0.0000000), wk =   0.1250000
        k(   15) = (   0.2500000   0.2500000   0.0000000), wk =   0.1250000
        k(   16) = (   0.2500000  -0.5000000   0.0000000), wk =   0.1250000
        k(   17) = (   0.2500000  -0.2500000   0.0000000), wk =   0.1250000
        k(   18) = (  -0.5000000   0.0000000   0.0000000), wk =   0.0625000
        k(   19) = (  -0.5000000   0.2500000   0.0000000), wk =   0.1250000
        k(   20) = (  -0.5000000  -0.5000000   0.0000000), wk =   0.0625000

     PseudoPot. # 1 for N  read from file:
     ../../SSSP/N.pbe-n-radius_5.UPF
     MD5 check sum: 16739722b17309cd8fe442a2ace49922
     Pseudo is Ultrasoft + core correction, Zval =  5.0
     Generated using "atomic" code by A. Dal Corso  v.5.1
     Using radial grid of 1085 points,  4 beta functions with: 
                l(1) =   0
                l(2) =   0
                l(3) =   1
                l(4) =   1
     Q(r) pseudized with 0 coefficients 


     PseudoPot. # 2 for H  read from file:
     ../../SSSP/H.pbe-rrkjus_psl.1.0.0.UPF
     MD5 check sum: f52b6d4d1c606e5624b1dc7b2218f220
     Pseudo is Ultrasoft, Zval =  1.0
     Generated using "atomic" code by A. Dal Corso  v.5.1
     Using radial grid of  929 points,  2 beta functions with: 
                l(1) =   0
                l(2) =   0
     Q(r) pseudized with 0 coefficients 


     Mode symmetry, C_1 (1)     point group:


     Atomic displacements:
     There are    6 irreducible representations

     Representation     1      1 modes -  To be done

     Representation     2      1 modes -  To be done

     Representation     3      1 modes -  To be done

     Representation     4      1 modes -  To be done

     Representation     5      1 modes -  To be done

     Representation     6      1 modes -  To be done



     Alpha used in Ewald sum =   2.8000

     -------------------------------------------------
     Parameters for Dispersion (Grimme-D2) Correction:
     -------------------------------------------------
       atom      VdW radius       C_6     

        N          2.640         42.670
        H          1.892          4.857

     Calculating the D2 contribution to the dynamical matrix.
     D2 energy =       -0.00000238 Ry
     Done.


     negative rho (up, down):  2.850E-04 1.278E-04
     PHONON       :   2m29.42s CPU   2m37.02s WALL



     Representation #   1 mode #   1

     Self-consistent Calculation

     Pert. #  1: Fermi energy shift (Ry) =    -5.9476E-06     0.0000E+00

      iter #   1 total cpu time :   194.7 secs   av.it.:   6.0
      thresh= 1.000E-02 alpha_mix =  0.700 |ddv_scf|^2 =  2.474E-09

     Pert. #  1: Fermi energy shift (Ry) =    -3.5659E-04     0.0000E+00

      iter #   2 total cpu time :   240.1 secs   av.it.:  15.0
      thresh= 4.974E-06 alpha_mix =  0.700 |ddv_scf|^2 =  1.351E-09

     Pert. #  1: Fermi energy shift (Ry) =     1.6163E-04     0.0000E+00

      iter #   3 total cpu time :   287.3 secs   av.it.:  14.5
      thresh= 3.676E-06 alpha_mix =  0.700 |ddv_scf|^2 =  2.195E-10

     Pert. #  1: Fermi energy shift (Ry) =    -4.0246E-04     0.0000E+00

      iter #   4 total cpu time :   330.2 secs   av.it.:  14.5
      thresh= 1.481E-06 alpha_mix =  0.700 |ddv_scf|^2 =  3.222E-12

     Pert. #  1: Fermi energy shift (Ry) =     3.8265E-04     0.0000E+00

      iter #   5 total cpu time :   379.2 secs   av.it.:  17.4
      thresh= 1.795E-07 alpha_mix =  0.700 |ddv_scf|^2 =  4.595E-13

     End of self-consistent calculation

     Convergence has been achieved 


     Representation #   2 mode #   2

     Self-consistent Calculation

     Pert. #  1: Fermi energy shift (Ry) =     2.4359E-06     0.0000E+00

      iter #   1 total cpu time :   432.6 secs   av.it.:   6.0
      thresh= 1.000E-02 alpha_mix =  0.700 |ddv_scf|^2 =  2.452E-09

     Pert. #  1: Fermi energy shift (Ry) =     1.5664E-04     0.0000E+00

      iter #   2 total cpu time :   473.8 secs   av.it.:  14.8
      thresh= 4.952E-06 alpha_mix =  0.700 |ddv_scf|^2 =  1.302E-09

     Pert. #  1: Fermi energy shift (Ry) =    -4.7961E-05     0.0000E+00

      iter #   3 total cpu time :   516.2 secs   av.it.:  14.0
      thresh= 3.608E-06 alpha_mix =  0.700 |ddv_scf|^2 =  2.052E-10

     Pert. #  1: Fermi energy shift (Ry) =     1.9123E-04     0.0000E+00

      iter #   4 total cpu time :   561.9 secs   av.it.:  14.0
      thresh= 1.433E-06 alpha_mix =  0.700 |ddv_scf|^2 =  2.965E-12

     Pert. #  1: Fermi energy shift (Ry) =    -1.3649E-04     0.0000E+00

      iter #   5 total cpu time :   610.0 secs   av.it.:  16.0
      thresh= 1.722E-07 alpha_mix =  0.700 |ddv_scf|^2 =  2.106E-13

     End of self-consistent calculation

     Convergence has been achieved 


     Representation #   3 mode #   3

     Self-consistent Calculation

     Pert. #  1: Fermi energy shift (Ry) =     1.5457E-01     0.0000E+00

      iter #   1 total cpu time :   667.6 secs   av.it.:   8.0
      thresh= 1.000E-02 alpha_mix =  0.700 |ddv_scf|^2 =  3.639E-09

     Pert. #  1: Fermi energy shift (Ry) =     1.3071E-01     0.0000E+00

      iter #   2 total cpu time :   712.3 secs   av.it.:  17.0
      thresh= 6.032E-06 alpha_mix =  0.700 |ddv_scf|^2 =  6.740E-10

     Pert. #  1: Fermi energy shift (Ry) =    -1.9194E-01     0.0000E+00

      iter #   3 total cpu time :   758.5 secs   av.it.:  18.0
      thresh= 2.596E-06 alpha_mix =  0.700 |ddv_scf|^2 =  3.019E-10

     Pert. #  1: Fermi energy shift (Ry) =    -1.1290E-02     0.0000E+00

      iter #   4 total cpu time :   809.8 secs   av.it.:  17.9
      thresh= 1.738E-06 alpha_mix =  0.700 |ddv_scf|^2 =  2.001E-12

     Pert. #  1: Fermi energy shift (Ry) =     1.1045E-02     0.0000E+00

      iter #   5 total cpu time :   856.8 secs   av.it.:  18.8
      thresh= 1.415E-07 alpha_mix =  0.700 |ddv_scf|^2 =  1.700E-12

     Pert. #  1: Fermi energy shift (Ry) =    -1.9992E-03     0.0000E+00

      iter #   6 total cpu time :   904.4 secs   av.it.:  17.7
      thresh= 1.304E-07 alpha_mix =  0.700 |ddv_scf|^2 =  1.193E-14

     End of self-consistent calculation

     Convergence has been achieved 


     Representation #   4 mode #   4

     Self-consistent Calculation

     Pert. #  1: Fermi energy shift (Ry) =     6.4969E-04     0.0000E+00

      iter #   1 total cpu time :   956.1 secs   av.it.:   4.5
      thresh= 1.000E-02 alpha_mix =  0.700 |ddv_scf|^2 =  1.309E-10

     Pert. #  1: Fermi energy shift (Ry) =    -3.0327E-04     0.0000E+00

      iter #   2 total cpu time :   998.4 secs   av.it.:  15.5
      thresh= 1.144E-06 alpha_mix =  0.700 |ddv_scf|^2 =  1.993E-11

     Pert. #  1: Fermi energy shift (Ry) =     5.6529E-04     0.0000E+00

      iter #   3 total cpu time :  1041.0 secs   av.it.:  16.5
      thresh= 4.464E-07 alpha_mix =  0.700 |ddv_scf|^2 =  4.056E-13

     End of self-consistent calculation

     Convergence has been achieved 


     Representation #   5 mode #   5

     Self-consistent Calculation

     Pert. #  1: Fermi energy shift (Ry) =     2.0150E-06     0.0000E+00

      iter #   1 total cpu time :  1091.1 secs   av.it.:   4.0
      thresh= 1.000E-02 alpha_mix =  0.700 |ddv_scf|^2 =  1.183E-10

     Pert. #  1: Fermi energy shift (Ry) =     1.2875E-04     0.0000E+00

      iter #   2 total cpu time :  1133.6 secs   av.it.:  14.5
      thresh= 1.087E-06 alpha_mix =  0.700 |ddv_scf|^2 =  1.509E-11

     Pert. #  1: Fermi energy shift (Ry) =    -2.2802E-04     0.0000E+00

      iter #   3 total cpu time :  1175.5 secs   av.it.:  15.8
      thresh= 3.885E-07 alpha_mix =  0.700 |ddv_scf|^2 =  3.974E-13

     End of self-consistent calculation

     Convergence has been achieved 


     Representation #   6 mode #   6

     Self-consistent Calculation

     Pert. #  1: Fermi energy shift (Ry) =    -3.0015E-01     0.0000E+00

      iter #   1 total cpu time :  1229.1 secs   av.it.:   7.0
      thresh= 1.000E-02 alpha_mix =  0.700 |ddv_scf|^2 =  6.078E-10

     Pert. #  1: Fermi energy shift (Ry) =     1.3419E-01     0.0000E+00

      iter #   2 total cpu time :  1273.3 secs   av.it.:  18.0
      thresh= 2.465E-06 alpha_mix =  0.700 |ddv_scf|^2 =  2.686E-10

     Pert. #  1: Fermi energy shift (Ry) =    -3.1384E-02     0.0000E+00

      iter #   3 total cpu time :  1321.4 secs   av.it.:  17.6
      thresh= 1.639E-06 alpha_mix =  0.700 |ddv_scf|^2 =  7.631E-12

     Pert. #  1: Fermi energy shift (Ry) =    -2.4582E-02     0.0000E+00

      iter #   4 total cpu time :  1369.3 secs   av.it.:  16.0
      thresh= 2.762E-07 alpha_mix =  0.700 |ddv_scf|^2 =  3.661E-13

     End of self-consistent calculation

     Convergence has been achieved 

     Number of q in the star =    1
     List of q in the star:
          1   0.000000000   0.000000000   0.000000000

     Diagonalizing the dynamical matrix

     q = (    0.000000000   0.000000000   0.000000000 ) 

 **************************************************************************
     freq (    1) =     -14.518663 [THz] =    -484.290460 [cm-1]
     freq (    2) =     -12.943179 [THz] =    -431.737969 [cm-1]
     freq (    3) =       2.508507 [THz] =      83.674790 [cm-1]
     freq (    4) =      15.168800 [THz] =     505.976717 [cm-1]
     freq (    5) =      16.045225 [THz] =     535.211090 [cm-1]
     freq (    6) =      96.594934 [THz] =    3222.060178 [cm-1]
 **************************************************************************

     Mode symmetry, C_1 (1)     point group:

     freq (   1-   1) =       -484.3  [cm-1]   --> A               I+R
     freq (   2-   2) =       -431.7  [cm-1]   --> A               I+R
     freq (   3-   3) =         83.7  [cm-1]   --> A               I+R
     freq (   4-   4) =        506.0  [cm-1]   --> A               I+R
     freq (   5-   5) =        535.2  [cm-1]   --> A               I+R
     freq (   6-   6) =       3222.1  [cm-1]   --> A               I+R

     PHONON       :  20m24.77s CPU  23m 9.79s WALL

     INITIALIZATION: 
     phq_setup    :     13.03s CPU     14.46s WALL (       1 calls)
     phq_init     :    118.56s CPU    121.75s WALL (       1 calls)

     phq_init     :    118.56s CPU    121.75s WALL (       1 calls)
     set_drhoc    :     24.16s CPU     24.27s WALL (       3 calls)
     init_vloc    :      0.32s CPU      0.32s WALL (       1 calls)
     init_us_1    :      0.06s CPU      0.06s WALL (       1 calls)
     newd         :      0.94s CPU      0.99s WALL (       1 calls)
     dvanqq       :     43.20s CPU     43.73s WALL (       1 calls)
     drho         :     29.33s CPU     31.14s WALL (       1 calls)

     DYNAMICAL MATRIX:
     dynmat0      :     23.31s CPU     24.05s WALL (       1 calls)
     phqscf       :   1075.32s CPU   1227.17s WALL (       1 calls)
     dynmatrix    :      0.03s CPU      0.10s WALL (       1 calls)

     phqscf       :   1075.32s CPU   1227.17s WALL (       1 calls)
     solve_linter :   1070.67s CPU   1207.92s WALL (       6 calls)
     drhodv       :      4.65s CPU      4.80s WALL (       6 calls)

     dynmat0      :     23.31s CPU     24.05s WALL (       1 calls)
     dynmat_us    :      1.05s CPU      1.12s WALL (       1 calls)
     d2ionq       :      0.20s CPU      0.21s WALL (       1 calls)
     dynmatcc     :     21.94s CPU     22.60s WALL (       1 calls)

     dynmat_us    :      1.05s CPU      1.12s WALL (       1 calls)
     addusdynmat  :      0.00s CPU      0.00s WALL (       1 calls)

     phqscf       :   1075.32s CPU   1227.17s WALL (       1 calls)
     solve_linter :   1070.67s CPU   1207.92s WALL (       6 calls)

     solve_linter :   1070.67s CPU   1207.92s WALL (       6 calls)
     dvqpsi_us    :     11.04s CPU     11.27s WALL (      18 calls)
     ortho        :      1.95s CPU      1.99s WALL (      78 calls)
     cgsolve      :    357.77s CPU    361.92s WALL (      78 calls)
     incdrhoscf   :     22.79s CPU     23.13s WALL (      78 calls)
     addusddens   :     60.45s CPU     64.10s WALL (      32 calls)
     vpsifft      :     17.49s CPU     17.76s WALL (      60 calls)
     dv_of_drho   :    177.70s CPU    185.74s WALL (      26 calls)
     mix_pot      :     11.52s CPU     37.59s WALL (      26 calls)
     ef_shift     :     27.25s CPU     28.12s WALL (      32 calls)
     localdos     :     30.44s CPU     31.68s WALL (       6 calls)
     psymdvscf    :    136.56s CPU    189.00s WALL (      26 calls)
     newdq        :     77.42s CPU     81.20s WALL (      26 calls)
     adddvscf     :      0.46s CPU      0.47s WALL (      60 calls)
     drhodvus     :      3.67s CPU     16.82s WALL (       6 calls)

     dvqpsi_us    :     11.04s CPU     11.27s WALL (      18 calls)
     dvqpsi_us_on :      0.18s CPU      0.18s WALL (      18 calls)

     cgsolve      :    357.77s CPU    361.92s WALL (      78 calls)
     ch_psi       :    346.24s CPU    350.26s WALL (    1332 calls)

     ch_psi       :    346.24s CPU    350.26s WALL (    1332 calls)
     h_psi        :    316.77s CPU    320.45s WALL (    1332 calls)
     last         :     20.70s CPU     20.94s WALL (    1332 calls)

     h_psi        :    316.77s CPU    320.45s WALL (    1332 calls)
     add_vuspsi   :      4.97s CPU      5.03s WALL (    1332 calls)

     incdrhoscf   :     22.79s CPU     23.13s WALL (      78 calls)
     addusdbec    :      0.57s CPU      0.58s WALL (      96 calls)

     drhodvus     :      3.67s CPU     16.82s WALL (       6 calls)

      General routines
     calbec       :     12.08s CPU     12.36s WALL (    2958 calls)
     fft          :    308.54s CPU    314.93s WALL (    1117 calls)
     ffts         :     19.85s CPU     20.39s WALL (     262 calls)
     fftw         :    294.36s CPU    297.76s WALL (   10459 calls)
     davcio       :      0.13s CPU     38.07s WALL (     586 calls)
     write_rec    :      0.01s CPU     27.49s WALL (      32 calls)


     PHONON       :  20m24.77s CPU  23m 9.79s WALL


   This run was terminated on:   1:15:51  29Sep2022            

=------------------------------------------------------------------------------=
   JOB DONE.
=------------------------------------------------------------------------------=
