
     Program PHONON v.6.7MaX starts on 20Sep2022 at 17:25:41 

     This program is part of the open-source Quantum ESPRESSO suite
     for quantum simulation of materials; please cite
         "P. Giannozzi et al., J. Phys.:Condens. Matter 21 395502 (2009);
         "P. Giannozzi et al., J. Phys.:Condens. Matter 29 465901 (2017);
          URL http://www.quantum-espresso.org", 
     in publications or presentations arising from this work. More details at
     http://www.quantum-espresso.org/quote

     Parallel version (MPI), running on   120 processors

     MPI processes distributed on     1 nodes
     K-points division:     npool     =       8
     R & G space division:  proc/nbgrp/npool/nimage =      15
     Waiting for input...
     Reading input from standard input

     Reading xml data from directory:

     ./NH2_ESM_std.save/

     IMPORTANT: XC functional enforced from input :
     Exchange-correlation= PBE
                           (   1   4   3   4   0   0   0)
     Any further DFT definition will be discarded
     Please, verify this is what you really want


     Parallelization info
     --------------------
     sticks:   dense  smooth     PW     G-vecs:    dense   smooth      PW
     Min        3636    1818    468               639190   225950   29545
     Max        3637    1819    470               639197   225953   29547
     Sum       54553   27281   7033              9587919  3389267  443191


     negative rho (up, down):  2.342E-04 1.625E-04
     Reading collected, re-writing distributed wavefunctions

     Calculation of q =    0.0000000   0.0000000   0.0000000

     phonons (vibrational modes) for NH2                                        

     bravais-lattice index     =            0
     lattice parameter (alat)  =      37.7945  a.u.
     unit-cell volume          =   53986.6760 (a.u.)^3
     number of atoms/cell      =            3
     number of atomic types    =            2
     kinetic-energy cut-off    =      60.0000  Ry
     charge density cut-off    =     480.0000  Ry
     convergence threshold     =      1.0E-12
     beta                      =       0.7000
     number of iterations used =            4
     Exchange-correlation= PBE
                           (   1   4   3   4   0   0   0)


     celldm(1)=   37.79452  celldm(2)=    0.00000  celldm(3)=    0.00000
     celldm(4)=    0.00000  celldm(5)=    0.00000  celldm(6)=    0.00000

     crystal axes: (cart. coord. in units of alat)
               a(1) = (  1.0000  0.0000  0.0000 )  
               a(2) = (  0.0000  1.0000  0.0000 )  
               a(3) = (  0.0000  0.0000  1.0000 )  

     reciprocal axes: (cart. coord. in units 2 pi/alat)
               b(1) = (  1.0000  0.0000  0.0000 )  
               b(2) = (  0.0000  1.0000  0.0000 )  
               b(3) = (  0.0000  0.0000  1.0000 )  


     Atoms inside the unit cell: 

     Cartesian axes

     site n.  atom      mass           positions (alat units)
        1     N   14.0067   tau(    1) = (    0.50000    0.50000    0.00000  )
        2     H    1.0078   tau(    2) = (    0.50000    0.54043   -0.03242  )
        3     H    1.0078   tau(    3) = (    0.50000    0.45957   -0.03242  )

     Computing dynamical matrix for 
                    q = (   0.0000000   0.0000000   0.0000000 )

      2 Sym.Ops. (with q -> -q+G )


     G cutoff =17367.5767  ( 639197 G-vectors)     FFT grid: (270,270,270)
     G cutoff = 8683.7884  ( 225950 G-vectors)  smooth grid: (192,192,192)

     number of k points=    20  Methfessel-Paxton smearing, width (Ry)=  0.0100
                       cart. coord. in units 2pi/alat
        k(    1) = (   0.0000000   0.0000000   0.0000000), wk =   0.0625000
        k(    2) = (   0.0000000   0.2500000   0.0000000), wk =   0.1250000
        k(    3) = (   0.0000000  -0.5000000   0.0000000), wk =   0.0625000
        k(    4) = (   0.2500000   0.0000000   0.0000000), wk =   0.1250000
        k(    5) = (   0.2500000   0.2500000   0.0000000), wk =   0.1250000
        k(    6) = (   0.2500000  -0.5000000   0.0000000), wk =   0.1250000
        k(    7) = (   0.2500000  -0.2500000   0.0000000), wk =   0.1250000
        k(    8) = (  -0.5000000   0.0000000   0.0000000), wk =   0.0625000
        k(    9) = (  -0.5000000   0.2500000   0.0000000), wk =   0.1250000
        k(   10) = (  -0.5000000  -0.5000000   0.0000000), wk =   0.0625000
        k(   11) = (   0.0000000   0.0000000   0.0000000), wk =   0.0625000
        k(   12) = (   0.0000000   0.2500000   0.0000000), wk =   0.1250000
        k(   13) = (   0.0000000  -0.5000000   0.0000000), wk =   0.0625000
        k(   14) = (   0.2500000   0.0000000   0.0000000), wk =   0.1250000
        k(   15) = (   0.2500000   0.2500000   0.0000000), wk =   0.1250000
        k(   16) = (   0.2500000  -0.5000000   0.0000000), wk =   0.1250000
        k(   17) = (   0.2500000  -0.2500000   0.0000000), wk =   0.1250000
        k(   18) = (  -0.5000000   0.0000000   0.0000000), wk =   0.0625000
        k(   19) = (  -0.5000000   0.2500000   0.0000000), wk =   0.1250000
        k(   20) = (  -0.5000000  -0.5000000   0.0000000), wk =   0.0625000

     PseudoPot. # 1 for N  read from file:
     ../../SSSP/N.pbe-n-radius_5.UPF
     MD5 check sum: 16739722b17309cd8fe442a2ace49922
     Pseudo is Ultrasoft + core correction, Zval =  5.0
     Generated using "atomic" code by A. Dal Corso  v.5.1
     Using radial grid of 1085 points,  4 beta functions with: 
                l(1) =   0
                l(2) =   0
                l(3) =   1
                l(4) =   1
     Q(r) pseudized with 0 coefficients 


     PseudoPot. # 2 for H  read from file:
     ../../SSSP/H.pbe-rrkjus_psl.1.0.0.UPF
     MD5 check sum: f52b6d4d1c606e5624b1dc7b2218f220
     Pseudo is Ultrasoft, Zval =  1.0
     Generated using "atomic" code by A. Dal Corso  v.5.1
     Using radial grid of  929 points,  2 beta functions with: 
                l(1) =   0
                l(2) =   0
     Q(r) pseudized with 0 coefficients 


     Mode symmetry, C_1 (1)     point group:


     Atomic displacements:
     There are    9 irreducible representations

     Representation     1      1 modes -  To be done

     Representation     2      1 modes -  To be done

     Representation     3      1 modes -  To be done

     Representation     4      1 modes -  To be done

     Representation     5      1 modes -  To be done

     Representation     6      1 modes -  To be done

     Representation     7      1 modes -  To be done

     Representation     8      1 modes -  To be done

     Representation     9      1 modes -  To be done



     Alpha used in Ewald sum =   2.8000

     -------------------------------------------------
     Parameters for Dispersion (Grimme-D2) Correction:
     -------------------------------------------------
       atom      VdW radius       C_6     

        N          2.640         42.670
        H          1.892          4.857

     Calculating the D2 contribution to the dynamical matrix.
     D2 energy =       -0.00009804 Ry
     Done.


     negative rho (up, down):  2.342E-04 1.625E-04
     PHONON       :   2m58.54s CPU   3m 6.74s WALL



     Representation #   1 mode #   1

     Self-consistent Calculation

     Pert. #  1: Fermi energy shift (Ry) =     0.0000E+00     0.0000E+00

      iter #   1 total cpu time :   228.7 secs   av.it.:   7.5
      thresh= 1.000E-02 alpha_mix =  0.700 |ddv_scf|^2 =  2.384E-09

     Pert. #  1: Fermi energy shift (Ry) =     0.0000E+00     0.0000E+00

      iter #   2 total cpu time :   273.6 secs   av.it.:  15.5
      thresh= 4.882E-06 alpha_mix =  0.700 |ddv_scf|^2 =  6.425E-10

     Pert. #  1: Fermi energy shift (Ry) =     0.0000E+00     0.0000E+00

      iter #   3 total cpu time :   315.9 secs   av.it.:  15.1
      thresh= 2.535E-06 alpha_mix =  0.700 |ddv_scf|^2 =  2.167E-11

     Pert. #  1: Fermi energy shift (Ry) =     0.0000E+00     0.0000E+00

      iter #   4 total cpu time :   360.5 secs   av.it.:  15.5
      thresh= 4.655E-07 alpha_mix =  0.700 |ddv_scf|^2 =  2.061E-13

     End of self-consistent calculation

     Convergence has been achieved 


     Representation #   2 mode #   2

     Self-consistent Calculation

     Pert. #  1: Fermi energy shift (Ry) =     0.0000E+00     0.0000E+00

      iter #   1 total cpu time :   423.5 secs   av.it.:   7.6
      thresh= 1.000E-02 alpha_mix =  0.700 |ddv_scf|^2 =  2.693E-09

     Pert. #  1: Fermi energy shift (Ry) =     0.0000E+00     0.0000E+00

      iter #   2 total cpu time :   464.0 secs   av.it.:  15.2
      thresh= 5.190E-06 alpha_mix =  0.700 |ddv_scf|^2 =  6.993E-10

     Pert. #  1: Fermi energy shift (Ry) =     0.0000E+00     0.0000E+00

      iter #   3 total cpu time :   507.9 secs   av.it.:  15.0
      thresh= 2.644E-06 alpha_mix =  0.700 |ddv_scf|^2 =  1.711E-11

     Pert. #  1: Fermi energy shift (Ry) =     0.0000E+00     0.0000E+00

      iter #   4 total cpu time :   551.0 secs   av.it.:  15.6
      thresh= 4.136E-07 alpha_mix =  0.700 |ddv_scf|^2 =  7.175E-14

     End of self-consistent calculation

     Convergence has been achieved 


     Representation #   3 mode #   3

     Self-consistent Calculation

     Pert. #  1: Fermi energy shift (Ry) =     0.0000E+00     0.0000E+00

      iter #   1 total cpu time :   609.9 secs   av.it.:   7.7
      thresh= 1.000E-02 alpha_mix =  0.700 |ddv_scf|^2 =  5.749E-09

     Pert. #  1: Fermi energy shift (Ry) =     0.0000E+00     0.0000E+00

      iter #   2 total cpu time :   650.9 secs   av.it.:  15.8
      thresh= 7.582E-06 alpha_mix =  0.700 |ddv_scf|^2 =  1.107E-09

     Pert. #  1: Fermi energy shift (Ry) =     0.0000E+00     0.0000E+00

      iter #   3 total cpu time :   693.7 secs   av.it.:  15.5
      thresh= 3.327E-06 alpha_mix =  0.700 |ddv_scf|^2 =  5.784E-10

     Pert. #  1: Fermi energy shift (Ry) =     0.0000E+00     0.0000E+00

      iter #   4 total cpu time :   737.6 secs   av.it.:  15.5
      thresh= 2.405E-06 alpha_mix =  0.700 |ddv_scf|^2 =  5.745E-12

     Pert. #  1: Fermi energy shift (Ry) =     0.0000E+00     0.0000E+00

      iter #   5 total cpu time :   782.8 secs   av.it.:  15.2
      thresh= 2.397E-07 alpha_mix =  0.700 |ddv_scf|^2 =  1.543E-12

     Pert. #  1: Fermi energy shift (Ry) =     0.0000E+00     0.0000E+00

      iter #   6 total cpu time :   825.7 secs   av.it.:  15.5
      thresh= 1.242E-07 alpha_mix =  0.700 |ddv_scf|^2 =  3.319E-14

     End of self-consistent calculation

     Convergence has been achieved 


     Representation #   4 mode #   4

     Self-consistent Calculation

     Pert. #  1: Fermi energy shift (Ry) =     0.0000E+00     0.0000E+00

      iter #   1 total cpu time :   883.1 secs   av.it.:   5.5
      thresh= 1.000E-02 alpha_mix =  0.700 |ddv_scf|^2 =  7.410E-11

     Pert. #  1: Fermi energy shift (Ry) =     0.0000E+00     0.0000E+00

      iter #   2 total cpu time :   922.6 secs   av.it.:  15.2
      thresh= 8.608E-07 alpha_mix =  0.700 |ddv_scf|^2 =  9.382E-12

     Pert. #  1: Fermi energy shift (Ry) =     0.0000E+00     0.0000E+00

      iter #   3 total cpu time :   966.1 secs   av.it.:  15.6
      thresh= 3.063E-07 alpha_mix =  0.700 |ddv_scf|^2 =  1.461E-12

     Pert. #  1: Fermi energy shift (Ry) =     0.0000E+00     0.0000E+00

      iter #   4 total cpu time :  1010.5 secs   av.it.:  15.6
      thresh= 1.209E-07 alpha_mix =  0.700 |ddv_scf|^2 =  3.571E-13

     End of self-consistent calculation

     Convergence has been achieved 


     Representation #   5 mode #   5

     Self-consistent Calculation

     Pert. #  1: Fermi energy shift (Ry) =     0.0000E+00     0.0000E+00

      iter #   1 total cpu time :  1068.7 secs   av.it.:   6.0
      thresh= 1.000E-02 alpha_mix =  0.700 |ddv_scf|^2 =  4.189E-10

     Pert. #  1: Fermi energy shift (Ry) =     0.0000E+00     0.0000E+00

      iter #   2 total cpu time :  1109.5 secs   av.it.:  16.9
      thresh= 2.047E-06 alpha_mix =  0.700 |ddv_scf|^2 =  2.956E-10

     Pert. #  1: Fermi energy shift (Ry) =     0.0000E+00     0.0000E+00

      iter #   3 total cpu time :  1151.0 secs   av.it.:  16.1
      thresh= 1.719E-06 alpha_mix =  0.700 |ddv_scf|^2 =  5.182E-12

     Pert. #  1: Fermi energy shift (Ry) =     0.0000E+00     0.0000E+00

      iter #   4 total cpu time :  1196.5 secs   av.it.:  16.5
      thresh= 2.277E-07 alpha_mix =  0.700 |ddv_scf|^2 =  1.103E-12

     Pert. #  1: Fermi energy shift (Ry) =     0.0000E+00     0.0000E+00

      iter #   5 total cpu time :  1240.4 secs   av.it.:  16.4
      thresh= 1.050E-07 alpha_mix =  0.700 |ddv_scf|^2 =  3.453E-14

     End of self-consistent calculation

     Convergence has been achieved 


     Representation #   6 mode #   6

     Self-consistent Calculation

     Pert. #  1: Fermi energy shift (Ry) =     0.0000E+00     0.0000E+00

      iter #   1 total cpu time :  1299.5 secs   av.it.:   6.0
      thresh= 1.000E-02 alpha_mix =  0.700 |ddv_scf|^2 =  3.477E-10

     Pert. #  1: Fermi energy shift (Ry) =     0.0000E+00     0.0000E+00

      iter #   2 total cpu time :  1341.0 secs   av.it.:  16.7
      thresh= 1.865E-06 alpha_mix =  0.700 |ddv_scf|^2 =  3.427E-10

     Pert. #  1: Fermi energy shift (Ry) =     0.0000E+00     0.0000E+00

      iter #   3 total cpu time :  1384.1 secs   av.it.:  16.1
      thresh= 1.851E-06 alpha_mix =  0.700 |ddv_scf|^2 =  7.932E-12

     Pert. #  1: Fermi energy shift (Ry) =     0.0000E+00     0.0000E+00

      iter #   4 total cpu time :  1425.3 secs   av.it.:  15.0
      thresh= 2.816E-07 alpha_mix =  0.700 |ddv_scf|^2 =  1.376E-13

     End of self-consistent calculation

     Convergence has been achieved 


     Representation #   7 mode #   7

     Self-consistent Calculation

     Pert. #  1: Fermi energy shift (Ry) =     0.0000E+00     0.0000E+00

      iter #   1 total cpu time :  1482.7 secs   av.it.:   5.5
      thresh= 1.000E-02 alpha_mix =  0.700 |ddv_scf|^2 =  7.411E-11

     Pert. #  1: Fermi energy shift (Ry) =     0.0000E+00     0.0000E+00

      iter #   2 total cpu time :  1522.6 secs   av.it.:  15.2
      thresh= 8.609E-07 alpha_mix =  0.700 |ddv_scf|^2 =  9.381E-12

     Pert. #  1: Fermi energy shift (Ry) =     0.0000E+00     0.0000E+00

      iter #   3 total cpu time :  1565.4 secs   av.it.:  15.6
      thresh= 3.063E-07 alpha_mix =  0.700 |ddv_scf|^2 =  1.461E-12

     Pert. #  1: Fermi energy shift (Ry) =     0.0000E+00     0.0000E+00

      iter #   4 total cpu time :  1605.7 secs   av.it.:  15.6
      thresh= 1.209E-07 alpha_mix =  0.700 |ddv_scf|^2 =  3.571E-13

     End of self-consistent calculation

     Convergence has been achieved 


     Representation #   8 mode #   8

     Self-consistent Calculation

     Pert. #  1: Fermi energy shift (Ry) =     0.0000E+00     0.0000E+00

      iter #   1 total cpu time :  1663.3 secs   av.it.:   6.0
      thresh= 1.000E-02 alpha_mix =  0.700 |ddv_scf|^2 =  4.188E-10

     Pert. #  1: Fermi energy shift (Ry) =     0.0000E+00     0.0000E+00

      iter #   2 total cpu time :  1704.4 secs   av.it.:  16.9
      thresh= 2.046E-06 alpha_mix =  0.700 |ddv_scf|^2 =  2.956E-10

     Pert. #  1: Fermi energy shift (Ry) =     0.0000E+00     0.0000E+00

      iter #   3 total cpu time :  1745.4 secs   av.it.:  16.1
      thresh= 1.719E-06 alpha_mix =  0.700 |ddv_scf|^2 =  5.178E-12

     Pert. #  1: Fermi energy shift (Ry) =     0.0000E+00     0.0000E+00

      iter #   4 total cpu time :  1791.1 secs   av.it.:  16.5
      thresh= 2.276E-07 alpha_mix =  0.700 |ddv_scf|^2 =  1.103E-12

     Pert. #  1: Fermi energy shift (Ry) =     0.0000E+00     0.0000E+00

      iter #   5 total cpu time :  1836.8 secs   av.it.:  16.2
      thresh= 1.050E-07 alpha_mix =  0.700 |ddv_scf|^2 =  3.453E-14

     End of self-consistent calculation

     Convergence has been achieved 


     Representation #   9 mode #   9

     Self-consistent Calculation

     Pert. #  1: Fermi energy shift (Ry) =     0.0000E+00     0.0000E+00

      iter #   1 total cpu time :  1895.2 secs   av.it.:   6.0
      thresh= 1.000E-02 alpha_mix =  0.700 |ddv_scf|^2 =  3.480E-10

     Pert. #  1: Fermi energy shift (Ry) =     0.0000E+00     0.0000E+00

      iter #   2 total cpu time :  1936.1 secs   av.it.:  16.7
      thresh= 1.866E-06 alpha_mix =  0.700 |ddv_scf|^2 =  3.428E-10

     Pert. #  1: Fermi energy shift (Ry) =     0.0000E+00     0.0000E+00

      iter #   3 total cpu time :  1977.6 secs   av.it.:  16.1
      thresh= 1.851E-06 alpha_mix =  0.700 |ddv_scf|^2 =  7.930E-12

     Pert. #  1: Fermi energy shift (Ry) =     0.0000E+00     0.0000E+00

      iter #   4 total cpu time :  2017.2 secs   av.it.:  15.0
      thresh= 2.816E-07 alpha_mix =  0.700 |ddv_scf|^2 =  1.374E-13

     End of self-consistent calculation

     Convergence has been achieved 

     Number of q in the star =    1
     List of q in the star:
          1   0.000000000   0.000000000   0.000000000

     Diagonalizing the dynamical matrix

     q = (    0.000000000   0.000000000   0.000000000 ) 

 **************************************************************************
     freq (    1) =     -29.717886 [THz] =    -991.281984 [cm-1]
     freq (    2) =     -23.930129 [THz] =    -798.223171 [cm-1]
     freq (    3) =     -20.798159 [THz] =    -693.751898 [cm-1]
     freq (    4) =     -20.187329 [THz] =    -673.376808 [cm-1]
     freq (    5) =     -16.747716 [THz] =    -558.643671 [cm-1]
     freq (    6) =     -15.692152 [THz] =    -523.433841 [cm-1]
     freq (    7) =      41.837253 [THz] =    1395.540537 [cm-1]
     freq (    8) =      95.575095 [THz] =    3188.042007 [cm-1]
     freq (    9) =      98.044476 [THz] =    3270.411693 [cm-1]
 **************************************************************************

     Mode symmetry, C_1 (1)     point group:

     freq (   1-   1) =       -991.3  [cm-1]   --> A               I+R
     freq (   2-   2) =       -798.2  [cm-1]   --> A               I+R
     freq (   3-   3) =       -693.8  [cm-1]   --> A               I+R
     freq (   4-   4) =       -673.4  [cm-1]   --> A               I+R
     freq (   5-   5) =       -558.6  [cm-1]   --> A               I+R
     freq (   6-   6) =       -523.4  [cm-1]   --> A               I+R
     freq (   7-   7) =       1395.5  [cm-1]   --> A               I+R
     freq (   8-   8) =       3188.0  [cm-1]   --> A               I+R
     freq (   9-   9) =       3270.4  [cm-1]   --> A               I+R

     PHONON       :  29m54.35s CPU  34m 3.51s WALL

     INITIALIZATION: 
     phq_setup    :     13.02s CPU     14.78s WALL (       1 calls)
     phq_init     :    147.85s CPU    151.96s WALL (       1 calls)

     phq_init     :    147.85s CPU    151.96s WALL (       1 calls)
     set_drhoc    :     24.14s CPU     24.23s WALL (       3 calls)
     init_vloc    :      0.32s CPU      0.32s WALL (       1 calls)
     init_us_1    :      0.03s CPU      0.03s WALL (       1 calls)
     newd         :      1.59s CPU      1.64s WALL (       1 calls)
     dvanqq       :     57.67s CPU     58.28s WALL (       1 calls)
     drho         :     43.54s CPU     46.24s WALL (       1 calls)

     DYNAMICAL MATRIX:
     dynmat0      :     24.11s CPU     24.82s WALL (       1 calls)
     phqscf       :   1615.78s CPU   1849.13s WALL (       1 calls)
     dynmatrix    :      0.03s CPU      0.08s WALL (       1 calls)

     phqscf       :   1615.78s CPU   1849.13s WALL (       1 calls)
     solve_linter :   1606.31s CPU   1818.53s WALL (       9 calls)
     drhodv       :      9.46s CPU      9.73s WALL (       9 calls)

     dynmat0      :     24.11s CPU     24.82s WALL (       1 calls)
     dynmat_us    :      1.43s CPU      1.49s WALL (       1 calls)
     d2ionq       :      0.51s CPU      0.51s WALL (       1 calls)
     dynmatcc     :     22.14s CPU     22.78s WALL (       1 calls)

     dynmat_us    :      1.43s CPU      1.49s WALL (       1 calls)
     addusdynmat  :      0.00s CPU      0.00s WALL (       1 calls)

     phqscf       :   1615.78s CPU   1849.13s WALL (       1 calls)
     solve_linter :   1606.31s CPU   1818.53s WALL (       9 calls)

     solve_linter :   1606.31s CPU   1818.53s WALL (       9 calls)
     dvqpsi_us    :     18.64s CPU     19.10s WALL (      27 calls)
     ortho        :      3.11s CPU      3.20s WALL (     120 calls)
     cgsolve      :    510.55s CPU    516.40s WALL (     120 calls)
     incdrhoscf   :     33.29s CPU     33.79s WALL (     120 calls)
     addusddens   :     86.99s CPU     92.41s WALL (      49 calls)
     vpsifft      :     26.37s CPU     26.84s WALL (      93 calls)
     dv_of_drho   :    269.79s CPU    279.87s WALL (      40 calls)
     mix_pot      :     20.63s CPU     54.18s WALL (      40 calls)
     ef_shift     :     37.81s CPU     38.38s WALL (      49 calls)
     localdos     :     45.74s CPU     47.33s WALL (       9 calls)
     psymdvscf    :    196.14s CPU    279.58s WALL (      40 calls)
     newdq        :    123.30s CPU    129.25s WALL (      40 calls)
     adddvscf     :      0.92s CPU      0.93s WALL (      93 calls)
     drhodvus     :     25.97s CPU     49.60s WALL (       9 calls)

     dvqpsi_us    :     18.64s CPU     19.10s WALL (      27 calls)
     dvqpsi_us_on :      0.30s CPU      0.31s WALL (      27 calls)

     cgsolve      :    510.55s CPU    516.40s WALL (     120 calls)
     ch_psi       :    494.41s CPU    500.10s WALL (    2213 calls)

     ch_psi       :    494.41s CPU    500.10s WALL (    2213 calls)
     h_psi        :    447.72s CPU    452.89s WALL (    2213 calls)
     last         :     32.80s CPU     33.16s WALL (    2213 calls)

     h_psi        :    447.72s CPU    452.89s WALL (    2213 calls)
     add_vuspsi   :      9.39s CPU      9.50s WALL (    2213 calls)

     incdrhoscf   :     33.29s CPU     33.79s WALL (     120 calls)
     addusdbec    :      1.41s CPU      1.43s WALL (     147 calls)

     drhodvus     :     25.97s CPU     49.60s WALL (       9 calls)

      General routines
     calbec       :     21.65s CPU     21.99s WALL (    4858 calls)
     fft          :    458.78s CPU    467.31s WALL (    1713 calls)
     ffts         :     32.00s CPU     32.65s WALL (     423 calls)
     fftw         :    418.10s CPU    422.99s WALL (   15896 calls)
     davcio       :      0.24s CPU     55.52s WALL (     916 calls)
     write_rec    :      0.01s CPU     48.08s WALL (      49 calls)


     PHONON       :  29m54.35s CPU  34m 3.51s WALL


   This run was terminated on:  17:59:45  20Sep2022            

=------------------------------------------------------------------------------=
   JOB DONE.
=------------------------------------------------------------------------------=
