
     Program PHONON v.6.7MaX starts on 20Sep2022 at 16:52:53 

     This program is part of the open-source Quantum ESPRESSO suite
     for quantum simulation of materials; please cite
         "P. Giannozzi et al., J. Phys.:Condens. Matter 21 395502 (2009);
         "P. Giannozzi et al., J. Phys.:Condens. Matter 29 465901 (2017);
          URL http://www.quantum-espresso.org", 
     in publications or presentations arising from this work. More details at
     http://www.quantum-espresso.org/quote

     Parallel version (MPI), running on   120 processors

     MPI processes distributed on     1 nodes
     K-points division:     npool     =       8
     R & G space division:  proc/nbgrp/npool/nimage =      15
     Waiting for input...
     Reading input from standard input

     Reading xml data from directory:

     ./H2_ESM_std.save/

     IMPORTANT: XC functional enforced from input :
     Exchange-correlation= PBE
                           (   1   4   3   4   0   0   0)
     Any further DFT definition will be discarded
     Please, verify this is what you really want


     Parallelization info
     --------------------
     sticks:   dense  smooth     PW     G-vecs:    dense   smooth      PW
     Min        3636    1818    468               639190   225950   29545
     Max        3637    1819    470               639197   225953   29547
     Sum       54553   27281   7033              9587919  3389267  443191


     negative rho (up, down):  6.266E-05 6.266E-05
     Reading collected, re-writing distributed wavefunctions

     Calculation of q =    0.0000000   0.0000000   0.0000000

     phonons (vibrational modes) for H2                                         

     bravais-lattice index     =            0
     lattice parameter (alat)  =      37.7945  a.u.
     unit-cell volume          =   53986.6760 (a.u.)^3
     number of atoms/cell      =            2
     number of atomic types    =            1
     kinetic-energy cut-off    =      60.0000  Ry
     charge density cut-off    =     480.0000  Ry
     convergence threshold     =      1.0E-12
     beta                      =       0.7000
     number of iterations used =            4
     Exchange-correlation= PBE
                           (   1   4   3   4   0   0   0)


     celldm(1)=   37.79452  celldm(2)=    0.00000  celldm(3)=    0.00000
     celldm(4)=    0.00000  celldm(5)=    0.00000  celldm(6)=    0.00000

     crystal axes: (cart. coord. in units of alat)
               a(1) = (  1.0000  0.0000  0.0000 )  
               a(2) = (  0.0000  1.0000  0.0000 )  
               a(3) = (  0.0000  0.0000  1.0000 )  

     reciprocal axes: (cart. coord. in units 2 pi/alat)
               b(1) = (  1.0000  0.0000  0.0000 )  
               b(2) = (  0.0000  1.0000  0.0000 )  
               b(3) = (  0.0000  0.0000  1.0000 )  


     Atoms inside the unit cell: 

     Cartesian axes

     site n.  atom      mass           positions (alat units)
        1     H    1.0078   tau(    1) = (    0.50000    0.50000    0.00000  )
        2     H    1.0078   tau(    2) = (    0.50000    0.50000   -0.03752  )

     Computing dynamical matrix for 
                    q = (   0.0000000   0.0000000   0.0000000 )

      2 Sym.Ops. (with q -> -q+G )


     G cutoff =17367.5767  ( 639197 G-vectors)     FFT grid: (270,270,270)
     G cutoff = 8683.7884  ( 225950 G-vectors)  smooth grid: (192,192,192)

     number of k points=    20  Methfessel-Paxton smearing, width (Ry)=  0.0100
                       cart. coord. in units 2pi/alat
        k(    1) = (   0.0000000   0.0000000   0.0000000), wk =   0.0625000
        k(    2) = (   0.0000000   0.2500000   0.0000000), wk =   0.1250000
        k(    3) = (   0.0000000  -0.5000000   0.0000000), wk =   0.0625000
        k(    4) = (   0.2500000   0.0000000   0.0000000), wk =   0.1250000
        k(    5) = (   0.2500000   0.2500000   0.0000000), wk =   0.1250000
        k(    6) = (   0.2500000  -0.5000000   0.0000000), wk =   0.1250000
        k(    7) = (   0.2500000  -0.2500000   0.0000000), wk =   0.1250000
        k(    8) = (  -0.5000000   0.0000000   0.0000000), wk =   0.0625000
        k(    9) = (  -0.5000000   0.2500000   0.0000000), wk =   0.1250000
        k(   10) = (  -0.5000000  -0.5000000   0.0000000), wk =   0.0625000
        k(   11) = (   0.0000000   0.0000000   0.0000000), wk =   0.0625000
        k(   12) = (   0.0000000   0.2500000   0.0000000), wk =   0.1250000
        k(   13) = (   0.0000000  -0.5000000   0.0000000), wk =   0.0625000
        k(   14) = (   0.2500000   0.0000000   0.0000000), wk =   0.1250000
        k(   15) = (   0.2500000   0.2500000   0.0000000), wk =   0.1250000
        k(   16) = (   0.2500000  -0.5000000   0.0000000), wk =   0.1250000
        k(   17) = (   0.2500000  -0.2500000   0.0000000), wk =   0.1250000
        k(   18) = (  -0.5000000   0.0000000   0.0000000), wk =   0.0625000
        k(   19) = (  -0.5000000   0.2500000   0.0000000), wk =   0.1250000
        k(   20) = (  -0.5000000  -0.5000000   0.0000000), wk =   0.0625000

     PseudoPot. # 1 for H  read from file:
     ../../SSSP/H.pbe-rrkjus_psl.1.0.0.UPF
     MD5 check sum: f52b6d4d1c606e5624b1dc7b2218f220
     Pseudo is Ultrasoft, Zval =  1.0
     Generated using "atomic" code by A. Dal Corso  v.5.1
     Using radial grid of  929 points,  2 beta functions with: 
                l(1) =   0
                l(2) =   0
     Q(r) pseudized with 0 coefficients 


     Mode symmetry, C_1 (1)     point group:


     Atomic displacements:
     There are    6 irreducible representations

     Representation     1      1 modes -  To be done

     Representation     2      1 modes -  To be done

     Representation     3      1 modes -  To be done

     Representation     4      1 modes -  To be done

     Representation     5      1 modes -  To be done

     Representation     6      1 modes -  To be done



     Alpha used in Ewald sum =   2.8000

     -------------------------------------------------
     Parameters for Dispersion (Grimme-D2) Correction:
     -------------------------------------------------
       atom      VdW radius       C_6     

        H          1.892          4.857

     Calculating the D2 contribution to the dynamical matrix.
     D2 energy =       -0.00000168 Ry
     Done.

     PHONON       :     55.03s CPU   1m 4.78s WALL



     Representation #   1 mode #   1

     Self-consistent Calculation

     Pert. #  1: Fermi energy shift (Ry) =     0.0000E+00     0.0000E+00

      iter #   1 total cpu time :    91.4 secs   av.it.:   4.0
      thresh= 1.000E-02 alpha_mix =  0.700 |ddv_scf|^2 =  1.327E-07

     Pert. #  1: Fermi energy shift (Ry) =     0.0000E+00     0.0000E+00

      iter #   2 total cpu time :   117.4 secs   av.it.:   7.0
      thresh= 3.643E-05 alpha_mix =  0.700 |ddv_scf|^2 =  1.196E-08

     Pert. #  1: Fermi energy shift (Ry) =     0.0000E+00     0.0000E+00

      iter #   3 total cpu time :   140.5 secs   av.it.:   7.0
      thresh= 1.094E-05 alpha_mix =  0.700 |ddv_scf|^2 =  3.806E-15

     End of self-consistent calculation

     Convergence has been achieved 


     Representation #   2 mode #   2

     Self-consistent Calculation

     Pert. #  1: Fermi energy shift (Ry) =     0.0000E+00     0.0000E+00

      iter #   1 total cpu time :   174.5 secs   av.it.:   4.0
      thresh= 1.000E-02 alpha_mix =  0.700 |ddv_scf|^2 =  1.327E-07

     Pert. #  1: Fermi energy shift (Ry) =     0.0000E+00     0.0000E+00

      iter #   2 total cpu time :   199.6 secs   av.it.:   7.0
      thresh= 3.643E-05 alpha_mix =  0.700 |ddv_scf|^2 =  1.196E-08

     Pert. #  1: Fermi energy shift (Ry) =     0.0000E+00     0.0000E+00

      iter #   3 total cpu time :   224.5 secs   av.it.:   7.0
      thresh= 1.094E-05 alpha_mix =  0.700 |ddv_scf|^2 =  3.806E-15

     End of self-consistent calculation

     Convergence has been achieved 


     Representation #   3 mode #   3

     Self-consistent Calculation

     Pert. #  1: Fermi energy shift (Ry) =     0.0000E+00     0.0000E+00

      iter #   1 total cpu time :   258.2 secs   av.it.:   7.0
      thresh= 1.000E-02 alpha_mix =  0.700 |ddv_scf|^2 =  2.418E-07

     Pert. #  1: Fermi energy shift (Ry) =     0.0000E+00     0.0000E+00

      iter #   2 total cpu time :   284.0 secs   av.it.:  10.0
      thresh= 4.918E-05 alpha_mix =  0.700 |ddv_scf|^2 =  2.193E-08

     Pert. #  1: Fermi energy shift (Ry) =     0.0000E+00     0.0000E+00

      iter #   3 total cpu time :   313.2 secs   av.it.:   9.0
      thresh= 1.481E-05 alpha_mix =  0.700 |ddv_scf|^2 =  7.274E-12

     Pert. #  1: Fermi energy shift (Ry) =     0.0000E+00     0.0000E+00

      iter #   4 total cpu time :   339.1 secs   av.it.:  12.0
      thresh= 2.697E-07 alpha_mix =  0.700 |ddv_scf|^2 =  9.175E-16

     End of self-consistent calculation

     Convergence has been achieved 


     Representation #   4 mode #   4

     Self-consistent Calculation

     Pert. #  1: Fermi energy shift (Ry) =     0.0000E+00     0.0000E+00

      iter #   1 total cpu time :   372.3 secs   av.it.:   4.0
      thresh= 1.000E-02 alpha_mix =  0.700 |ddv_scf|^2 =  3.481E-07

     Pert. #  1: Fermi energy shift (Ry) =     0.0000E+00     0.0000E+00

      iter #   2 total cpu time :   397.7 secs   av.it.:   7.0
      thresh= 5.900E-05 alpha_mix =  0.700 |ddv_scf|^2 =  3.132E-08

     Pert. #  1: Fermi energy shift (Ry) =     0.0000E+00     0.0000E+00

      iter #   3 total cpu time :   422.4 secs   av.it.:   7.0
      thresh= 1.770E-05 alpha_mix =  0.700 |ddv_scf|^2 =  4.200E-15

     End of self-consistent calculation

     Convergence has been achieved 


     Representation #   5 mode #   5

     Self-consistent Calculation

     Pert. #  1: Fermi energy shift (Ry) =     0.0000E+00     0.0000E+00

      iter #   1 total cpu time :   455.9 secs   av.it.:   4.0
      thresh= 1.000E-02 alpha_mix =  0.700 |ddv_scf|^2 =  3.481E-07

     Pert. #  1: Fermi energy shift (Ry) =     0.0000E+00     0.0000E+00

      iter #   2 total cpu time :   481.0 secs   av.it.:   7.0
      thresh= 5.900E-05 alpha_mix =  0.700 |ddv_scf|^2 =  3.132E-08

     Pert. #  1: Fermi energy shift (Ry) =     0.0000E+00     0.0000E+00

      iter #   3 total cpu time :   505.5 secs   av.it.:   7.0
      thresh= 1.770E-05 alpha_mix =  0.700 |ddv_scf|^2 =  4.200E-15

     End of self-consistent calculation

     Convergence has been achieved 


     Representation #   6 mode #   6

     Self-consistent Calculation

     Pert. #  1: Fermi energy shift (Ry) =     0.0000E+00     0.0000E+00

      iter #   1 total cpu time :   539.7 secs   av.it.:   7.0
      thresh= 1.000E-02 alpha_mix =  0.700 |ddv_scf|^2 =  7.748E-08

     Pert. #  1: Fermi energy shift (Ry) =     0.0000E+00     0.0000E+00

      iter #   2 total cpu time :   565.7 secs   av.it.:  10.9
      thresh= 2.784E-05 alpha_mix =  0.700 |ddv_scf|^2 =  7.989E-09

     Pert. #  1: Fermi energy shift (Ry) =     0.0000E+00     0.0000E+00

      iter #   3 total cpu time :   591.1 secs   av.it.:  10.0
      thresh= 8.938E-06 alpha_mix =  0.700 |ddv_scf|^2 =  1.861E-11

     Pert. #  1: Fermi energy shift (Ry) =     0.0000E+00     0.0000E+00

      iter #   4 total cpu time :   618.4 secs   av.it.:  11.0
      thresh= 4.314E-07 alpha_mix =  0.700 |ddv_scf|^2 =  4.016E-16

     End of self-consistent calculation

     Convergence has been achieved 

     Number of q in the star =    1
     List of q in the star:
          1   0.000000000   0.000000000   0.000000000

     Diagonalizing the dynamical matrix

     q = (    0.000000000   0.000000000   0.000000000 ) 

 **************************************************************************
     freq (    1) =     -21.088653 [THz] =    -703.441749 [cm-1]
     freq (    2) =     -21.088653 [THz] =    -703.441745 [cm-1]
     freq (    3) =     -20.136023 [THz] =    -671.665420 [cm-1]
     freq (    4) =     -11.761705 [THz] =    -392.328252 [cm-1]
     freq (    5) =     -11.761705 [THz] =    -392.328244 [cm-1]
     freq (    6) =     127.167810 [THz] =    4241.861549 [cm-1]
 **************************************************************************

     Mode symmetry, C_1 (1)     point group:

     freq (   1-   1) =       -703.4  [cm-1]   --> A               I+R
     freq (   2-   2) =       -703.4  [cm-1]   --> A               I+R
     freq (   3-   3) =       -671.7  [cm-1]   --> A               I+R
     freq (   4-   4) =       -392.3  [cm-1]   --> A               I+R
     freq (   5-   5) =       -392.3  [cm-1]   --> A               I+R
     freq (   6-   6) =       4241.9  [cm-1]   --> A               I+R

     PHONON       :   7m35.29s CPU  10m29.21s WALL

     INITIALIZATION: 
     phq_setup    :     11.70s CPU     16.60s WALL (       1 calls)
     phq_init     :     26.42s CPU     28.43s WALL (       1 calls)

     phq_init     :     26.42s CPU     28.43s WALL (       1 calls)
     init_vloc    :      0.14s CPU      0.14s WALL (       1 calls)
     init_us_1    :      0.03s CPU      0.03s WALL (       1 calls)
     newd         :      1.08s CPU      1.11s WALL (       1 calls)
     dvanqq       :      6.96s CPU      7.17s WALL (       1 calls)
     drho         :     11.73s CPU     13.40s WALL (       1 calls)

     DYNAMICAL MATRIX:
     dynmat0      :      0.93s CPU      1.04s WALL (       1 calls)
     phqscf       :    400.25s CPU    559.09s WALL (       1 calls)
     dynmatrix    :      0.01s CPU      0.08s WALL (       1 calls)

     phqscf       :    400.25s CPU    559.09s WALL (       1 calls)
     solve_linter :    396.36s CPU    544.81s WALL (       6 calls)
     drhodv       :      3.89s CPU      4.05s WALL (       6 calls)

     dynmat0      :      0.93s CPU      1.04s WALL (       1 calls)
     dynmat_us    :      0.73s CPU      0.77s WALL (       1 calls)
     d2ionq       :      0.20s CPU      0.21s WALL (       1 calls)

     dynmat_us    :      0.73s CPU      0.77s WALL (       1 calls)
     addusdynmat  :      0.00s CPU      0.00s WALL (       1 calls)

     phqscf       :    400.25s CPU    559.09s WALL (       1 calls)
     solve_linter :    396.36s CPU    544.81s WALL (       6 calls)

     solve_linter :    396.36s CPU    544.81s WALL (       6 calls)
     dvqpsi_us    :      8.45s CPU      8.66s WALL (      18 calls)
     ortho        :      0.78s CPU      0.81s WALL (      60 calls)
     cgsolve      :     35.51s CPU     36.16s WALL (      60 calls)
     incdrhoscf   :      4.89s CPU      5.08s WALL (      60 calls)
     addusddens   :     15.39s CPU     18.53s WALL (      26 calls)
     vpsifft      :      2.93s CPU      3.14s WALL (      42 calls)
     dv_of_drho   :    141.63s CPU    154.26s WALL (      20 calls)
     mix_pot      :      6.13s CPU     23.54s WALL (      20 calls)
     ef_shift     :     18.83s CPU     19.36s WALL (      26 calls)
     localdos     :     12.48s CPU     13.40s WALL (       6 calls)
     psymdvscf    :     93.75s CPU    178.14s WALL (      20 calls)
     newdq        :     15.66s CPU     17.50s WALL (      20 calls)
     adddvscf     :      0.09s CPU      0.09s WALL (      42 calls)
     drhodvus     :      0.75s CPU     15.06s WALL (       6 calls)

     dvqpsi_us    :      8.45s CPU      8.66s WALL (      18 calls)
     dvqpsi_us_on :      0.09s CPU      0.10s WALL (      18 calls)

     cgsolve      :     35.51s CPU     36.16s WALL (      60 calls)
     ch_psi       :     34.79s CPU     35.42s WALL (     446 calls)

     ch_psi       :     34.79s CPU     35.42s WALL (     446 calls)
     h_psi        :     33.81s CPU     34.42s WALL (     446 calls)
     last         :      0.79s CPU      0.80s WALL (     446 calls)

     h_psi        :     33.81s CPU     34.42s WALL (     446 calls)
     add_vuspsi   :      0.44s CPU      0.45s WALL (     446 calls)

     incdrhoscf   :      4.89s CPU      5.08s WALL (      60 calls)
     addusdbec    :      0.23s CPU      0.23s WALL (      78 calls)

     drhodvus     :      0.75s CPU     15.06s WALL (       6 calls)

      General routines
     calbec       :      1.76s CPU      1.89s WALL (    1150 calls)
     fft          :    185.71s CPU    194.02s WALL (     739 calls)
     ffts         :     14.05s CPU     14.54s WALL (     184 calls)
     fftw         :     38.74s CPU     39.58s WALL (    1309 calls)
     davcio       :      0.11s CPU     34.43s WALL (     450 calls)
     write_rec    :      0.01s CPU     15.68s WALL (      26 calls)


     PHONON       :   7m35.29s CPU  10m29.21s WALL


   This run was terminated on:  17: 3:23  20Sep2022            

=------------------------------------------------------------------------------=
   JOB DONE.
=------------------------------------------------------------------------------=
