     Message from routine get_command_line:
     unexpected argument # 4     :-in

     Program PWSCF v.6.7MaX starts on  8Jul2022 at 18:33:35 

     This program is part of the open-source Quantum ESPRESSO suite
     for quantum simulation of materials; please cite
         "P. Giannozzi et al., J. Phys.:Condens. Matter 21 395502 (2009);
         "P. Giannozzi et al., J. Phys.:Condens. Matter 29 465901 (2017);
          URL http://www.quantum-espresso.org", 
     in publications or presentations arising from this work. More details at
     http://www.quantum-espresso.org/quote

     Parallel version (MPI), running on   120 processors

     MPI processes distributed on     1 nodes
     K-points division:     npool     =       8
     R & G space division:  proc/nbgrp/npool/nimage =      15
     Waiting for input...
     Reading input from standard input
Warning: card &CELL ignored
Warning: card / ignored

     Current dimensions of program PWSCF are:
     Max number of different atomic species (ntypx) = 10
     Max number of k-points (npk) =  40000
     Max angular momentum in pseudopotentials (lmaxx) =  3

     IMPORTANT: XC functional enforced from input :
     Exchange-correlation= PBE
                           (   1   4   3   4   0   0   0)
     Any further DFT definition will be discarded
     Please, verify this is what you really want


     -------------------------------------------------
     Parameters for Dispersion (Grimme-D2) Correction:
     -------------------------------------------------
       atom      VdW radius       C_6     

        H          1.892          4.857

     Subspace diagonalization in iterative solution of the eigenvalue problem:
     one sub-group per band group will be used
     scalapack distributed-memory algorithm (size of sub-group:  3*  3 procs)


     Parallelization info
     --------------------
     sticks:   dense  smooth     PW     G-vecs:    dense   smooth      PW
     Min        3636    1818    468               639190   225950   29545
     Max        3637    1819    470               639197   225953   29547
     Sum       54553   27281   7033              9587919  3389267  443191



     bravais-lattice index     =            0
     lattice parameter (alat)  =      37.7945  a.u.
     unit-cell volume          =   53986.6760 (a.u.)^3
     number of atoms/cell      =            2
     number of atomic types    =            1
     number of electrons       =         2.00
     number of Kohn-Sham states=            5
     kinetic-energy cutoff     =      60.0000  Ry
     charge density cutoff     =     480.0000  Ry
     scf convergence threshold =      1.0E-08
     mixing beta               =       0.7000
     number of iterations used =           10  plain     mixing
     energy convergence thresh.=      7.3E-07
     force convergence thresh. =      3.9E-04
     Exchange-correlation= PBE
                           (   1   4   3   4   0   0   0)
     nstep                     =           50


     Effective Screening Medium Method
     =================================
     Boundary Conditions: Metal-Slab-Metal
     field strength                   =     0.00 Ry/a.u.
     grid points for fit at edges     =        4 


     celldm(1)=  37.794522  celldm(2)=   0.000000  celldm(3)=   0.000000
     celldm(4)=   0.000000  celldm(5)=   0.000000  celldm(6)=   0.000000

     crystal axes: (cart. coord. in units of alat)
               a(1) = (   1.000000   0.000000   0.000000 )  
               a(2) = (   0.000000   1.000000   0.000000 )  
               a(3) = (   0.000000   0.000000   1.000000 )  

     reciprocal axes: (cart. coord. in units 2 pi/alat)
               b(1) = (  1.000000  0.000000  0.000000 )  
               b(2) = (  0.000000  1.000000  0.000000 )  
               b(3) = (  0.000000  0.000000  1.000000 )  


     PseudoPot. # 1 for H  read from file:
     ../../SSSP/H.pbe-rrkjus_psl.1.0.0.UPF
     MD5 check sum: f52b6d4d1c606e5624b1dc7b2218f220
     Pseudo is Ultrasoft, Zval =  1.0
     Generated using "atomic" code by A. Dal Corso  v.5.1
     Using radial grid of  929 points,  2 beta functions with: 
                l(1) =   0
                l(2) =   0
     Q(r) pseudized with 0 coefficients 


     atomic species   valence    mass     pseudopotential
        H              1.00     1.00800     H ( 1.00)

     Starting magnetic structure 
     atomic species   magnetization
        H            0.100

     No symmetry found



   Cartesian axes

     site n.     atom                  positions (alat units)
         1           H   tau(   1) = (   0.5000000   0.5000000   0.0000000  )
         2           H   tau(   2) = (   0.5000000   0.5000000  -0.0369000  )

     number of k points=    10  Methfessel-Paxton smearing, width (Ry)=  0.0100
                       cart. coord. in units 2pi/alat
        k(    1) = (   0.0000000   0.0000000   0.0000000), wk =   0.0625000
        k(    2) = (   0.0000000   0.2500000   0.0000000), wk =   0.1250000
        k(    3) = (   0.0000000  -0.5000000   0.0000000), wk =   0.0625000
        k(    4) = (   0.2500000   0.0000000   0.0000000), wk =   0.1250000
        k(    5) = (   0.2500000   0.2500000   0.0000000), wk =   0.1250000
        k(    6) = (   0.2500000  -0.5000000   0.0000000), wk =   0.1250000
        k(    7) = (   0.2500000  -0.2500000   0.0000000), wk =   0.1250000
        k(    8) = (  -0.5000000   0.0000000   0.0000000), wk =   0.0625000
        k(    9) = (  -0.5000000   0.2500000   0.0000000), wk =   0.1250000
        k(   10) = (  -0.5000000  -0.5000000   0.0000000), wk =   0.0625000

     Dense  grid:  9587919 G-vectors     FFT dimensions: ( 270, 270, 270)

     Smooth grid:  3389267 G-vectors     FFT dimensions: ( 192, 192, 192)

     Estimated max dynamical RAM per process >     317.71 MB

     Estimated total dynamical RAM >      37.23 GB
     Generating pointlists ...
     new r_m :   0.0152 (alat units)  0.5753 (a.u.) for type    1

     Initial potential from superposition of free atoms

     starting charge    1.99998, renormalised to    2.00000

     negative rho (up, down):  2.630E-05 2.152E-05
     Starting wfcs are    2 randomized atomic wfcs +    3 random wfcs

     total cpu time spent up to now is       20.1 secs

     Self-consistent Calculation

     iteration #  1     ecut=    60.00 Ry     beta= 0.70
     CG style diagonalization
     c_bands:  2 eigenvalues not converged
     c_bands:  2 eigenvalues not converged
     c_bands:  3 eigenvalues not converged
     ethr =  1.00E-04,  avg # of iterations = 15.9

     negative rho (up, down):  5.268E-05 5.111E-05

     total cpu time spent up to now is       48.3 secs

     total energy              =      -2.32419786 Ry
     estimated scf accuracy    <       0.12007315 Ry

     total magnetization       =     0.00 Bohr mag/cell
     absolute magnetization    =     0.01 Bohr mag/cell

     iteration #  2     ecut=    60.00 Ry     beta= 0.70
     CG style diagonalization
     ethr =  6.00E-03,  avg # of iterations =  3.0

     negative rho (up, down):  5.976E-05 5.959E-05

     total cpu time spent up to now is       63.0 secs

     total energy              =      -2.33249742 Ry
     estimated scf accuracy    <       0.00142240 Ry

     total magnetization       =     0.00 Bohr mag/cell
     absolute magnetization    =     0.00 Bohr mag/cell

     iteration #  3     ecut=    60.00 Ry     beta= 0.70
     CG style diagonalization
     ethr =  7.11E-05,  avg # of iterations =  8.1

     negative rho (up, down):  6.279E-05 6.245E-05

     total cpu time spent up to now is       83.2 secs

     total energy              =      -2.33304274 Ry
     estimated scf accuracy    <       0.00005052 Ry

     total magnetization       =    -0.00 Bohr mag/cell
     absolute magnetization    =     0.00 Bohr mag/cell

     iteration #  4     ecut=    60.00 Ry     beta= 0.70
     CG style diagonalization
     c_bands:  1 eigenvalues not converged
     ethr =  2.53E-06,  avg # of iterations =  9.4

     negative rho (up, down):  6.331E-05 6.311E-05

     total cpu time spent up to now is      105.2 secs

     total energy              =      -2.33304757 Ry
     estimated scf accuracy    <       0.00000406 Ry

     total magnetization       =     0.00 Bohr mag/cell
     absolute magnetization    =     0.00 Bohr mag/cell

     iteration #  5     ecut=    60.00 Ry     beta= 0.70
     CG style diagonalization
     ethr =  2.03E-07,  avg # of iterations =  3.4

     negative rho (up, down):  6.330E-05 6.325E-05

     total cpu time spent up to now is      121.3 secs

     total energy              =      -2.33304796 Ry
     estimated scf accuracy    <       0.00000003 Ry

     total magnetization       =    -0.00 Bohr mag/cell
     absolute magnetization    =     0.00 Bohr mag/cell

     iteration #  6     ecut=    60.00 Ry     beta= 0.70
     CG style diagonalization
     ethr =  1.40E-09,  avg # of iterations =  3.2

     negative rho (up, down):  6.330E-05 6.330E-05

     Magnetic moment per site:
     atom:    1    charge:    0.2087    magn:   -0.0000    constr:    0.0000
     atom:    2    charge:    0.2078    magn:    0.0000    constr:    0.0000

     total cpu time spent up to now is      136.0 secs

     End of self-consistent calculation

 ------ SPIN UP ------------


          k = 0.0000 0.0000 0.0000 (423701 PWs)   bands (ev):

    -9.5525   0.4444   0.7693   0.8276   0.8367

          k = 0.0000 0.2500 0.0000 (423725 PWs)   bands (ev):

    -9.5525   0.4671   0.6536   0.8207   0.8504

          k = 0.0000-0.5000 0.0000 (423542 PWs)   bands (ev):

    -9.5525   0.5211   0.5549   0.8563   0.9106

          k = 0.2500 0.0000 0.0000 (423725 PWs)   bands (ev):

    -9.5525   0.4671   0.6535   0.8206   0.8508

          k = 0.2500 0.2500 0.0000 (423766 PWs)   bands (ev):

    -9.5525   0.4896   0.6643   0.6916   0.8628

          k = 0.2500-0.5000 0.0000 (423782 PWs)   bands (ev):

    -9.5525   0.5426   0.5783   0.7327   0.7662

          k = 0.2500-0.2500 0.0000 (423766 PWs)   bands (ev):

    -9.5525   0.4897   0.6643   0.6916   0.8628

          k =-0.5000 0.0000 0.0000 (423542 PWs)   bands (ev):

    -9.5525   0.5211   0.5548   0.8563   0.9110

          k =-0.5000 0.2500 0.0000 (423782 PWs)   bands (ev):

    -9.5525   0.5426   0.5782   0.7329   0.7663

          k =-0.5000-0.5000 0.0000 (423708 PWs)   bands (ev):

    -9.5525   0.5871   0.6446   0.6448   0.6529

 ------ SPIN DOWN ----------


          k = 0.0000 0.0000 0.0000 (423701 PWs)   bands (ev):

    -9.5524   0.4444   0.7693   0.8276   0.8279

          k = 0.0000 0.2500 0.0000 (423725 PWs)   bands (ev):

    -9.5524   0.4670   0.6536   0.8206   0.8505

          k = 0.0000-0.5000 0.0000 (423542 PWs)   bands (ev):

    -9.5524   0.5211   0.5549   0.8562   0.9248

          k = 0.2500 0.0000 0.0000 (423725 PWs)   bands (ev):

    -9.5524   0.4670   0.6536   0.8206   0.8505

          k = 0.2500 0.2500 0.0000 (423766 PWs)   bands (ev):

    -9.5524   0.4896   0.6643   0.6916   0.8627

          k = 0.2500-0.5000 0.0000 (423782 PWs)   bands (ev):

    -9.5524   0.5426   0.5782   0.7327   0.7663

          k = 0.2500-0.2500 0.0000 (423766 PWs)   bands (ev):

    -9.5524   0.4896   0.6643   0.6916   0.8623

          k =-0.5000 0.0000 0.0000 (423542 PWs)   bands (ev):

    -9.5524   0.5211   0.5550   0.8563   0.9109

          k =-0.5000 0.2500 0.0000 (423782 PWs)   bands (ev):

    -9.5524   0.5427   0.5782   0.7327   0.7664

          k =-0.5000-0.5000 0.0000 (423708 PWs)   bands (ev):

    -9.5524   0.5871   0.6446   0.6448   0.6529

     the Fermi energy is    -4.3138 ev

!    total energy              =      -2.33304797 Ry
     estimated scf accuracy    <          7.4E-11 Ry
     smearing contrib. (-TS)   =       0.00000000 Ry
     internal energy E=F+TS    =      -2.33304797 Ry

     The total energy is F=E-TS. E is the sum of the following terms:
     one-electron contribution =      -4.72551433 Ry
     hartree contribution      =       2.54835110 Ry
     xc contribution           =      -1.38289416 Ry
     ewald contribution        =       1.22701107 Ry
     Dispersion Correction     =      -0.00000164 Ry

     total magnetization       =     0.00 Bohr mag/cell
     absolute magnetization    =     0.00 Bohr mag/cell

     convergence has been achieved in   6 iterations

     Forces acting on atoms (cartesian axes, Ry/au):

     atom    1 type  1   force =     0.00000000   -0.00000000    0.01727598
     atom    2 type  1   force =    -0.00000000    0.00000000   -0.01727543

     Total force =     0.017275     Total SCF correction =     0.000000

     BFGS Geometry Optimization
     Energy error            =      0.0E+00
     Gradient error          =      1.7E-02

     number of scf cycles    =   1
     number of bfgs steps    =   0

     energy   new            =      -2.3330479690 Ry

     new trust radius        =       0.0172754318 bohr
     new conv_thr            =       0.0000000100 Ry


ATOMIC_POSITIONS (angstrom)
H            10.0000000000       10.0000000000        0.0000000000    0   0   0
H            10.0000000000       10.0000000002       -0.7471417648



     Writing output data file ./H2_ESM_std.save/
     NEW-OLD atomic charge density approx. for the potential

     negative rho (up, down):  6.306E-05 6.306E-05
     Generating pointlists ...

     total cpu time spent up to now is      148.9 secs

     Self-consistent Calculation

     iteration #  1     ecut=    60.00 Ry     beta= 0.70
     CG style diagonalization
     ethr =  1.00E-06,  avg # of iterations =  2.4

     negative rho (up, down):  6.275E-05 6.275E-05

     total cpu time spent up to now is      163.0 secs

     total energy              =      -2.33322930 Ry
     estimated scf accuracy    <       0.00003724 Ry

     total magnetization       =     0.00 Bohr mag/cell
     absolute magnetization    =     0.00 Bohr mag/cell

     iteration #  2     ecut=    60.00 Ry     beta= 0.70
     CG style diagonalization
     ethr =  1.86E-06,  avg # of iterations =  3.2

     negative rho (up, down):  6.277E-05 6.277E-05

     total cpu time spent up to now is      178.0 secs

     total energy              =      -2.33323389 Ry
     estimated scf accuracy    <       0.00000041 Ry

     total magnetization       =     0.00 Bohr mag/cell
     absolute magnetization    =     0.00 Bohr mag/cell

     iteration #  3     ecut=    60.00 Ry     beta= 0.70
     CG style diagonalization
     ethr =  2.05E-08,  avg # of iterations =  3.0

     negative rho (up, down):  6.281E-05 6.281E-05

     total cpu time spent up to now is      192.9 secs

     total energy              =      -2.33323393 Ry
     estimated scf accuracy    <       0.00000004 Ry

     total magnetization       =     0.00 Bohr mag/cell
     absolute magnetization    =     0.00 Bohr mag/cell

     iteration #  4     ecut=    60.00 Ry     beta= 0.70
     CG style diagonalization
     ethr =  1.77E-09,  avg # of iterations =  3.0

     negative rho (up, down):  6.281E-05 6.281E-05

     Magnetic moment per site:
     atom:    1    charge:    0.2063    magn:   -0.0000    constr:    0.0000
     atom:    2    charge:    0.2052    magn:    0.0000    constr:    0.0000

     total cpu time spent up to now is      206.1 secs

     End of self-consistent calculation

 ------ SPIN UP ------------


          k = 0.0000 0.0000 0.0000 (423701 PWs)   bands (ev):

    -9.5078   0.4440   0.7663   0.8276   0.8368

          k = 0.0000 0.2500 0.0000 (423725 PWs)   bands (ev):

    -9.5078   0.4667   0.6530   0.8184   0.8506

          k = 0.0000-0.5000 0.0000 (423542 PWs)   bands (ev):

    -9.5078   0.5202   0.5550   0.8523   0.9106

          k = 0.2500 0.0000 0.0000 (423725 PWs)   bands (ev):

    -9.5078   0.4667   0.6529   0.8184   0.8509

          k = 0.2500 0.2500 0.0000 (423766 PWs)   bands (ev):

    -9.5078   0.4891   0.6632   0.6918   0.8616

          k = 0.2500-0.5000 0.0000 (423782 PWs)   bands (ev):

    -9.5078   0.5415   0.5785   0.7317   0.7665

          k = 0.2500-0.2500 0.0000 (423766 PWs)   bands (ev):

    -9.5078   0.4891   0.6632   0.6917   0.8614

          k =-0.5000 0.0000 0.0000 (423542 PWs)   bands (ev):

    -9.5078   0.5202   0.5550   0.8523   0.9110

          k =-0.5000 0.2500 0.0000 (423782 PWs)   bands (ev):

    -9.5078   0.5415   0.5785   0.7318   0.7665

          k =-0.5000-0.5000 0.0000 (423708 PWs)   bands (ev):

    -9.5078   0.5851   0.6448   0.6449   0.6531

 ------ SPIN DOWN ----------


          k = 0.0000 0.0000 0.0000 (423701 PWs)   bands (ev):

    -9.5078   0.4440   0.7662   0.8276   0.8280

          k = 0.0000 0.2500 0.0000 (423725 PWs)   bands (ev):

    -9.5078   0.4667   0.6530   0.8184   0.8506

          k = 0.0000-0.5000 0.0000 (423542 PWs)   bands (ev):

    -9.5078   0.5202   0.5551   0.8525   0.9248

          k = 0.2500 0.0000 0.0000 (423725 PWs)   bands (ev):

    -9.5078   0.4667   0.6530   0.8184   0.8506

          k = 0.2500 0.2500 0.0000 (423766 PWs)   bands (ev):

    -9.5078   0.4891   0.6632   0.6918   0.8615

          k = 0.2500-0.5000 0.0000 (423782 PWs)   bands (ev):

    -9.5078   0.5415   0.5785   0.7318   0.7665

          k = 0.2500-0.2500 0.0000 (423766 PWs)   bands (ev):

    -9.5078   0.4891   0.6632   0.6918   0.8612

          k =-0.5000 0.0000 0.0000 (423542 PWs)   bands (ev):

    -9.5078   0.5202   0.5551   0.8524   0.9109

          k =-0.5000 0.2500 0.0000 (423782 PWs)   bands (ev):

    -9.5078   0.5415   0.5784   0.7318   0.7665

          k =-0.5000-0.5000 0.0000 (423708 PWs)   bands (ev):

    -9.5078   0.5851   0.6448   0.6449   0.6532

     the Fermi energy is    -4.2915 ev

!    total energy              =      -2.33323393 Ry
     estimated scf accuracy    <          1.1E-09 Ry
     smearing contrib. (-TS)   =       0.00000000 Ry
     internal energy E=F+TS    =      -2.33323393 Ry

     The total energy is F=E-TS. E is the sum of the following terms:
     one-electron contribution =      -4.70138628 Ry
     hartree contribution      =       2.53584690 Ry
     xc contribution           =      -1.37708100 Ry
     ewald contribution        =       1.20938812 Ry
     Dispersion Correction     =      -0.00000167 Ry

     total magnetization       =     0.00 Bohr mag/cell
     absolute magnetization    =     0.00 Bohr mag/cell

     convergence has been achieved in   4 iterations

     Forces acting on atoms (cartesian axes, Ry/au):

     atom    1 type  1   force =     0.00000000   -0.00000000    0.00438935
     atom    2 type  1   force =    -0.00000000    0.00000000   -0.00438004

     Total force =     0.004380     Total SCF correction =     0.000008
     Energy error            =      1.9E-04
     Gradient error          =      4.4E-03

     number of scf cycles    =   2
     number of bfgs steps    =   1

     energy   old            =      -2.3330479690 Ry
     energy   new            =      -2.3332339289 Ry

     CASE: energy  _new < energy  _old

     new trust radius        =       0.0058677667 bohr
     new conv_thr            =       0.0000000011 Ry


ATOMIC_POSITIONS (angstrom)
H            10.0000000000       10.0000000000        0.0000000000    0   0   0
H            10.0000000000       10.0000000002       -0.7502468532



     Writing output data file ./H2_ESM_std.save/
     NEW-OLD atomic charge density approx. for the potential

     negative rho (up, down):  6.278E-05 6.278E-05
     Generating pointlists ...

     total cpu time spent up to now is      218.7 secs

     Self-consistent Calculation

     iteration #  1     ecut=    60.00 Ry     beta= 0.70
     CG style diagonalization
     ethr =  1.00E-06,  avg # of iterations =  2.2

     negative rho (up, down):  6.269E-05 6.269E-05

     total cpu time spent up to now is      232.7 secs

     total energy              =      -2.33324677 Ry
     estimated scf accuracy    <       0.00000403 Ry

     total magnetization       =    -0.00 Bohr mag/cell
     absolute magnetization    =     0.00 Bohr mag/cell

     iteration #  2     ecut=    60.00 Ry     beta= 0.70
     CG style diagonalization
     ethr =  2.02E-07,  avg # of iterations =  3.2

     negative rho (up, down):  6.266E-05 6.266E-05

     total cpu time spent up to now is      247.5 secs

     total energy              =      -2.33324723 Ry
     estimated scf accuracy    <       0.00000004 Ry

     total magnetization       =     0.00 Bohr mag/cell
     absolute magnetization    =     0.00 Bohr mag/cell

     iteration #  3     ecut=    60.00 Ry     beta= 0.70
     CG style diagonalization
     ethr =  1.86E-09,  avg # of iterations =  3.0

     negative rho (up, down):  6.267E-05 6.267E-05

     total cpu time spent up to now is      262.4 secs

     total energy              =      -2.33324724 Ry
     estimated scf accuracy    <          3.1E-09 Ry

     total magnetization       =    -0.00 Bohr mag/cell
     absolute magnetization    =     0.00 Bohr mag/cell

     iteration #  4     ecut=    60.00 Ry     beta= 0.70
     CG style diagonalization
     ethr =  1.57E-10,  avg # of iterations =  3.0

     negative rho (up, down):  6.267E-05 6.267E-05

     Magnetic moment per site:
     atom:    1    charge:    0.2055    magn:   -0.0000    constr:    0.0000
     atom:    2    charge:    0.2043    magn:    0.0000    constr:    0.0000

     total cpu time spent up to now is      275.7 secs

     End of self-consistent calculation

 ------ SPIN UP ------------


          k = 0.0000 0.0000 0.0000 (423701 PWs)   bands (ev):

    -9.4927   0.4439   0.7653   0.8276   0.8368

          k = 0.0000 0.2500 0.0000 (423725 PWs)   bands (ev):

    -9.4927   0.4665   0.6528   0.8176   0.8506

          k = 0.0000-0.5000 0.0000 (423542 PWs)   bands (ev):

    -9.4927   0.5199   0.5551   0.8509   0.9105

          k = 0.2500 0.0000 0.0000 (423725 PWs)   bands (ev):

    -9.4927   0.4665   0.6527   0.8176   0.8509

          k = 0.2500 0.2500 0.0000 (423766 PWs)   bands (ev):

    -9.4927   0.4890   0.6628   0.6919   0.8611

          k = 0.2500-0.5000 0.0000 (423782 PWs)   bands (ev):

    -9.4927   0.5411   0.5785   0.7314   0.7665

          k = 0.2500-0.2500 0.0000 (423766 PWs)   bands (ev):

    -9.4927   0.4890   0.6628   0.6918   0.8609

          k =-0.5000 0.0000 0.0000 (423542 PWs)   bands (ev):

    -9.4927   0.5198   0.5551   0.8509   0.9110

          k =-0.5000 0.2500 0.0000 (423782 PWs)   bands (ev):

    -9.4927   0.5411   0.5785   0.7315   0.7665

          k =-0.5000-0.5000 0.0000 (423708 PWs)   bands (ev):

    -9.4927   0.5844   0.6449   0.6450   0.6532

 ------ SPIN DOWN ----------


          k = 0.0000 0.0000 0.0000 (423701 PWs)   bands (ev):

    -9.4927   0.4439   0.7651   0.8276   0.8281

          k = 0.0000 0.2500 0.0000 (423725 PWs)   bands (ev):

    -9.4927   0.4665   0.6528   0.8176   0.8506

          k = 0.0000-0.5000 0.0000 (423542 PWs)   bands (ev):

    -9.4927   0.5199   0.5551   0.8512   0.9248

          k = 0.2500 0.0000 0.0000 (423725 PWs)   bands (ev):

    -9.4927   0.4665   0.6528   0.8176   0.8507

          k = 0.2500 0.2500 0.0000 (423766 PWs)   bands (ev):

    -9.4927   0.4890   0.6628   0.6918   0.8610

          k = 0.2500-0.5000 0.0000 (423782 PWs)   bands (ev):

    -9.4927   0.5411   0.5785   0.7314   0.7666

          k = 0.2500-0.2500 0.0000 (423766 PWs)   bands (ev):

    -9.4927   0.4890   0.6628   0.6918   0.8609

          k =-0.5000 0.0000 0.0000 (423542 PWs)   bands (ev):

    -9.4927   0.5199   0.5551   0.8510   0.9109

          k =-0.5000 0.2500 0.0000 (423782 PWs)   bands (ev):

    -9.4927   0.5411   0.5785   0.7314   0.7666

          k =-0.5000-0.5000 0.0000 (423708 PWs)   bands (ev):

    -9.4927   0.5844   0.6449   0.6450   0.6532

     the Fermi energy is    -4.2840 ev

!    total energy              =      -2.33324724 Ry
     estimated scf accuracy    <          2.0E-11 Ry
     smearing contrib. (-TS)   =       0.00000000 Ry
     internal energy E=F+TS    =      -2.33324724 Ry

     The total energy is F=E-TS. E is the sum of the following terms:
     one-electron contribution =      -4.69325154 Ry
     hartree contribution      =       2.53162888 Ry
     xc contribution           =      -1.37512246 Ry
     ewald contribution        =       1.20349955 Ry
     Dispersion Correction     =      -0.00000168 Ry

     total magnetization       =    -0.00 Bohr mag/cell
     absolute magnetization    =     0.00 Bohr mag/cell

     convergence has been achieved in   4 iterations

     Forces acting on atoms (cartesian axes, Ry/au):

     atom    1 type  1   force =    -0.00000000    0.00000000    0.00017309
     atom    2 type  1   force =     0.00000000   -0.00000000   -0.00017667

     Total force =     0.000177     Total SCF correction =     0.000001
     Energy error            =      1.3E-05
     Gradient error          =      1.8E-04

     number of scf cycles    =   3
     number of bfgs steps    =   2

     energy   old            =      -2.3332339289 Ry
     energy   new            =      -2.3332472409 Ry

     CASE: energy  _new < energy  _old

     new trust radius        =       0.0002466281 bohr
     new conv_thr            =            1.0E-10 Ry


ATOMIC_POSITIONS (angstrom)
H            10.0000000000       10.0000000000        0.0000000000    0   0   0
H            10.0000000000       10.0000000002       -0.7503773632



     Writing output data file ./H2_ESM_std.save/
     NEW-OLD atomic charge density approx. for the potential

     negative rho (up, down):  6.266E-05 6.266E-05
     Generating pointlists ...

     total cpu time spent up to now is      289.2 secs

     Self-consistent Calculation

     iteration #  1     ecut=    60.00 Ry     beta= 0.70
     CG style diagonalization
     ethr =  1.00E-06,  avg # of iterations =  2.0

     Threshold (ethr) on eigenvalues was too large:
     Diagonalizing with lowered threshold

     CG style diagonalization
     ethr =  1.71E-10,  avg # of iterations =  2.2

     negative rho (up, down):  6.266E-05 6.266E-05

     total cpu time spent up to now is      307.1 secs

     total energy              =      -2.33324726 Ry
     estimated scf accuracy    <          7.1E-09 Ry

     total magnetization       =    -0.00 Bohr mag/cell
     absolute magnetization    =     0.00 Bohr mag/cell

     iteration #  2     ecut=    60.00 Ry     beta= 0.70
     CG style diagonalization
     ethr =  3.55E-10,  avg # of iterations =  3.2

     negative rho (up, down):  6.266E-05 6.266E-05

     Magnetic moment per site:
     atom:    1    charge:    0.2054    magn:   -0.0000    constr:    0.0000
     atom:    2    charge:    0.2043    magn:    0.0000    constr:    0.0000

     total cpu time spent up to now is      320.2 secs

     End of self-consistent calculation

 ------ SPIN UP ------------


          k = 0.0000 0.0000 0.0000 (423701 PWs)   bands (ev):

    -9.4920   0.4439   0.7652   0.8275   0.8368

          k = 0.0000 0.2500 0.0000 (423725 PWs)   bands (ev):

    -9.4920   0.4665   0.6528   0.8176   0.8506

          k = 0.0000-0.5000 0.0000 (423542 PWs)   bands (ev):

    -9.4920   0.5198   0.5551   0.8508   0.9105

          k = 0.2500 0.0000 0.0000 (423725 PWs)   bands (ev):

    -9.4920   0.4665   0.6527   0.8175   0.8509

          k = 0.2500 0.2500 0.0000 (423766 PWs)   bands (ev):

    -9.4920   0.4889   0.6628   0.6919   0.8611

          k = 0.2500-0.5000 0.0000 (423782 PWs)   bands (ev):

    -9.4920   0.5411   0.5785   0.7314   0.7665

          k = 0.2500-0.2500 0.0000 (423766 PWs)   bands (ev):

    -9.4920   0.4889   0.6628   0.6918   0.8609

          k =-0.5000 0.0000 0.0000 (423542 PWs)   bands (ev):

    -9.4920   0.5198   0.5551   0.8508   0.9109

          k =-0.5000 0.2500 0.0000 (423782 PWs)   bands (ev):

    -9.4920   0.5411   0.5785   0.7314   0.7665

          k =-0.5000-0.5000 0.0000 (423708 PWs)   bands (ev):

    -9.4920   0.5843   0.6449   0.6449   0.6532

 ------ SPIN DOWN ----------


          k = 0.0000 0.0000 0.0000 (423701 PWs)   bands (ev):

    -9.4920   0.4439   0.7651   0.8276   0.8280

          k = 0.0000 0.2500 0.0000 (423725 PWs)   bands (ev):

    -9.4920   0.4665   0.6527   0.8176   0.8506

          k = 0.0000-0.5000 0.0000 (423542 PWs)   bands (ev):

    -9.4920   0.5198   0.5551   0.8510   0.9247

          k = 0.2500 0.0000 0.0000 (423725 PWs)   bands (ev):

    -9.4920   0.4665   0.6527   0.8176   0.8506

          k = 0.2500 0.2500 0.0000 (423766 PWs)   bands (ev):

    -9.4920   0.4889   0.6628   0.6918   0.8610

          k = 0.2500-0.5000 0.0000 (423782 PWs)   bands (ev):

    -9.4920   0.5411   0.5785   0.7314   0.7666

          k = 0.2500-0.2500 0.0000 (423766 PWs)   bands (ev):

    -9.4920   0.4889   0.6628   0.6918   0.8608

          k =-0.5000 0.0000 0.0000 (423542 PWs)   bands (ev):

    -9.4920   0.5198   0.5551   0.8509   0.9109

          k =-0.5000 0.2500 0.0000 (423782 PWs)   bands (ev):

    -9.4920   0.5411   0.5785   0.7314   0.7666

          k =-0.5000-0.5000 0.0000 (423708 PWs)   bands (ev):

    -9.4920   0.5843   0.6449   0.6450   0.6532

     the Fermi energy is    -4.2837 ev

!    total energy              =      -2.33324726 Ry
     estimated scf accuracy    <          8.2E-11 Ry
     smearing contrib. (-TS)   =       0.00000000 Ry
     internal energy E=F+TS    =      -2.33324726 Ry

     The total energy is F=E-TS. E is the sum of the following terms:
     one-electron contribution =      -4.69291060 Ry
     hartree contribution      =       2.53145252 Ry
     xc contribution           =      -1.37504061 Ry
     ewald contribution        =       1.20325311 Ry
     Dispersion Correction     =      -0.00000168 Ry

     total magnetization       =    -0.00 Bohr mag/cell
     absolute magnetization    =     0.00 Bohr mag/cell

     convergence has been achieved in   2 iterations

     Forces acting on atoms (cartesian axes, Ry/au):

     atom    1 type  1   force =     0.00000000   -0.00000000   -0.00000162
     atom    2 type  1   force =    -0.00000000    0.00000000    0.00000125

     Total force =     0.000001     Total SCF correction =     0.000000
     SCF correction compared to forces is large: reduce conv_thr to get better values
     Energy error            =      2.0E-08
     Gradient error          =      1.2E-06
Begin final coordinates

ATOMIC_POSITIONS (angstrom)
H            10.0000000000       10.0000000000        0.0000000000    0   0   0
H            10.0000000000       10.0000000002       -0.7503773632
End final coordinates



     Writing output data file ./H2_ESM_std.save/

     lsda relaxation :  a final configuration with zero
                        absolute magnetization has been found

     the program is checking if it is really the minimum energy structure
     by performing a new scf iteration without any "electronic" history

     Initial potential from superposition of free atoms

     starting charge    1.99998, renormalised to    2.00000

     negative rho (up, down):  2.643E-05 2.162E-05

     total cpu time spent up to now is      332.0 secs

     Self-consistent Calculation

     iteration #  1     ecut=    60.00 Ry     beta= 0.70
     CG style diagonalization
     c_bands:  2 eigenvalues not converged
     c_bands:  2 eigenvalues not converged
     c_bands:  2 eigenvalues not converged
     ethr =  1.00E-06,  avg # of iterations = 13.8

     negative rho (up, down):  5.234E-05 5.078E-05

     total cpu time spent up to now is      358.1 secs

     total energy              =      -2.32477464 Ry
     estimated scf accuracy    <       0.11557657 Ry

     total magnetization       =    -0.00 Bohr mag/cell
     absolute magnetization    =     0.01 Bohr mag/cell

     iteration #  2     ecut=    60.00 Ry     beta= 0.70
     CG style diagonalization
     ethr =  5.78E-03,  avg # of iterations =  3.0

     negative rho (up, down):  5.958E-05 5.924E-05

     total cpu time spent up to now is      372.8 secs

     total energy              =      -2.33272542 Ry
     estimated scf accuracy    <       0.00135073 Ry

     total magnetization       =     0.00 Bohr mag/cell
     absolute magnetization    =     0.00 Bohr mag/cell

     iteration #  3     ecut=    60.00 Ry     beta= 0.70
     CG style diagonalization
     ethr =  6.75E-05,  avg # of iterations =  8.0

     negative rho (up, down):  6.215E-05 6.181E-05

     total cpu time spent up to now is      393.2 secs

     total energy              =      -2.33324296 Ry
     estimated scf accuracy    <       0.00004363 Ry

     total magnetization       =    -0.00 Bohr mag/cell
     absolute magnetization    =     0.00 Bohr mag/cell

     iteration #  4     ecut=    60.00 Ry     beta= 0.70
     CG style diagonalization
     c_bands:  1 eigenvalues not converged
     ethr =  2.18E-06,  avg # of iterations =  8.8

     negative rho (up, down):  6.263E-05 6.246E-05

     total cpu time spent up to now is      414.2 secs

     total energy              =      -2.33324696 Ry
     estimated scf accuracy    <       0.00000313 Ry

     total magnetization       =     0.00 Bohr mag/cell
     absolute magnetization    =     0.00 Bohr mag/cell

     iteration #  5     ecut=    60.00 Ry     beta= 0.70
     CG style diagonalization
     ethr =  1.56E-07,  avg # of iterations =  3.5

     negative rho (up, down):  6.263E-05 6.260E-05

     total cpu time spent up to now is      430.4 secs

     total energy              =      -2.33324725 Ry
     estimated scf accuracy    <       0.00000003 Ry

     total magnetization       =    -0.00 Bohr mag/cell
     absolute magnetization    =     0.00 Bohr mag/cell

     iteration #  6     ecut=    60.00 Ry     beta= 0.70
     CG style diagonalization
     ethr =  1.53E-09,  avg # of iterations =  3.3

     negative rho (up, down):  6.266E-05 6.264E-05

     total cpu time spent up to now is      446.2 secs

     total energy              =      -2.33324726 Ry
     estimated scf accuracy    <          5.8E-10 Ry

     total magnetization       =     0.00 Bohr mag/cell
     absolute magnetization    =     0.00 Bohr mag/cell

     iteration #  7     ecut=    60.00 Ry     beta= 0.70
     CG style diagonalization
     ethr =  2.88E-11,  avg # of iterations =  3.0

     negative rho (up, down):  6.266E-05 6.266E-05

     Magnetic moment per site:
     atom:    1    charge:    0.2054    magn:   -0.0000    constr:    0.0000
     atom:    2    charge:    0.2043    magn:    0.0000    constr:    0.0000

     total cpu time spent up to now is      459.7 secs

     End of self-consistent calculation

 ------ SPIN UP ------------


          k = 0.0000 0.0000 0.0000 (423701 PWs)   bands (ev):

    -9.4920   0.4440   0.7653   0.8274   0.8378

          k = 0.0000 0.2500 0.0000 (423725 PWs)   bands (ev):

    -9.4920   0.4665   0.6528   0.8179   0.8509

          k = 0.0000-0.5000 0.0000 (423542 PWs)   bands (ev):

    -9.4920   0.5199   0.5552   0.8509   0.9108

          k = 0.2500 0.0000 0.0000 (423725 PWs)   bands (ev):

    -9.4920   0.4665   0.6528   0.8181   0.8508

          k = 0.2500 0.2500 0.0000 (423766 PWs)   bands (ev):

    -9.4920   0.4890   0.6628   0.6918   0.8610

          k = 0.2500-0.5000 0.0000 (423782 PWs)   bands (ev):

    -9.4920   0.5412   0.5786   0.7314   0.7666

          k = 0.2500-0.2500 0.0000 (423766 PWs)   bands (ev):

    -9.4920   0.4890   0.6628   0.6918   0.8610

          k =-0.5000 0.0000 0.0000 (423542 PWs)   bands (ev):

    -9.4920   0.5199   0.5551   0.8509   0.9103

          k =-0.5000 0.2500 0.0000 (423782 PWs)   bands (ev):

    -9.4920   0.5412   0.5786   0.7314   0.7666

          k =-0.5000-0.5000 0.0000 (423708 PWs)   bands (ev):

    -9.4920   0.5844   0.6449   0.6449   0.6532

 ------ SPIN DOWN ----------


          k = 0.0000 0.0000 0.0000 (423701 PWs)   bands (ev):

    -9.4920   0.4439   0.7651   0.8274   0.8277

          k = 0.0000 0.2500 0.0000 (423725 PWs)   bands (ev):

    -9.4920   0.4666   0.6528   0.8177   0.8508

          k = 0.0000-0.5000 0.0000 (423542 PWs)   bands (ev):

    -9.4920   0.5199   0.5551   0.8508   0.9130

          k = 0.2500 0.0000 0.0000 (423725 PWs)   bands (ev):

    -9.4920   0.4666   0.6528   0.8177   0.8511

          k = 0.2500 0.2500 0.0000 (423766 PWs)   bands (ev):

    -9.4920   0.4890   0.6630   0.6918   0.8612

          k = 0.2500-0.5000 0.0000 (423782 PWs)   bands (ev):

    -9.4920   0.5412   0.5786   0.7314   0.7666

          k = 0.2500-0.2500 0.0000 (423766 PWs)   bands (ev):

    -9.4920   0.4890   0.6630   0.6918   0.8612

          k =-0.5000 0.0000 0.0000 (423542 PWs)   bands (ev):

    -9.4920   0.5199   0.5551   0.8507   0.9103

          k =-0.5000 0.2500 0.0000 (423782 PWs)   bands (ev):

    -9.4920   0.5411   0.5786   0.7314   0.7667

          k =-0.5000-0.5000 0.0000 (423708 PWs)   bands (ev):

    -9.4920   0.5844   0.6450   0.6450   0.6532

     the Fermi energy is    -4.2895 ev

!    total energy              =      -2.33324726 Ry
     estimated scf accuracy    <          5.0E-11 Ry
     smearing contrib. (-TS)   =       0.00000000 Ry
     internal energy E=F+TS    =      -2.33324726 Ry

     The total energy is F=E-TS. E is the sum of the following terms:
     one-electron contribution =      -4.69290956 Ry
     hartree contribution      =       2.53145034 Ry
     xc contribution           =      -1.37503948 Ry
     ewald contribution        =       1.20325311 Ry
     Dispersion Correction     =      -0.00000168 Ry

     total magnetization       =     0.00 Bohr mag/cell
     absolute magnetization    =     0.00 Bohr mag/cell

     convergence has been achieved in   7 iterations

     Forces acting on atoms (cartesian axes, Ry/au):

     atom    1 type  1   force =    -0.00000000   -0.00000000   -0.00000019
     atom    2 type  1   force =     0.00000000    0.00000000   -0.00000092

     Total force =     0.000001     Total SCF correction =     0.000002
     SCF correction compared to forces is large: reduce conv_thr to get better values
     Energy error            =      2.0E-08
     Gradient error          =      9.2E-07

     bfgs converged in   4 scf cycles and   3 bfgs steps
     (criteria: energy <  7.3E-07 Ry, force <  3.9E-04 Ry/Bohr)

     End of BFGS Geometry Optimization

     Final energy   =      -2.3332472612 Ry

     File ./H2_ESM_std.bfgs deleted, as requested
Begin final coordinates

ATOMIC_POSITIONS (angstrom)
H            10.0000000000       10.0000000000        0.0000000000    0   0   0
H            10.0000000000       10.0000000002       -0.7503773632
End final coordinates



     Writing output data file ./H2_ESM_std.save/

     init_run     :     18.41s CPU     19.92s WALL (       1 calls)
     electrons    :    360.44s CPU    395.59s WALL (       5 calls)
     update_pot   :     20.12s CPU     22.12s WALL (       3 calls)
     forces       :     10.20s CPU     10.47s WALL (       5 calls)

     Called by init_run:
     wfcinit      :      0.93s CPU      1.00s WALL (       1 calls)
     potinit      :     14.01s CPU     15.67s WALL (       2 calls)
     hinit0       :      0.89s CPU      1.04s WALL (       1 calls)

     Called by electrons:
     c_bands      :    121.88s CPU    123.87s WALL (      24 calls)
     sum_band     :     40.22s CPU     41.07s WALL (      24 calls)
     v_of_rho     :    158.33s CPU    181.25s WALL (      28 calls)
     newd         :     19.18s CPU     19.69s WALL (      28 calls)
     mix_rho      :     23.65s CPU     29.54s WALL (      24 calls)

     Called by c_bands:
     init_us_2    :      0.27s CPU      0.29s WALL (     162 calls)
     ccgdiagg     :     98.57s CPU     99.75s WALL (      72 calls)
     wfcrot       :     18.80s CPU     19.11s WALL (      57 calls)

     Called by *cgdiagg:
     h_psi        :    110.82s CPU    112.14s WALL (    1591 calls)
     s_psi        :      0.53s CPU      0.54s WALL (    3125 calls)

     Called by h_psi:
     h_psi:calbec :      2.22s CPU      2.25s WALL (    1591 calls)
     vloc_psi     :    106.81s CPU    108.07s WALL (    1591 calls)
     add_vuspsi   :      1.31s CPU      1.34s WALL (    1591 calls)
     hs_1psi      :     93.31s CPU     94.41s WALL (    1534 calls)
     s_1psi       :      1.19s CPU      1.20s WALL (    1534 calls)

     General routines
     calbec       :      3.25s CPU      3.31s WALL (    3257 calls)
     fft          :    165.36s CPU    170.52s WALL (     689 calls)
     ffts         :      8.93s CPU      9.02s WALL (     104 calls)
     fftw         :     97.58s CPU     98.68s WALL (    3998 calls)
     interpolate  :     19.53s CPU     21.14s WALL (      56 calls)
     davcio       :      0.06s CPU      2.51s WALL (     361 calls)

     Parallel routines
     fft_scatt_xy :     37.98s CPU     38.54s WALL (    4791 calls)
     fft_scatt_yz :    115.40s CPU    116.91s WALL (    4791 calls)

     PWSCF        :   7m 4.18s CPU   7m44.75s WALL


   This run was terminated on:  18:41:20   8Jul2022            

=------------------------------------------------------------------------------=
   JOB DONE.
=------------------------------------------------------------------------------=
