
     Program PHONON v.6.4.1 starts on 20Sep2022 at 23:23:28 

     This program is part of the open-source Quantum ESPRESSO suite
     for quantum simulation of materials; please cite
         "P. Giannozzi et al., J. Phys.:Condens. Matter 21 395502 (2009);
         "P. Giannozzi et al., J. Phys.:Condens. Matter 29 465901 (2017);
          URL http://www.quantum-espresso.org", 
     in publications or presentations arising from this work. More details at
     http://www.quantum-espresso.org/quote

     Parallel version (MPI), running on   120 processors

     MPI processes distributed on     6 nodes
     K-points division:     npool     =       8
     R & G space division:  proc/nbgrp/npool/nimage =      15

     Reading data from directory:
     ./NH3.save/

     IMPORTANT: XC functional enforced from input :
     Exchange-correlation      = PBE ( 1  4  3  4 0 0)
     Any further DFT definition will be discarded
     Please, verify this is what you really want


     Parallelization info
     --------------------
     sticks:   dense  smooth     PW     G-vecs:    dense   smooth      PW
     Min        3636    1818    468               639190   225950   29545
     Max        3637    1819    470               639197   225953   29547
     Sum       54553   27281   7033              9587919  3389267  443191

     Generating pointlists ...
     new r_m :   0.0211 (alat units)  0.7958 (a.u.) for type    1
     new r_m :   0.0211 (alat units)  0.7958 (a.u.) for type    2

     negative rho (up, down):  4.035E-04 0.000E+00

     Calculation of q =    0.0000000   0.0000000   0.0000000

     phonons (vibrational modes) for NH3                                        

     bravais-lattice index     =            0
     lattice parameter (alat)  =      37.7945  a.u.
     unit-cell volume          =   53986.6767 (a.u.)^3
     number of atoms/cell      =            4
     number of atomic types    =            2
     kinetic-energy cut-off    =      60.0000  Ry
     charge density cut-off    =     480.0000  Ry
     convergence threshold     =      1.0E-12
     beta                      =       0.7000
     number of iterations used =            4
     Exchange-correlation      = PBE ( 1  4  3  4 0 0)


     celldm(1)=   37.79452  celldm(2)=    0.00000  celldm(3)=    0.00000
     celldm(4)=    0.00000  celldm(5)=    0.00000  celldm(6)=    0.00000

     crystal axes: (cart. coord. in units of alat)
               a(1) = (  1.0000  0.0000  0.0000 )  
               a(2) = (  0.0000  1.0000  0.0000 )  
               a(3) = (  0.0000  0.0000  1.0000 )  

     reciprocal axes: (cart. coord. in units 2 pi/alat)
               b(1) = (  1.0000  0.0000  0.0000 )  
               b(2) = (  0.0000  1.0000  0.0000 )  
               b(3) = (  0.0000  0.0000  1.0000 )  


     Atoms inside the unit cell: 

     Cartesian axes

     site n.  atom      mass           positions (alat units)
        1     N   14.0067   tau(    1) = (    0.50000    0.50000    0.50582  )
        2     H    1.0078   tau(    2) = (    0.50000    0.54727    0.48657  )
        3     H    1.0078   tau(    3) = (    0.54094    0.47636    0.48657  )
        4     H    1.0078   tau(    4) = (    0.45906    0.47636    0.48657  )

     Computing dynamical matrix for 
                    q = (   0.0000000   0.0000000   0.0000000 )

      2 Sym.Ops. (with q -> -q+G )


     G cutoff =17367.5769  ( 639197 G-vectors)     FFT grid: (270,270,270)
     G cutoff = 8683.7884  ( 225950 G-vectors)  smooth grid: (192,192,192)

     number of k points=    20  mp smearing, width (Ry)=  0.0100
                       cart. coord. in units 2pi/alat
        k(    1) = (   0.0000000   0.0000000   0.0000000), wk =   0.0625000
        k(    2) = (   0.0000000   0.2500000   0.0000000), wk =   0.1250000
        k(    3) = (   0.0000000  -0.5000000   0.0000000), wk =   0.0625000
        k(    4) = (   0.2500000   0.0000000   0.0000000), wk =   0.1250000
        k(    5) = (   0.2500000   0.2500000   0.0000000), wk =   0.1250000
        k(    6) = (   0.2500000  -0.5000000   0.0000000), wk =   0.1250000
        k(    7) = (   0.2500000  -0.2500000   0.0000000), wk =   0.1250000
        k(    8) = (  -0.5000000   0.0000000   0.0000000), wk =   0.0625000
        k(    9) = (  -0.5000000   0.2500000   0.0000000), wk =   0.1250000
        k(   10) = (  -0.5000000  -0.5000000   0.0000000), wk =   0.0625000
        k(   11) = (   0.0000000   0.0000000   0.0000000), wk =   0.0625000
        k(   12) = (   0.0000000   0.2500000   0.0000000), wk =   0.1250000
        k(   13) = (   0.0000000  -0.5000000   0.0000000), wk =   0.0625000
        k(   14) = (   0.2500000   0.0000000   0.0000000), wk =   0.1250000
        k(   15) = (   0.2500000   0.2500000   0.0000000), wk =   0.1250000
        k(   16) = (   0.2500000  -0.5000000   0.0000000), wk =   0.1250000
        k(   17) = (   0.2500000  -0.2500000   0.0000000), wk =   0.1250000
        k(   18) = (  -0.5000000   0.0000000   0.0000000), wk =   0.0625000
        k(   19) = (  -0.5000000   0.2500000   0.0000000), wk =   0.1250000
        k(   20) = (  -0.5000000  -0.5000000   0.0000000), wk =   0.0625000

     PseudoPot. # 1 for N  read from file:
     ../../SSSP/N.pbe-n-radius_5.UPF
     MD5 check sum: 16739722b17309cd8fe442a2ace49922
     Pseudo is Ultrasoft + core correction, Zval =  5.0
     Generated using "atomic" code by A. Dal Corso v.5.1
     Using radial grid of 1085 points,  4 beta functions with: 
                l(1) =   0
                l(2) =   0
                l(3) =   1
                l(4) =   1
     Q(r) pseudized with 0 coefficients 


     PseudoPot. # 2 for H  read from file:
     ../../SSSP/H.pbe-rrkjus_psl.1.0.0.UPF
     MD5 check sum: f52b6d4d1c606e5624b1dc7b2218f220
     Pseudo is Ultrasoft, Zval =  1.0
     Generated using "atomic" code by A. Dal Corso v.5.1
     Using radial grid of  929 points,  2 beta functions with: 
                l(1) =   0
                l(2) =   0
     Q(r) pseudized with 0 coefficients 


     Mode symmetry, C_1 (1)     point group:


     Atomic displacements:
     There are  12 irreducible representations

     Representation     1      1 modes -A  To be done

     Representation     2      1 modes -A  To be done

     Representation     3      1 modes -A  To be done

     Representation     4      1 modes -A  To be done

     Representation     5      1 modes -A  To be done

     Representation     6      1 modes -A  To be done

     Representation     7      1 modes -A  To be done

     Representation     8      1 modes -A  To be done

     Representation     9      1 modes -A  To be done

     Representation    10      1 modes -A  To be done

     Representation    11      1 modes -A  To be done

     Representation    12      1 modes -A  To be done



     Alpha used in Ewald sum =   2.8000

     -------------------------------------------------
     Parameters for Dispersion (Grimme-D2) Correction:
     -------------------------------------------------
       atom      VdW radius       C_6     

        N          2.640         42.670
        H          1.892          4.857

     negative rho (up, down):  4.035E-04 0.000E+00
     PHONON       :   3m 7.29s CPU   3m17.41s WALL



     Representation #  1 mode #   1

     Self-consistent Calculation

     Pert. #  1: Fermi energy shift (Ry) =     5.1238E+26     0.0000E+00

      iter #   1 total cpu time :   231.9 secs   av.it.:   7.0
      thresh= 1.000E-02 alpha_mix =  0.700 |ddv_scf|^2 =  7.523E-09

     Pert. #  1: Fermi energy shift (Ry) =     3.0151E+23     0.0000E+00

      iter #   2 total cpu time :   268.9 secs   av.it.:  14.9
      thresh= 8.674E-06 alpha_mix =  0.700 |ddv_scf|^2 =  2.669E-09

     Pert. #  1: Fermi energy shift (Ry) =     2.6365E+23     0.0000E+00

      iter #   3 total cpu time :   306.1 secs   av.it.:  15.0
      thresh= 5.166E-06 alpha_mix =  0.700 |ddv_scf|^2 =  1.989E-09

     Pert. #  1: Fermi energy shift (Ry) =     1.5198E+23     0.0000E+00

      iter #   4 total cpu time :   341.4 secs   av.it.:  14.8
      thresh= 4.459E-06 alpha_mix =  0.700 |ddv_scf|^2 =  1.713E-14

     End of self-consistent calculation

     Convergence has been achieved 


     Representation #  2 mode #   2

     Self-consistent Calculation

     Pert. #  1: Fermi energy shift (Ry) =    -1.2862E+28     0.0000E+00

      iter #   1 total cpu time :   388.2 secs   av.it.:   7.0
      thresh= 1.000E-02 alpha_mix =  0.700 |ddv_scf|^2 =  4.427E-08

     Pert. #  1: Fermi energy shift (Ry) =    -8.2352E+24     0.0000E+00

      iter #   2 total cpu time :   423.6 secs   av.it.:  13.6
      thresh= 2.104E-05 alpha_mix =  0.700 |ddv_scf|^2 =  1.000E-08

     Pert. #  1: Fermi energy shift (Ry) =     1.3955E+24     0.0000E+00

      iter #   3 total cpu time :   459.8 secs   av.it.:  14.2
      thresh= 1.000E-05 alpha_mix =  0.700 |ddv_scf|^2 =  2.444E-09

     Pert. #  1: Fermi energy shift (Ry) =    -3.7901E+23     0.0000E+00

      iter #   4 total cpu time :   494.7 secs   av.it.:  14.2
      thresh= 4.944E-06 alpha_mix =  0.700 |ddv_scf|^2 =  2.642E-14

     End of self-consistent calculation

     Convergence has been achieved 


     Representation #  3 mode #   3

     Self-consistent Calculation

     Pert. #  1: Fermi energy shift (Ry) =    -1.2770E+28     0.0000E+00

      iter #   1 total cpu time :   540.6 secs   av.it.:   7.0
      thresh= 1.000E-02 alpha_mix =  0.700 |ddv_scf|^2 =  1.846E-06

     Pert. #  1: Fermi energy shift (Ry) =    -3.8107E+25     0.0000E+00

      iter #   2 total cpu time :   574.4 secs   av.it.:  12.0
      thresh= 1.359E-04 alpha_mix =  0.700 |ddv_scf|^2 =  2.394E-07

     Pert. #  1: Fermi energy shift (Ry) =     1.5937E+25     0.0000E+00

      iter #   3 total cpu time :   608.8 secs   av.it.:  12.0
      thresh= 4.893E-05 alpha_mix =  0.700 |ddv_scf|^2 =  2.916E-09

     Pert. #  1: Fermi energy shift (Ry) =    -1.2746E+25     0.0000E+00

      iter #   4 total cpu time :   644.3 secs   av.it.:  14.8
      thresh= 5.400E-06 alpha_mix =  0.700 |ddv_scf|^2 =  2.516E-10

     Pert. #  1: Fermi energy shift (Ry) =    -3.7049E+24     0.0000E+00

      iter #   5 total cpu time :   680.2 secs   av.it.:  14.6
      thresh= 1.586E-06 alpha_mix =  0.700 |ddv_scf|^2 =  5.399E-12

     Pert. #  1: Fermi energy shift (Ry) =    -6.0562E+24     0.0000E+00

      iter #   6 total cpu time :   714.3 secs   av.it.:  13.0
      thresh= 2.324E-07 alpha_mix =  0.700 |ddv_scf|^2 =  4.938E-15

     End of self-consistent calculation

     Convergence has been achieved 


     Representation #  4 mode #   4

     Self-consistent Calculation

     Pert. #  1: Fermi energy shift (Ry) =     2.2010E+26     0.0000E+00

      iter #   1 total cpu time :   758.7 secs   av.it.:   5.0
      thresh= 1.000E-02 alpha_mix =  0.700 |ddv_scf|^2 =  1.144E-09

     Pert. #  1: Fermi energy shift (Ry) =     1.1234E+23     0.0000E+00

      iter #   2 total cpu time :   793.2 secs   av.it.:  13.0
      thresh= 3.382E-06 alpha_mix =  0.700 |ddv_scf|^2 =  5.323E-11

     Pert. #  1: Fermi energy shift (Ry) =    -7.0348E+22     0.0000E+00

      iter #   3 total cpu time :   829.3 secs   av.it.:  13.8
      thresh= 7.296E-07 alpha_mix =  0.700 |ddv_scf|^2 =  2.442E-12

     Pert. #  1: Fermi energy shift (Ry) =     9.8433E+22     0.0000E+00

      iter #   4 total cpu time :   866.6 secs   av.it.:  15.8
      thresh= 1.563E-07 alpha_mix =  0.700 |ddv_scf|^2 =  1.304E-16

     End of self-consistent calculation

     Convergence has been achieved 


     Representation #  5 mode #   5

     Self-consistent Calculation

     Pert. #  1: Fermi energy shift (Ry) =     1.0849E+28     0.0000E+00

      iter #   1 total cpu time :   911.4 secs   av.it.:   6.0
      thresh= 1.000E-02 alpha_mix =  0.700 |ddv_scf|^2 =  4.708E-09

     Pert. #  1: Fermi energy shift (Ry) =     9.7002E+23     0.0000E+00

      iter #   2 total cpu time :   948.3 secs   av.it.:  15.8
      thresh= 6.861E-06 alpha_mix =  0.700 |ddv_scf|^2 =  9.930E-11

     Pert. #  1: Fermi energy shift (Ry) =     4.8675E+24     0.0000E+00

      iter #   3 total cpu time :   986.6 secs   av.it.:  17.3
      thresh= 9.965E-07 alpha_mix =  0.700 |ddv_scf|^2 =  1.645E-10

     Pert. #  1: Fermi energy shift (Ry) =     1.2573E+24     0.0000E+00

      iter #   4 total cpu time :  1022.8 secs   av.it.:  16.0
      thresh= 1.283E-06 alpha_mix =  0.700 |ddv_scf|^2 =  5.265E-13

     End of self-consistent calculation

     Convergence has been achieved 


     Representation #  6 mode #   6

     Self-consistent Calculation

     Pert. #  1: Fermi energy shift (Ry) =    -1.8976E+28     0.0000E+00

      iter #   1 total cpu time :  1066.7 secs   av.it.:   5.0
      thresh= 1.000E-02 alpha_mix =  0.700 |ddv_scf|^2 =  1.264E-09

     Pert. #  1: Fermi energy shift (Ry) =    -1.2502E+24     0.0000E+00

      iter #   2 total cpu time :  1103.3 secs   av.it.:  15.8
      thresh= 3.556E-06 alpha_mix =  0.700 |ddv_scf|^2 =  6.480E-11

     Pert. #  1: Fermi energy shift (Ry) =    -3.6149E+24     0.0000E+00

      iter #   3 total cpu time :  1142.3 secs   av.it.:  17.1
      thresh= 8.050E-07 alpha_mix =  0.700 |ddv_scf|^2 =  2.532E-11

     Pert. #  1: Fermi energy shift (Ry) =    -1.0907E+24     0.0000E+00

      iter #   4 total cpu time :  1181.1 secs   av.it.:  17.0
      thresh= 5.031E-07 alpha_mix =  0.700 |ddv_scf|^2 =  2.073E-12

     Pert. #  1: Fermi energy shift (Ry) =    -1.1461E+24     0.0000E+00

      iter #   5 total cpu time :  1216.2 secs   av.it.:  14.6
      thresh= 1.440E-07 alpha_mix =  0.700 |ddv_scf|^2 =  3.761E-15

     End of self-consistent calculation

     Convergence has been achieved 


     Representation #  7 mode #   7

     Self-consistent Calculation

     Pert. #  1: Fermi energy shift (Ry) =     8.6368E+27     0.0000E+00

      iter #   1 total cpu time :  1260.8 secs   av.it.:   6.0
      thresh= 1.000E-02 alpha_mix =  0.700 |ddv_scf|^2 =  5.197E-10

     Pert. #  1: Fermi energy shift (Ry) =    -2.3692E+24     0.0000E+00

      iter #   2 total cpu time :  1298.2 secs   av.it.:  17.0
      thresh= 2.280E-06 alpha_mix =  0.700 |ddv_scf|^2 =  6.646E-11

     Pert. #  1: Fermi energy shift (Ry) =     2.7857E+24     0.0000E+00

      iter #   3 total cpu time :  1336.9 secs   av.it.:  18.0
      thresh= 8.152E-07 alpha_mix =  0.700 |ddv_scf|^2 =  2.442E-11

     Pert. #  1: Fermi energy shift (Ry) =    -1.0063E+22     0.0000E+00

      iter #   4 total cpu time :  1375.0 secs   av.it.:  17.8
      thresh= 4.941E-07 alpha_mix =  0.700 |ddv_scf|^2 =  1.926E-12

     Pert. #  1: Fermi energy shift (Ry) =     8.8760E+23     0.0000E+00

      iter #   5 total cpu time :  1412.4 secs   av.it.:  17.7
      thresh= 1.388E-07 alpha_mix =  0.700 |ddv_scf|^2 =  4.254E-15

     End of self-consistent calculation

     Convergence has been achieved 


     Representation #  8 mode #   8

     Self-consistent Calculation

     Pert. #  1: Fermi energy shift (Ry) =    -1.6860E+28     0.0000E+00

      iter #   1 total cpu time :  1456.7 secs   av.it.:   5.0
      thresh= 1.000E-02 alpha_mix =  0.700 |ddv_scf|^2 =  5.279E-09

     Pert. #  1: Fermi energy shift (Ry) =    -6.4404E+23     0.0000E+00

      iter #   2 total cpu time :  1493.0 secs   av.it.:  15.0
      thresh= 7.266E-06 alpha_mix =  0.700 |ddv_scf|^2 =  5.298E-10

     Pert. #  1: Fermi energy shift (Ry) =    -3.8644E+24     0.0000E+00

      iter #   3 total cpu time :  1530.7 secs   av.it.:  16.8
      thresh= 2.302E-06 alpha_mix =  0.700 |ddv_scf|^2 =  5.098E-11

     Pert. #  1: Fermi energy shift (Ry) =     3.2924E+21     0.0000E+00

      iter #   4 total cpu time :  1567.9 secs   av.it.:  17.8
      thresh= 7.140E-07 alpha_mix =  0.700 |ddv_scf|^2 =  4.172E-13

     End of self-consistent calculation

     Convergence has been achieved 


     Representation #  9 mode #   9

     Self-consistent Calculation

     Pert. #  1: Fermi energy shift (Ry) =    -1.4628E+28     0.0000E+00

      iter #   1 total cpu time :  1610.9 secs   av.it.:   6.0
      thresh= 1.000E-02 alpha_mix =  0.700 |ddv_scf|^2 =  1.116E-08

     Pert. #  1: Fermi energy shift (Ry) =    -9.0149E+24     0.0000E+00

      iter #   2 total cpu time :  1646.1 secs   av.it.:  14.0
      thresh= 1.056E-05 alpha_mix =  0.700 |ddv_scf|^2 =  1.138E-09

     Pert. #  1: Fermi energy shift (Ry) =    -4.0179E+24     0.0000E+00

      iter #   3 total cpu time :  1683.7 secs   av.it.:  16.0
      thresh= 3.374E-06 alpha_mix =  0.700 |ddv_scf|^2 =  4.916E-11

     Pert. #  1: Fermi energy shift (Ry) =    -8.2000E+23     0.0000E+00

      iter #   4 total cpu time :  1721.5 secs   av.it.:  17.0
      thresh= 7.011E-07 alpha_mix =  0.700 |ddv_scf|^2 =  2.751E-12

     Pert. #  1: Fermi energy shift (Ry) =    -1.2071E+24     0.0000E+00

      iter #   5 total cpu time :  1757.8 secs   av.it.:  16.0
      thresh= 1.658E-07 alpha_mix =  0.700 |ddv_scf|^2 =  2.653E-15

     End of self-consistent calculation

     Convergence has been achieved 


     Representation # 10 mode #  10

     Self-consistent Calculation

     Pert. #  1: Fermi energy shift (Ry) =    -8.4321E+27     0.0000E+00

      iter #   1 total cpu time :  1800.8 secs   av.it.:   6.0
      thresh= 1.000E-02 alpha_mix =  0.700 |ddv_scf|^2 =  5.199E-10

     Pert. #  1: Fermi energy shift (Ry) =     2.2595E+24     0.0000E+00

      iter #   2 total cpu time :  1837.9 secs   av.it.:  17.0
      thresh= 2.280E-06 alpha_mix =  0.700 |ddv_scf|^2 =  6.658E-11

     Pert. #  1: Fermi energy shift (Ry) =    -2.7788E+24     0.0000E+00

      iter #   3 total cpu time :  1876.0 secs   av.it.:  18.0
      thresh= 8.160E-07 alpha_mix =  0.700 |ddv_scf|^2 =  2.437E-11

     Pert. #  1: Fermi energy shift (Ry) =     3.6255E+22     0.0000E+00

      iter #   4 total cpu time :  1914.1 secs   av.it.:  17.8
      thresh= 4.937E-07 alpha_mix =  0.700 |ddv_scf|^2 =  1.940E-12

     Pert. #  1: Fermi energy shift (Ry) =    -8.7287E+23     0.0000E+00

      iter #   5 total cpu time :  1951.0 secs   av.it.:  17.7
      thresh= 1.393E-07 alpha_mix =  0.700 |ddv_scf|^2 =  4.261E-15

     End of self-consistent calculation

     Convergence has been achieved 


     Representation # 11 mode #  11

     Self-consistent Calculation

     Pert. #  1: Fermi energy shift (Ry) =    -1.6853E+28     0.0000E+00

      iter #   1 total cpu time :  1994.7 secs   av.it.:   5.0
      thresh= 1.000E-02 alpha_mix =  0.700 |ddv_scf|^2 =  5.279E-09

     Pert. #  1: Fermi energy shift (Ry) =    -7.4119E+23     0.0000E+00

      iter #   2 total cpu time :  2030.7 secs   av.it.:  15.0
      thresh= 7.266E-06 alpha_mix =  0.700 |ddv_scf|^2 =  5.299E-10

     Pert. #  1: Fermi energy shift (Ry) =    -3.8170E+24     0.0000E+00

      iter #   3 total cpu time :  2069.7 secs   av.it.:  16.8
      thresh= 2.302E-06 alpha_mix =  0.700 |ddv_scf|^2 =  5.099E-11

     Pert. #  1: Fermi energy shift (Ry) =    -3.7574E+21     0.0000E+00

      iter #   4 total cpu time :  2106.9 secs   av.it.:  17.8
      thresh= 7.141E-07 alpha_mix =  0.700 |ddv_scf|^2 =  4.175E-13

     End of self-consistent calculation

     Convergence has been achieved 


     Representation # 12 mode #  12

     Self-consistent Calculation

     Pert. #  1: Fermi energy shift (Ry) =    -1.5283E+28     0.0000E+00

      iter #   1 total cpu time :  2149.5 secs   av.it.:   5.9
      thresh= 1.000E-02 alpha_mix =  0.700 |ddv_scf|^2 =  1.115E-08

     Pert. #  1: Fermi energy shift (Ry) =    -8.7656E+24     0.0000E+00

      iter #   2 total cpu time :  2184.3 secs   av.it.:  14.0
      thresh= 1.056E-05 alpha_mix =  0.700 |ddv_scf|^2 =  1.141E-09

     Pert. #  1: Fermi energy shift (Ry) =    -4.0061E+24     0.0000E+00

      iter #   3 total cpu time :  2221.6 secs   av.it.:  16.0
      thresh= 3.377E-06 alpha_mix =  0.700 |ddv_scf|^2 =  4.897E-11

     Pert. #  1: Fermi energy shift (Ry) =    -8.7704E+23     0.0000E+00

      iter #   4 total cpu time :  2259.4 secs   av.it.:  17.0
      thresh= 6.998E-07 alpha_mix =  0.700 |ddv_scf|^2 =  2.813E-12

     Pert. #  1: Fermi energy shift (Ry) =    -1.2197E+24     0.0000E+00

      iter #   5 total cpu time :  2295.5 secs   av.it.:  16.0
      thresh= 1.677E-07 alpha_mix =  0.700 |ddv_scf|^2 =  2.734E-15

     End of self-consistent calculation

     Convergence has been achieved 

     Number of q in the star =    1
     List of q in the star:
          1   0.000000000   0.000000000   0.000000000

     Diagonalizing the dynamical matrix

     q = (    0.000000000   0.000000000   0.000000000 ) 

 **************************************************************************
     freq (    1) =     -12.199688 [THz] =    -406.937803 [cm-1]
     freq (    2) =      -8.024208 [THz] =    -267.658759 [cm-1]
     freq (    3) =      -1.221183 [THz] =     -40.734276 [cm-1]
     freq (    4) =       1.741208 [THz] =      58.080447 [cm-1]
     freq (    5) =       4.843058 [THz] =     161.547015 [cm-1]
     freq (    6) =       7.178784 [THz] =     239.458462 [cm-1]
     freq (    7) =      29.873518 [THz] =     996.473300 [cm-1]
     freq (    8) =      48.268753 [THz] =    1610.072306 [cm-1]
     freq (    9) =      48.376690 [THz] =    1613.672669 [cm-1]
     freq (   10) =     102.591527 [THz] =    3422.084995 [cm-1]
     freq (   11) =     105.356074 [THz] =    3514.300353 [cm-1]
     freq (   12) =     105.705903 [THz] =    3525.969375 [cm-1]
 **************************************************************************

     Mode symmetry, C_1 (1)     point group:

     freq (  1 -  1) =       -406.9  [cm-1]   --> A               I+R
     freq (  2 -  2) =       -267.7  [cm-1]   --> A               I+R
     freq (  3 -  3) =        -40.7  [cm-1]   --> A               I+R
     freq (  4 -  4) =         58.1  [cm-1]   --> A               I+R
     freq (  5 -  5) =        161.5  [cm-1]   --> A               I+R
     freq (  6 -  6) =        239.5  [cm-1]   --> A               I+R
     freq (  7 -  7) =        996.5  [cm-1]   --> A               I+R
     freq (  8 -  8) =       1610.1  [cm-1]   --> A               I+R
     freq (  9 -  9) =       1613.7  [cm-1]   --> A               I+R
     freq ( 10 - 10) =       3422.1  [cm-1]   --> A               I+R
     freq ( 11 - 11) =       3514.3  [cm-1]   --> A               I+R
     freq ( 12 - 12) =       3526.0  [cm-1]   --> A               I+R

     PHONON       :  35m27.96s CPU  38m28.73s WALL

     INITIALIZATION: 
     phq_setup    :      5.37s CPU      5.66s WALL (       1 calls)
     phq_init     :    165.06s CPU    168.91s WALL (       1 calls)

     phq_init     :    165.06s CPU    168.91s WALL (       1 calls)
     set_drhoc    :     46.81s CPU     46.85s WALL (       3 calls)
     init_vloc    :      0.63s CPU      0.63s WALL (       1 calls)
     init_us_1    :      0.21s CPU      0.21s WALL (       1 calls)
     newd         :      0.42s CPU      3.56s WALL (       1 calls)
     dvanqq       :     41.49s CPU     41.86s WALL (       1 calls)
     drho         :     42.71s CPU     45.77s WALL (       1 calls)

     DYNAMICAL MATRIX:
     dynmat0      :     41.00s CPU     41.35s WALL (       1 calls)
     phqscf       :   1940.21s CPU   2109.48s WALL (       1 calls)
     dynmatrix    :      0.22s CPU      0.42s WALL (       1 calls)

     phqscf       :   1940.21s CPU   2109.48s WALL (       1 calls)
     solve_linter :   1922.69s CPU   2085.96s WALL (      12 calls)
     drhodv       :     16.41s CPU     16.64s WALL (      12 calls)

     dynmat0      :     41.00s CPU     41.35s WALL (       1 calls)
     dynmat_us    :      2.81s CPU      2.87s WALL (       1 calls)
     d2ionq       :      1.66s CPU      1.66s WALL (       1 calls)
     dynmatcc     :     35.90s CPU     36.18s WALL (       1 calls)

     dynmat_us    :      2.81s CPU      2.87s WALL (       1 calls)
     addusdynmat  :      0.00s CPU      0.00s WALL (       1 calls)

     phqscf       :   1940.21s CPU   2109.48s WALL (       1 calls)
     solve_linter :   1922.69s CPU   2085.96s WALL (      12 calls)

     solve_linter :   1922.69s CPU   2085.96s WALL (      12 calls)
     dvqpsi_us    :     18.42s CPU     18.61s WALL (      36 calls)
     ortho        :      2.22s CPU      2.26s WALL (     165 calls)
     cgsolve      :    580.10s CPU    583.06s WALL (     165 calls)
     incdrhoscf   :     41.74s CPU     41.96s WALL (     165 calls)
     addusddens   :    139.04s CPU    148.29s WALL (      67 calls)
     vpsifft      :     28.37s CPU     28.76s WALL (     129 calls)
     dv_of_drho   :    264.07s CPU    286.47s WALL (      55 calls)
     mix_pot      :     13.81s CPU     46.74s WALL (      55 calls)
     ef_shift     :     38.79s CPU     39.98s WALL (      67 calls)
     localdos     :     50.95s CPU     52.58s WALL (      12 calls)
     psymdvscf    :    309.89s CPU    341.47s WALL (      55 calls)
     newdq        :    107.50s CPU    114.58s WALL (      55 calls)
     adddvscf     :      1.87s CPU      1.89s WALL (     129 calls)
     drhodvus     :      6.08s CPU     16.29s WALL (      12 calls)

     dvqpsi_us    :     18.42s CPU     18.61s WALL (      36 calls)
     dvqpsi_us_on :      0.42s CPU      0.42s WALL (      36 calls)

     cgsolve      :    580.10s CPU    583.06s WALL (     165 calls)
     ch_psi       :    561.85s CPU    564.59s WALL (    3025 calls)

     ch_psi       :    561.85s CPU    564.59s WALL (    3025 calls)
     h_psi        :    514.94s CPU    517.41s WALL (    3025 calls)
     last         :     32.59s CPU     32.80s WALL (    3025 calls)

     h_psi        :    514.94s CPU    517.41s WALL (    3025 calls)
     add_vuspsi   :      7.48s CPU      7.55s WALL (    3025 calls)

     incdrhoscf   :     41.74s CPU     41.96s WALL (     165 calls)
     addusdbec    :      0.80s CPU      0.83s WALL (     201 calls)

     drhodvus     :      6.08s CPU     16.29s WALL (      12 calls)

      General routines
     calbec       :     21.67s CPU     21.85s WALL (    6626 calls)
     fft          :    420.91s CPU    429.46s WALL (    2363 calls)
     ffts         :     36.29s CPU     36.68s WALL (     606 calls)
     fftw         :    472.85s CPU    475.13s WALL (   21396 calls)
     davcio       :      0.20s CPU     42.66s WALL (    1291 calls)
     write_rec    :      1.56s CPU     37.31s WALL (      67 calls)


     PHONON       :  35m27.96s CPU  38m28.75s WALL


   This run was terminated on:   0: 1:57  21Sep2022            

=------------------------------------------------------------------------------=
   JOB DONE.
=------------------------------------------------------------------------------=
