
     Program PWSCF v.6.4.1 starts on  4Jun2022 at 21:11:10 

     This program is part of the open-source Quantum ESPRESSO suite
     for quantum simulation of materials; please cite
         "P. Giannozzi et al., J. Phys.:Condens. Matter 21 395502 (2009);
         "P. Giannozzi et al., J. Phys.:Condens. Matter 29 465901 (2017);
          URL http://www.quantum-espresso.org", 
     in publications or presentations arising from this work. More details at
     http://www.quantum-espresso.org/quote

     Parallel version (MPI), running on   160 processors

     MPI processes distributed on     8 nodes
     K-points division:     npool     =       8
     R & G space division:  proc/nbgrp/npool/nimage =      20
     Waiting for input...
     Reading input from standard input
Warning: card &CELL ignored
Warning: card / ignored

     Current dimensions of program PWSCF are:
     Max number of different atomic species (ntypx) = 10
     Max number of k-points (npk) =  40000
     Max angular momentum in pseudopotentials (lmaxx) =  3

     IMPORTANT: XC functional enforced from input :
     Exchange-correlation      = PBE ( 1  4  3  4 0 0)
     Any further DFT definition will be discarded
     Please, verify this is what you really want

               file Fe.pbe-spn-kjpaw_psl.0.2.1.UPF: wavefunction(s)  3D renormalized

     -------------------------------------------------
     Parameters for Dispersion (Grimme-D2) Correction:
     -------------------------------------------------
       atom      VdW radius       C_6     

        Fe         2.952        374.666
        H          1.892          4.857
        N          2.640         42.670

     Subspace diagonalization in iterative solution of the eigenvalue problem:
     one sub-group per band group will be used
     scalapack distributed-memory algorithm (size of sub-group:  3*  3 procs)


     Parallelization info
     --------------------
     sticks:   dense  smooth     PW     G-vecs:    dense   smooth      PW
     Min         634     317     83               145278    51361    6989
     Max         635     318     84               145287    51370    7000
     Sum       12685    6351   1677              2905603  1027285  139897



     bravais-lattice index     =            0
     lattice parameter (alat)  =      18.7640  a.u.
     unit-cell volume          =   16360.3167 (a.u.)^3
     number of atoms/cell      =           67
     number of atomic types    =            3
     number of electrons       =      1031.00
     number of Kohn-Sham states=          619
     kinetic-energy cutoff     =      60.0000  Ry
     charge density cutoff     =     480.0000  Ry
     convergence threshold     =      1.0E-08
     mixing beta               =       0.2000
     number of iterations used =           10  local-TF  mixing
     Exchange-correlation      = PBE ( 1  4  3  4 0 0)
     nstep                     =           50


     celldm(1)=  18.764036  celldm(2)=   0.000000  celldm(3)=   0.000000
     celldm(4)=   0.000000  celldm(5)=   0.000000  celldm(6)=   0.000000

     crystal axes: (cart. coord. in units of alat)
               a(1) = (   1.000000   0.000000   0.000000 )  
               a(2) = (   0.333330   0.942807   0.000000 )  
               a(3) = (   0.000000   0.000000   2.626577 )  

     reciprocal axes: (cart. coord. in units 2 pi/alat)
               b(1) = (  1.000000 -0.353551  0.000000 )  
               b(2) = (  0.000000  1.060662  0.000000 )  
               b(3) = (  0.000000  0.000000  0.380724 )  


     PseudoPot. # 1 for Fe read from file:
     ../../SSSP/Fe.pbe-spn-kjpaw_psl.0.2.1.UPF
     MD5 check sum: e86618425769142926afa95317d90200
     Pseudo is Projector augmented-wave + core cor, Zval = 16.0
     Generated using "atomic" code by A. Dal Corso v.5.0.99 svn rev. 10869
     Shape of augmentation charge: PSQ
     Using radial grid of 1191 points,  6 beta functions with: 
                l(1) =   0
                l(2) =   0
                l(3) =   1
                l(4) =   1
                l(5) =   2
                l(6) =   2
     Q(r) pseudized with 0 coefficients 


     PseudoPot. # 2 for H  read from file:
     ../../SSSP/H.pbe-rrkjus_psl.1.0.0.UPF
     MD5 check sum: f52b6d4d1c606e5624b1dc7b2218f220
     Pseudo is Ultrasoft, Zval =  1.0
     Generated using "atomic" code by A. Dal Corso v.5.1
     Using radial grid of  929 points,  2 beta functions with: 
                l(1) =   0
                l(2) =   0
     Q(r) pseudized with 0 coefficients 


     PseudoPot. # 3 for N  read from file:
     ../../SSSP/N.pbe-n-radius_5.UPF
     MD5 check sum: 16739722b17309cd8fe442a2ace49922
     Pseudo is Ultrasoft + core correction, Zval =  5.0
     Generated using "atomic" code by A. Dal Corso v.5.1
     Using radial grid of 1085 points,  4 beta functions with: 
                l(1) =   0
                l(2) =   0
                l(3) =   1
                l(4) =   1
     Q(r) pseudized with 0 coefficients 


     atomic species   valence    mass     pseudopotential
        Fe            16.00    55.84500     Fe( 1.00)
        H              1.00     1.00800     H ( 1.00)
        N              5.00    14.00700     N ( 1.00)

     Starting magnetic structure 
     atomic species   magnetization
        Fe           0.100
        H            0.100
        N            0.100

     No symmetry found



   Cartesian axes

     site n.     atom                  positions (alat units)
         1           Fe  tau(   1) = (   0.1666663   0.1178509   0.0000000  )
         2           Fe  tau(   2) = (   0.0000000   0.0000000   0.2041376  )
         3           Fe  tau(   3) = (   0.4999989   0.3535526   0.0000000  )
         4           Fe  tau(   4) = (   0.3333326   0.2357017   0.2041376  )
         5           Fe  tau(   5) = (   0.1686570   0.1178361   0.4052985  )
         6           Fe  tau(   6) = (   0.3341358   0.9417664   0.6035990  )
         7           Fe  tau(   7) = (   0.5010430   0.3547508   0.4069156  )
         8           Fe  tau(   8) = (   0.3388211   0.2353710   0.6054253  )
         9           Fe  tau(   9) = (   0.2499989   0.3535526   0.0000000  )
        10           Fe  tau(  10) = (   0.4166663   0.1178509   0.0000000  )
        11           Fe  tau(  11) = (   0.0833326   0.2357017   0.2041376  )
        12           Fe  tau(  12) = (   0.2500000   0.0000000   0.2041376  )
        13           Fe  tau(  13) = (   0.2500012   0.3535905   0.4067842  )
        14           Fe  tau(  14) = (   0.4190288   0.1195738   0.4060351  )
        15           Fe  tau(  15) = (   0.0865029   0.2339483   0.6039407  )
        16           Fe  tau(  16) = (   0.2513002   0.0009626   0.6053752  )
        17           Fe  tau(  17) = (   0.6666663   0.1178509   0.0000000  )
        18           Fe  tau(  18) = (   0.5000000   0.0000000   0.2041376  )
        19           Fe  tau(  19) = (   0.9999989   0.3535526   0.0000000  )
        20           Fe  tau(  20) = (   0.8333326   0.2357017   0.2041376  )
        21           Fe  tau(  21) = (   0.6681070   0.1185056   0.4068920  )
        22           Fe  tau(  22) = (   0.5014987   0.0053781   0.6054539  )
        23           Fe  tau(  23) = (   0.9989796   0.3524590   0.4068887  )
        24           Fe  tau(  24) = (   0.8420520   0.2235134   0.6021217  )
        25           Fe  tau(  25) = (   0.7499989   0.3535526   0.0000000  )
        26           Fe  tau(  26) = (   0.9166663   0.1178509   0.0000000  )
        27           Fe  tau(  27) = (   0.5833326   0.2357017   0.2041376  )
        28           Fe  tau(  28) = (   0.7500000   0.0000000   0.2041376  )
        29           Fe  tau(  29) = (   0.7500236   0.3535939   0.4028008  )
        30           Fe  tau(  30) = (   0.9183951   0.1154738   0.4034655  )
        31           Fe  tau(  31) = (   0.5922890   0.2421038   0.6094174  )
        32           Fe  tau(  32) = (   1.0840349   0.9393380   0.6039418  )
        33           Fe  tau(  33) = (   0.3333315   0.5892543   0.0000000  )
        34           Fe  tau(  34) = (   0.1666652   0.4714034   0.2041376  )
        35           Fe  tau(  35) = (   0.6666640   0.8249560   0.0000000  )
        36           Fe  tau(  36) = (   0.4999977   0.7071052   0.2041376  )
        37           Fe  tau(  37) = (   0.3313717   0.5893360   0.4053031  )
        38           Fe  tau(  38) = (   1.1612429   0.4718510   0.6054455  )
        39           Fe  tau(  39) = (   0.6672999   0.8268818   0.4053013  )
        40           Fe  tau(  40) = (   0.4992366   0.7082722   0.6034780  )
        41           Fe  tau(  41) = (   0.4166640   0.8249560   0.0000000  )
        42           Fe  tau(  42) = (   0.5833315   0.5892543   0.0000000  )
        43           Fe  tau(  43) = (   1.2499977   0.7071052   0.2041376  )
        44           Fe  tau(  44) = (   0.4166652   0.4714034   0.2041376  )
        45           Fe  tau(  45) = (   0.4166665   0.8250173   0.4049699  )
        46           Fe  tau(  46) = (   0.5816472   0.5917017   0.4034350  )
        47           Fe  tau(  47) = (   1.2487477   0.7062702   0.6053654  )
        48           Fe  tau(  48) = (   0.4135322   0.4732989   0.6040109  )
        49           Fe  tau(  49) = (   0.8333314   0.5892543   0.0000000  )
        50           Fe  tau(  50) = (   0.6666652   0.4714034   0.2041376  )
        51           Fe  tau(  51) = (   1.1666640   0.8249560   0.0000000  )
        52           Fe  tau(  52) = (   0.9999977   0.7071052   0.2041376  )
        53           Fe  tau(  53) = (   0.8319285   0.5887257   0.4069179  )
        54           Fe  tau(  54) = (   0.6579955   0.4838139   0.6021141  )
        55           Fe  tau(  55) = (   1.1660742   0.8231260   0.4052964  )
        56           Fe  tau(  56) = (   0.9985899   0.7019248   0.6054131  )
        57           Fe  tau(  57) = (   0.9166640   0.8249560   0.0000000  )
        58           Fe  tau(  58) = (   1.0833314   0.5892543   0.0000000  )
        59           Fe  tau(  59) = (   0.7499977   0.7071052   0.2041376  )
        60           Fe  tau(  60) = (   0.9166652   0.4714034   0.2041376  )
        61           Fe  tau(  61) = (   0.9166921   0.8250249   0.4067847  )
        62           Fe  tau(  62) = (   1.0809967   0.5876498   0.4060352  )
        63           Fe  tau(  63) = (   0.7493592   0.7108084   0.6040097  )
        64           Fe  tau(  64) = (   0.9078333   0.4652128   0.6093978  )
        65           H   tau(  65) = (   0.7501937   0.3538470   0.8083119  )
        66           N   tau(  66) = (   0.7501811   0.3537892   0.7047560  )
        67           H   tau(  67) = (   0.4582305   0.8559343   0.6991287  )

     number of k points=    10  Methfessel-Paxton smearing, width (Ry)=  0.0100
                       cart. coord. in units 2pi/alat
        k(    1) = (   0.0000000   0.0000000   0.0000000), wk =   0.0625000
        k(    2) = (   0.0000000   0.2651656   0.0000000), wk =   0.1250000
        k(    3) = (   0.0000000  -0.5303312   0.0000000), wk =   0.0625000
        k(    4) = (   0.2500000  -0.0883877   0.0000000), wk =   0.1250000
        k(    5) = (   0.2500000   0.1767780   0.0000000), wk =   0.1250000
        k(    6) = (   0.2500000  -0.6187189   0.0000000), wk =   0.1250000
        k(    7) = (   0.2500000  -0.3535533   0.0000000), wk =   0.1250000
        k(    8) = (  -0.5000000   0.1767753   0.0000000), wk =   0.0625000
        k(    9) = (  -0.5000000   0.4419409   0.0000000), wk =   0.1250000
        k(   10) = (  -0.5000000  -0.3535559   0.0000000), wk =   0.0625000

     Dense  grid:  2905603 G-vectors     FFT dimensions: ( 135, 135, 360)

     Smooth grid:  1027285 G-vectors     FFT dimensions: (  96,  96, 243)

     Estimated max dynamical RAM per process >       1.01 GB

     Estimated total dynamical RAM >     162.06 GB
     Generating pointlists ...
     new r_m :   0.0737 (alat units)  1.3823 (a.u.) for type    1
     new r_m :   0.0427 (alat units)  0.8015 (a.u.) for type    2
     new r_m :   0.0427 (alat units)  0.8015 (a.u.) for type    3

     Check: negative core charge=   -0.000039

     Initial potential from superposition of free atoms

     starting charge 1030.97192, renormalised to 1031.00000

     negative rho (up, down):  2.447E-02 2.534E-03
     Starting wfcs are  838 randomized atomic wfcs
     Checking if some PAW data can be deallocated... 

     total cpu time spent up to now is       84.7 secs

     Self-consistent Calculation

     iteration #  1     ecut=    60.00 Ry     beta= 0.20
     Davidson diagonalization with overlap
     ethr =  1.00E-04,  avg # of iterations = 10.7

     negative rho (up, down):  1.219E-02 4.101E-03

     total cpu time spent up to now is      547.2 secs

     total energy              =  -21094.90755018 Ry
     Harris-Foulkes estimate   =  -21095.38209211 Ry
     estimated scf accuracy    <      28.64776624 Ry

     total magnetization       =   134.35 Bohr mag/cell
     absolute magnetization    =   134.62 Bohr mag/cell

     iteration #  2     ecut=    60.00 Ry     beta= 0.20
     Davidson diagonalization with overlap
     ethr =  2.78E-03,  avg # of iterations =  1.0

     negative rho (up, down):  6.320E-03 2.730E-02

     total cpu time spent up to now is      685.5 secs

     total energy              =  -21095.09650223 Ry
     Harris-Foulkes estimate   =  -21095.21409763 Ry
     estimated scf accuracy    <       8.01219435 Ry

     total magnetization       =   136.80 Bohr mag/cell
     absolute magnetization    =   137.32 Bohr mag/cell

     iteration #  3     ecut=    60.00 Ry     beta= 0.20
     Davidson diagonalization with overlap
     ethr =  7.77E-04,  avg # of iterations =  1.0

     negative rho (up, down):  1.930E-02 2.175E-01

     total cpu time spent up to now is      818.6 secs

     total energy              =  -21094.17174132 Ry
     Harris-Foulkes estimate   =  -21095.19268472 Ry
     estimated scf accuracy    <       9.99208191 Ry

     total magnetization       =   143.64 Bohr mag/cell
     absolute magnetization    =   144.58 Bohr mag/cell

     iteration #  4     ecut=    60.00 Ry     beta= 0.20
     Davidson diagonalization with overlap
     ethr =  7.77E-04,  avg # of iterations =  3.1

     negative rho (up, down):  1.208E-02 1.861E-01

     total cpu time spent up to now is     1011.3 secs

     total energy              =  -21094.90105624 Ry
     Harris-Foulkes estimate   =  -21094.96866507 Ry
     estimated scf accuracy    <       2.50371985 Ry

     total magnetization       =   156.64 Bohr mag/cell
     absolute magnetization    =   161.54 Bohr mag/cell

     iteration #  5     ecut=    60.00 Ry     beta= 0.20
     Davidson diagonalization with overlap
     ethr =  2.43E-04,  avg # of iterations =  3.1

     negative rho (up, down):  4.431E-03 1.197E-01

     total cpu time spent up to now is     1171.7 secs

     total energy              =  -21094.98597306 Ry
     Harris-Foulkes estimate   =  -21094.96456856 Ry
     estimated scf accuracy    <       0.75252080 Ry

     total magnetization       =   155.82 Bohr mag/cell
     absolute magnetization    =   161.27 Bohr mag/cell

     iteration #  6     ecut=    60.00 Ry     beta= 0.20
     Davidson diagonalization with overlap
     ethr =  7.30E-05,  avg # of iterations =  5.9

     negative rho (up, down):  2.057E-03 8.066E-02

     total cpu time spent up to now is     1374.2 secs

     total energy              =  -21095.02432041 Ry
     Harris-Foulkes estimate   =  -21095.03913780 Ry
     estimated scf accuracy    <       0.48188319 Ry

     total magnetization       =   155.00 Bohr mag/cell
     absolute magnetization    =   160.97 Bohr mag/cell

     iteration #  7     ecut=    60.00 Ry     beta= 0.20
     Davidson diagonalization with overlap
     ethr =  4.67E-05,  avg # of iterations =  2.8

     negative rho (up, down):  9.992E-04 4.909E-02

     total cpu time spent up to now is     1555.5 secs

     total energy              =  -21095.00248998 Ry
     Harris-Foulkes estimate   =  -21095.03919844 Ry
     estimated scf accuracy    <       0.26633706 Ry

     total magnetization       =   157.40 Bohr mag/cell
     absolute magnetization    =   163.67 Bohr mag/cell

     iteration #  8     ecut=    60.00 Ry     beta= 0.20
     Davidson diagonalization with overlap
     ethr =  2.58E-05,  avg # of iterations =  4.6

     negative rho (up, down):  2.177E-04 2.217E-02

     total cpu time spent up to now is     1757.4 secs

     total energy              =  -21095.00314838 Ry
     Harris-Foulkes estimate   =  -21095.02006413 Ry
     estimated scf accuracy    <       0.18139784 Ry

     total magnetization       =   159.87 Bohr mag/cell
     absolute magnetization    =   166.89 Bohr mag/cell

     iteration #  9     ecut=    60.00 Ry     beta= 0.20
     Davidson diagonalization with overlap
     ethr =  1.76E-05,  avg # of iterations =  2.9

     negative rho (up, down):  1.526E-04 1.952E-02

     total cpu time spent up to now is     1916.8 secs

     total energy              =  -21094.99775228 Ry
     Harris-Foulkes estimate   =  -21095.01454286 Ry
     estimated scf accuracy    <       0.15320789 Ry

     total magnetization       =   160.20 Bohr mag/cell
     absolute magnetization    =   166.92 Bohr mag/cell

     iteration # 10     ecut=    60.00 Ry     beta= 0.20
     Davidson diagonalization with overlap
     ethr =  1.49E-05,  avg # of iterations =  1.0

     negative rho (up, down):  1.108E-04 1.733E-02

     total cpu time spent up to now is     2045.1 secs

     total energy              =  -21094.98996913 Ry
     Harris-Foulkes estimate   =  -21095.00137960 Ry
     estimated scf accuracy    <       0.12061392 Ry

     total magnetization       =   161.30 Bohr mag/cell
     absolute magnetization    =   168.26 Bohr mag/cell

     iteration # 11     ecut=    60.00 Ry     beta= 0.20
     Davidson diagonalization with overlap
     ethr =  1.17E-05,  avg # of iterations =  2.1

     negative rho (up, down):  5.066E-03 1.772E-02

     total cpu time spent up to now is     2188.6 secs

     total energy              =  -21094.98659196 Ry
     Harris-Foulkes estimate   =  -21094.99279905 Ry
     estimated scf accuracy    <       0.08448528 Ry

     total magnetization       =   161.75 Bohr mag/cell
     absolute magnetization    =   168.75 Bohr mag/cell

     iteration # 12     ecut=    60.00 Ry     beta= 0.20
     Davidson diagonalization with overlap
     ethr =  8.19E-06,  avg # of iterations =  1.9

     negative rho (up, down):  9.828E-02 1.800E-02

     total cpu time spent up to now is     2347.9 secs

     total energy              =  -21094.97749525 Ry
     Harris-Foulkes estimate   =  -21094.98819108 Ry
     estimated scf accuracy    <       0.07709845 Ry

     total magnetization       =   161.81 Bohr mag/cell
     absolute magnetization    =   168.65 Bohr mag/cell

     iteration # 13     ecut=    60.00 Ry     beta= 0.20
     Davidson diagonalization with overlap
     ethr =  7.48E-06,  avg # of iterations =  1.3

     negative rho (up, down):  1.891E-01 1.514E-02

     total cpu time spent up to now is     2492.9 secs

     total energy              =  -21094.97143555 Ry
     Harris-Foulkes estimate   =  -21094.97855801 Ry
     estimated scf accuracy    <       0.06192726 Ry

     total magnetization       =   161.63 Bohr mag/cell
     absolute magnetization    =   168.27 Bohr mag/cell

     iteration # 14     ecut=    60.00 Ry     beta= 0.20
     Davidson diagonalization with overlap
     ethr =  6.01E-06,  avg # of iterations =  7.5

     negative rho (up, down):  2.193E-01 1.528E-02

     total cpu time spent up to now is     2704.5 secs

     total energy              =  -21094.97078992 Ry
     Harris-Foulkes estimate   =  -21094.97326973 Ry
     estimated scf accuracy    <       0.03027576 Ry

     total magnetization       =   161.40 Bohr mag/cell
     absolute magnetization    =   168.08 Bohr mag/cell

     iteration # 15     ecut=    60.00 Ry     beta= 0.20
     Davidson diagonalization with overlap
     ethr =  2.94E-06,  avg # of iterations =  4.2

     negative rho (up, down):  2.234E-01 1.375E-02

     total cpu time spent up to now is     2923.0 secs

     total energy              =  -21094.96380993 Ry
     Harris-Foulkes estimate   =  -21094.97112266 Ry
     estimated scf accuracy    <       0.02445476 Ry

     total magnetization       =   161.23 Bohr mag/cell
     absolute magnetization    =   167.91 Bohr mag/cell

     iteration # 16     ecut=    60.00 Ry     beta= 0.20
     Davidson diagonalization with overlap
     ethr =  2.37E-06,  avg # of iterations =  5.8

     negative rho (up, down):  2.188E-01 1.721E-02

     total cpu time spent up to now is     3148.8 secs

     total energy              =  -21094.96241038 Ry
     Harris-Foulkes estimate   =  -21094.96491114 Ry
     estimated scf accuracy    <       0.01084429 Ry

     total magnetization       =   160.61 Bohr mag/cell
     absolute magnetization    =   167.33 Bohr mag/cell

     iteration # 17     ecut=    60.00 Ry     beta= 0.20
     Davidson diagonalization with overlap
     ethr =  1.05E-06,  avg # of iterations =  4.2

     negative rho (up, down):  1.650E-01 1.929E-02

     total cpu time spent up to now is     3350.3 secs

     total energy              =  -21094.96189975 Ry
     Harris-Foulkes estimate   =  -21094.96278232 Ry
     estimated scf accuracy    <       0.00598543 Ry

     total magnetization       =   160.20 Bohr mag/cell
     absolute magnetization    =   166.98 Bohr mag/cell

     iteration # 18     ecut=    60.00 Ry     beta= 0.20
     Davidson diagonalization with overlap
     ethr =  5.81E-07,  avg # of iterations =  1.2

     negative rho (up, down):  7.990E-02 2.197E-02

     total cpu time spent up to now is     3489.7 secs

     total energy              =  -21094.96156531 Ry
     Harris-Foulkes estimate   =  -21094.96196396 Ry
     estimated scf accuracy    <       0.00344677 Ry

     total magnetization       =   160.22 Bohr mag/cell
     absolute magnetization    =   167.00 Bohr mag/cell

     iteration # 19     ecut=    60.00 Ry     beta= 0.20
     Davidson diagonalization with overlap
     ethr =  3.34E-07,  avg # of iterations =  4.4

     negative rho (up, down):  5.880E-02 2.016E-02

     total cpu time spent up to now is     3709.4 secs

     total energy              =  -21094.96192477 Ry
     Harris-Foulkes estimate   =  -21094.96172302 Ry
     estimated scf accuracy    <       0.00057268 Ry

     total magnetization       =   160.31 Bohr mag/cell
     absolute magnetization    =   167.09 Bohr mag/cell

     iteration # 20     ecut=    60.00 Ry     beta= 0.20
     Davidson diagonalization with overlap
     ethr =  5.55E-08,  avg # of iterations =  3.2

     negative rho (up, down):  3.094E-02 1.940E-02

     total cpu time spent up to now is     3884.9 secs

     total energy              =  -21094.96213216 Ry
     Harris-Foulkes estimate   =  -21094.96196164 Ry
     estimated scf accuracy    <       0.00028058 Ry

     total magnetization       =   160.38 Bohr mag/cell
     absolute magnetization    =   167.15 Bohr mag/cell

     iteration # 21     ecut=    60.00 Ry     beta= 0.20
     Davidson diagonalization with overlap
     ethr =  2.72E-08,  avg # of iterations =  2.1

     negative rho (up, down):  2.610E-02 1.882E-02

     total cpu time spent up to now is     4027.3 secs

     total energy              =  -21094.96218665 Ry
     Harris-Foulkes estimate   =  -21094.96215162 Ry
     estimated scf accuracy    <       0.00007504 Ry

     total magnetization       =   160.44 Bohr mag/cell
     absolute magnetization    =   167.20 Bohr mag/cell

     iteration # 22     ecut=    60.00 Ry     beta= 0.20
     Davidson diagonalization with overlap
     ethr =  7.28E-09,  avg # of iterations =  3.0

     negative rho (up, down):  2.567E-02 1.859E-02

     total cpu time spent up to now is     4183.9 secs

     total energy              =  -21094.96220300 Ry
     Harris-Foulkes estimate   =  -21094.96219492 Ry
     estimated scf accuracy    <       0.00001720 Ry

     total magnetization       =   160.47 Bohr mag/cell
     absolute magnetization    =   167.23 Bohr mag/cell

     iteration # 23     ecut=    60.00 Ry     beta= 0.20
     Davidson diagonalization with overlap
     ethr =  1.67E-09,  avg # of iterations =  3.0

     negative rho (up, down):  2.524E-02 1.838E-02

     total cpu time spent up to now is     4343.0 secs

     total energy              =  -21094.96220958 Ry
     Harris-Foulkes estimate   =  -21094.96220437 Ry
     estimated scf accuracy    <       0.00000970 Ry

     total magnetization       =   160.47 Bohr mag/cell
     absolute magnetization    =   167.23 Bohr mag/cell

     iteration # 24     ecut=    60.00 Ry     beta= 0.20
     Davidson diagonalization with overlap
     ethr =  9.40E-10,  avg # of iterations =  2.8

     negative rho (up, down):  2.497E-02 1.833E-02

     total cpu time spent up to now is     4499.0 secs

     total energy              =  -21094.96221280 Ry
     Harris-Foulkes estimate   =  -21094.96221086 Ry
     estimated scf accuracy    <       0.00000406 Ry

     total magnetization       =   160.49 Bohr mag/cell
     absolute magnetization    =   167.24 Bohr mag/cell

     iteration # 25     ecut=    60.00 Ry     beta= 0.20
     Davidson diagonalization with overlap
     ethr =  3.94E-10,  avg # of iterations =  2.4

     negative rho (up, down):  2.498E-02 1.829E-02

     total cpu time spent up to now is     4643.8 secs

     total energy              =  -21094.96221415 Ry
     Harris-Foulkes estimate   =  -21094.96221323 Ry
     estimated scf accuracy    <       0.00000239 Ry

     total magnetization       =   160.50 Bohr mag/cell
     absolute magnetization    =   167.26 Bohr mag/cell

     iteration # 26     ecut=    60.00 Ry     beta= 0.20
     Davidson diagonalization with overlap
     ethr =  2.32E-10,  avg # of iterations =  3.6

     negative rho (up, down):  2.489E-02 1.824E-02

     total cpu time spent up to now is     4876.3 secs

     total energy              =  -21094.96221532 Ry
     Harris-Foulkes estimate   =  -21094.96221472 Ry
     estimated scf accuracy    <       0.00000146 Ry

     total magnetization       =   160.52 Bohr mag/cell
     absolute magnetization    =   167.28 Bohr mag/cell

     iteration # 27     ecut=    60.00 Ry     beta= 0.20
     Davidson diagonalization with overlap
     ethr =  1.42E-10,  avg # of iterations =  1.0

     negative rho (up, down):  2.485E-02 1.824E-02

     total cpu time spent up to now is     5004.6 secs

     total energy              =  -21094.96221562 Ry
     Harris-Foulkes estimate   =  -21094.96221538 Ry
     estimated scf accuracy    <       0.00000104 Ry

     total magnetization       =   160.52 Bohr mag/cell
     absolute magnetization    =   167.29 Bohr mag/cell

     iteration # 28     ecut=    60.00 Ry     beta= 0.20
     Davidson diagonalization with overlap
     ethr =  1.00E-10,  avg # of iterations =  2.6

     negative rho (up, down):  2.501E-02 1.826E-02

     total cpu time spent up to now is     5172.4 secs

     total energy              =  -21094.96221591 Ry
     Harris-Foulkes estimate   =  -21094.96221578 Ry
     estimated scf accuracy    <       0.00000042 Ry

     total magnetization       =   160.53 Bohr mag/cell
     absolute magnetization    =   167.30 Bohr mag/cell

     iteration # 29     ecut=    60.00 Ry     beta= 0.20
     Davidson diagonalization with overlap
     ethr =  4.08E-11,  avg # of iterations =  3.0

     negative rho (up, down):  2.520E-02 1.824E-02

     total cpu time spent up to now is     5323.5 secs

     total energy              =  -21094.96221613 Ry
     Harris-Foulkes estimate   =  -21094.96221595 Ry
     estimated scf accuracy    <       0.00000015 Ry

     total magnetization       =   160.54 Bohr mag/cell
     absolute magnetization    =   167.30 Bohr mag/cell

     iteration # 30     ecut=    60.00 Ry     beta= 0.20
     Davidson diagonalization with overlap
     ethr =  1.43E-11,  avg # of iterations =  3.0

     negative rho (up, down):  2.526E-02 1.823E-02

     total cpu time spent up to now is     5482.3 secs

     total energy              =  -21094.96221626 Ry
     Harris-Foulkes estimate   =  -21094.96221614 Ry
     estimated scf accuracy    <       0.00000007 Ry

     total magnetization       =   160.53 Bohr mag/cell
     absolute magnetization    =   167.30 Bohr mag/cell

     iteration # 31     ecut=    60.00 Ry     beta= 0.20
     Davidson diagonalization with overlap
     ethr =  6.79E-12,  avg # of iterations =  3.0

     negative rho (up, down):  2.524E-02 1.822E-02

     total cpu time spent up to now is     5635.6 secs

     total energy              =  -21094.96221633 Ry
     Harris-Foulkes estimate   =  -21094.96221627 Ry
     estimated scf accuracy    <       0.00000004 Ry

     total magnetization       =   160.53 Bohr mag/cell
     absolute magnetization    =   167.30 Bohr mag/cell

     iteration # 32     ecut=    60.00 Ry     beta= 0.20
     Davidson diagonalization with overlap
     ethr =  4.04E-12,  avg # of iterations =  2.5

     negative rho (up, down):  2.521E-02 1.823E-02

     total cpu time spent up to now is     5787.0 secs

     total energy              =  -21094.96221638 Ry
     Harris-Foulkes estimate   =  -21094.96221633 Ry
     estimated scf accuracy    <       0.00000002 Ry

     total magnetization       =   160.53 Bohr mag/cell
     absolute magnetization    =   167.30 Bohr mag/cell

     iteration # 33     ecut=    60.00 Ry     beta= 0.20
     Davidson diagonalization with overlap
     ethr =  2.01E-12,  avg # of iterations =  3.0

     negative rho (up, down):  2.520E-02 1.822E-02

     total cpu time spent up to now is     5947.5 secs

     total energy              =  -21094.96221640 Ry
     Harris-Foulkes estimate   =  -21094.96221638 Ry
     estimated scf accuracy    <       0.00000001 Ry

     total magnetization       =   160.53 Bohr mag/cell
     absolute magnetization    =   167.30 Bohr mag/cell

     iteration # 34     ecut=    60.00 Ry     beta= 0.20
     Davidson diagonalization with overlap
     ethr =  1.02E-12,  avg # of iterations =  2.5

     negative rho (up, down):  2.519E-02 1.822E-02

     Magnetic moment per site:
     atom:    1    charge:   12.5849    magn:    2.3517    constr:    0.0000
     atom:    2    charge:   12.5754    magn:    2.1914    constr:    0.0000
     atom:    3    charge:   12.5851    magn:    2.3542    constr:    0.0000
     atom:    4    charge:   12.5731    magn:    2.1896    constr:    0.0000
     atom:    5    charge:   12.5763    magn:    2.1881    constr:    0.0000
     atom:    6    charge:   12.5852    magn:    2.1856    constr:    0.0000
     atom:    7    charge:   12.5733    magn:    2.1707    constr:    0.0000
     atom:    8    charge:   12.5813    magn:    2.3691    constr:    0.0000
     atom:    9    charge:   12.5856    magn:    2.3458    constr:    0.0000
     atom:   10    charge:   12.5849    magn:    2.3567    constr:    0.0000
     atom:   11    charge:   12.5731    magn:    2.2018    constr:    0.0000
     atom:   12    charge:   12.5744    magn:    2.1902    constr:    0.0000
     atom:   13    charge:   12.5733    magn:    2.1859    constr:    0.0000
     atom:   14    charge:   12.5763    magn:    2.1265    constr:    0.0000
     atom:   15    charge:   12.5866    magn:    2.3261    constr:    0.0000
     atom:   16    charge:   12.5832    magn:    2.2470    constr:    0.0000
     atom:   17    charge:   12.5849    magn:    2.3540    constr:    0.0000
     atom:   18    charge:   12.5731    magn:    2.1898    constr:    0.0000
     atom:   19    charge:   12.5850    magn:    2.3551    constr:    0.0000
     atom:   20    charge:   12.5743    magn:    2.1916    constr:    0.0000
     atom:   21    charge:   12.5732    magn:    2.1703    constr:    0.0000
     atom:   22    charge:   12.5811    magn:    2.3686    constr:    0.0000
     atom:   23    charge:   12.5734    magn:    2.1686    constr:    0.0000
     atom:   24    charge:   12.5803    magn:    1.8635    constr:    0.0000
     atom:   25    charge:   12.5851    magn:    2.3691    constr:    0.0000
     atom:   26    charge:   12.5851    magn:    2.3460    constr:    0.0000
     atom:   27    charge:   12.5724    magn:    2.1891    constr:    0.0000
     atom:   28    charge:   12.5730    magn:    2.1978    constr:    0.0000
     atom:   29    charge:   12.5781    magn:    2.2174    constr:    0.0000
     atom:   30    charge:   12.5755    magn:    2.1068    constr:    0.0000
     atom:   31    charge:   12.5778    magn:    2.2385    constr:    0.0000
     atom:   32    charge:   12.5862    magn:    2.3219    constr:    0.0000
     atom:   33    charge:   12.5849    magn:    2.3524    constr:    0.0000
     atom:   34    charge:   12.5730    magn:    2.1848    constr:    0.0000
     atom:   35    charge:   12.5849    magn:    2.3517    constr:    0.0000
     atom:   36    charge:   12.5754    magn:    2.1912    constr:    0.0000
     atom:   37    charge:   12.5763    magn:    2.1749    constr:    0.0000
     atom:   38    charge:   12.5820    magn:    2.3586    constr:    0.0000
     atom:   39    charge:   12.5761    magn:    2.1883    constr:    0.0000
     atom:   40    charge:   12.5847    magn:    2.1954    constr:    0.0000
     atom:   41    charge:   12.5847    magn:    2.3614    constr:    0.0000
     atom:   42    charge:   12.5855    magn:    2.3461    constr:    0.0000
     atom:   43    charge:   12.5742    magn:    2.1905    constr:    0.0000
     atom:   44    charge:   12.5732    magn:    2.1979    constr:    0.0000
     atom:   45    charge:   12.5770    magn:    2.1722    constr:    0.0000
     atom:   46    charge:   12.5759    magn:    2.1062    constr:    0.0000
     atom:   47    charge:   12.5863    magn:    2.3680    constr:    0.0000
     atom:   48    charge:   12.5863    magn:    2.3223    constr:    0.0000
     atom:   49    charge:   12.5852    magn:    2.3553    constr:    0.0000
     atom:   50    charge:   12.5747    magn:    2.1911    constr:    0.0000
     atom:   51    charge:   12.5849    magn:    2.3524    constr:    0.0000
     atom:   52    charge:   12.5729    magn:    2.1846    constr:    0.0000
     atom:   53    charge:   12.5735    magn:    2.1689    constr:    0.0000
     atom:   54    charge:   12.5800    magn:    1.8637    constr:    0.0000
     atom:   55    charge:   12.5765    magn:    2.1743    constr:    0.0000
     atom:   56    charge:   12.5821    magn:    2.3587    constr:    0.0000
     atom:   57    charge:   12.5856    magn:    2.3458    constr:    0.0000
     atom:   58    charge:   12.5848    magn:    2.3562    constr:    0.0000
     atom:   59    charge:   12.5733    magn:    2.2020    constr:    0.0000
     atom:   60    charge:   12.5724    magn:    2.1910    constr:    0.0000
     atom:   61    charge:   12.5733    magn:    2.1858    constr:    0.0000
     atom:   62    charge:   12.5765    magn:    2.1332    constr:    0.0000
     atom:   63    charge:   12.5867    magn:    2.3262    constr:    0.0000
     atom:   64    charge:   12.5774    magn:    2.2411    constr:    0.0000
     atom:   65    charge:    0.4376    magn:    0.0070    constr:    0.0000
     atom:   66    charge:    1.3298    magn:   -0.0319    constr:    0.0000
     atom:   67    charge:    0.3535    magn:   -0.0202    constr:    0.0000

     total cpu time spent up to now is     6086.4 secs

     End of self-consistent calculation

 ------ SPIN UP ------------


          k = 0.0000 0.0000 0.0000 (128403 PWs)   bands (ev):

   -85.8546 -85.8493 -85.8115 -85.8070 -85.8066 -85.8034 -85.7915 -85.7899
   -85.7877 -85.7865 -85.7822 -85.7800 -85.7771 -85.7730 -85.7673 -85.7669
   -85.7667 -85.7621 -85.7596 -85.7594 -85.7584 -85.7573 -85.7536 -85.7515
   -85.7501 -85.7474 -85.7407 -85.7328 -85.7155 -85.7095 -85.7072 -85.7042
   -85.6901 -85.6714 -85.6589 -85.6575 -85.6541 -85.6513 -85.6474 -85.6435
   -85.6363 -85.6351 -85.6337 -85.6330 -85.6328 -85.6309 -85.6291 -85.6290
   -85.6285 -85.6266 -85.6246 -85.6227 -85.6221 -85.6214 -85.6193 -85.6168
   -85.6115 -85.6111 -85.6078 -85.6058 -85.6018 -85.5977 -85.5851 -85.5802
   -52.0412 -52.0311 -52.0046 -51.9968 -51.9934 -51.9924 -51.9910 -51.9827
   -51.9772 -51.9767 -51.9736 -51.9733 -51.9677 -51.9666 -51.9659 -51.9648
   -51.9604 -51.9577 -51.9563 -51.9553 -51.9510 -51.9502 -51.9496 -51.9479
   -51.9460 -51.9450 -51.9395 -51.9376 -51.9328 -51.9256 -51.9239 -51.9237
   -51.9182 -51.9158 -51.9116 -51.9076 -51.9068 -51.9030 -51.8978 -51.8912
   -51.8874 -51.8868 -51.8867 -51.8864 -51.8842 -51.8754 -51.8593 -51.8484
   -51.8375 -51.8365 -51.8352 -51.8300 -51.8270 -51.8223 -51.8216 -51.8184
   -51.8155 -51.8149 -51.8127 -51.8125 -51.8112 -51.8085 -51.8080 -51.8037
   -51.8023 -51.7991 -51.7982 -51.7952 -51.7931 -51.7906 -51.7887 -51.7873
   -51.7870 -51.7770 -51.7762 -51.7707 -51.7630 -51.7616 -51.7599 -51.7562
   -51.7545 -51.7543 -51.7537 -51.7481 -51.7479 -51.7468 -51.7458 -51.7448
   -51.7446 -51.7439 -51.7422 -51.7377 -51.7373 -51.7356 -51.7353 -51.7319
   -51.7304 -51.7291 -51.7258 -51.7197 -51.7185 -51.7133 -51.7088 -51.7086
   -51.7059 -51.7044 -51.7020 -51.6984 -51.6967 -51.6959 -51.6953 -51.6921
   -51.6918 -51.6891 -51.6856 -51.6828 -51.6818 -51.6812 -51.6782 -51.6753
   -51.6752 -51.6722 -51.6715 -51.6690 -51.6686 -51.6681 -51.6675 -51.6670
   -51.6657 -51.6644 -51.6611 -51.6535 -51.6509 -51.6505 -51.6497 -51.6487
   -51.6420 -51.6409 -51.6403 -51.6351 -51.6325 -51.6314 -51.6285 -51.6283
   -51.6283 -51.6269 -51.6136 -51.6127 -51.6125 -51.6079 -51.6049 -51.6019
   -51.5982 -51.5977 -51.5917 -51.5906 -51.5894 -51.5872 -51.5860 -51.5848
   -51.5835 -51.5826 -51.5774 -51.5768 -51.5764 -51.5757 -51.5719 -51.5699
   -51.5663 -51.5656 -51.5639 -51.5602 -51.5557 -51.5503 -51.5497 -51.5477
   -51.5464 -51.5450 -51.5388 -51.5374 -51.5373 -51.5332 -51.5298 -51.5296
   -51.5290 -51.5282 -51.5274 -51.5263 -51.5251 -51.5243 -51.5222 -51.5184
   -13.8842  -5.7787  -5.4082  -4.5553  -3.9740  -3.9715  -3.9088  -3.8834
    -3.6694  -3.4650  -3.3570  -3.2210  -3.2158  -2.9018  -2.8046  -2.7579
    -2.6197  -2.6032  -2.4821  -2.4405  -2.3328  -2.2763  -2.2752  -2.2315
    -2.2298  -2.2127  -2.1553  -2.1398  -2.0908  -2.0708  -1.8406  -1.8107
    -1.8009  -1.7706  -1.7205  -1.7186  -1.7133  -1.7023  -1.7000  -1.6909
    -1.6792  -1.6787  -1.6773  -1.6712  -1.6667  -1.6620  -1.6423  -1.6368
    -1.6240  -1.6208  -1.6166  -1.6090  -1.5962  -1.5891  -1.5839  -1.5642
    -1.5144  -1.5075  -1.4845  -1.4312  -1.4253  -1.4179  -1.4109  -1.4034
    -1.3338  -1.3258  -1.3061  -1.1329  -1.1274  -1.0978  -1.0972  -1.0954
    -1.0684  -1.0103  -0.9506  -0.9376  -0.9345  -0.9299  -0.9224  -0.9220
    -0.9179  -0.9026  -0.8927  -0.8830  -0.8822  -0.8767  -0.8756  -0.8700
    -0.8663  -0.8608  -0.8603  -0.8515  -0.8437  -0.8360  -0.8344  -0.8183
    -0.8114  -0.7948  -0.7870  -0.7842  -0.7766  -0.7702  -0.7677  -0.7617
    -0.7527  -0.7494  -0.7291  -0.7250  -0.7189  -0.7174  -0.7154  -0.7084
    -0.6473  -0.5938  -0.5665  -0.5469  -0.5443  -0.5408  -0.5368  -0.4809
    -0.4574  -0.4294  -0.4187  -0.3524  -0.3512  -0.3433  -0.3377  -0.3334
    -0.3280  -0.3122  -0.3042  -0.2946  -0.2704  -0.2696  -0.2453  -0.2381
    -0.2303  -0.2202  -0.2096  -0.2068  -0.2032  -0.1978  -0.1975  -0.1914
    -0.1870  -0.1717  -0.1391  -0.1307  -0.1059  -0.0454  -0.0416  -0.0410
    -0.0403  -0.0184  -0.0148   0.0063   0.0101   0.0157   0.0175   0.0305
     0.0466   0.0757   0.0797   0.0905   0.1035   0.1059   0.1094   0.1112
     0.1271   0.1432   0.1473   0.1680   0.1866   0.1953   0.2068   0.2082
     0.2208   0.2241   0.2296   0.2397   0.2398   0.2411   0.2585   0.2591
     0.2956   0.2969   0.3535   0.3603   0.3672   0.4788   0.4831   0.6183
     0.6238   0.6432   0.7489   0.7529   0.7638   0.7682   0.7777   0.7778
     0.7820   0.7899   0.8015   0.8237   0.8327   0.8356   0.8378   0.8577
     0.8992   0.9019   0.9027   0.9152   0.9282   0.9381   0.9514   0.9560
     0.9584   0.9653   0.9769   0.9771   0.9827   0.9872   1.0101   1.0271
     1.0306   1.0371   1.0522   1.0555   1.0697   1.0726   1.0836   1.0851
     1.0909   1.1046   1.1062   1.1108   1.1136   1.1209   1.1352   1.1383
     1.1388   1.1600   1.1726   1.1735   1.1796   1.1835   1.1887   1.1917
     1.1928   1.1932   1.1975   1.1983   1.2045   1.2073   1.2100   1.2121
     1.2195   1.2221   1.2287   1.2297   1.2418   1.2426   1.2494   1.2528
     1.2587   1.2685   1.2752   1.2815   1.2888   1.2962   1.2993   1.3092
     1.3150   1.3161   1.3175   1.3215   1.3282   1.3299   1.3336   1.3418
     1.3641   1.3647   1.3937   1.3942   1.4110   1.4204   1.4279   1.4350
     1.4452   1.4463   1.4603   1.4688   1.5326   1.5401   1.5412   1.5706
     1.5716   1.5766   1.5844   1.5914   1.6052   1.6053   1.6085   1.6097
     1.6184   1.6289   1.6343   1.6366   1.6408   1.6556   1.6687   1.6707
     1.6777   1.6791   1.7335   1.7605   1.8679   1.9151   2.0657   2.0734
     2.0768   2.0950   2.1355   2.1602   2.1653   2.1993   2.2038   2.2342
     2.2356   2.2542   2.2829   2.3262   2.3366   2.3404   2.3618   2.4017
     2.4104   2.4175   2.4188   2.4571   2.5281   2.5513   2.5809   2.6536
     2.6546   2.7444   2.9158   2.9431   3.0008   3.3674   3.3897   3.4057
     3.4111   3.5888   3.6187   3.7746   4.0649   4.2129   4.2467   4.3006
     4.3014   4.3019   4.3517

          k = 0.0000 0.2652 0.0000 (128375 PWs)   bands (ev):

   -85.8546 -85.8493 -85.8111 -85.8084 -85.8055 -85.8021 -85.7933 -85.7917
   -85.7866 -85.7866 -85.7816 -85.7800 -85.7763 -85.7728 -85.7704 -85.7672
   -85.7623 -85.7618 -85.7611 -85.7600 -85.7584 -85.7562 -85.7530 -85.7530
   -85.7505 -85.7460 -85.7414 -85.7327 -85.7155 -85.7095 -85.7072 -85.7042
   -85.6899 -85.6709 -85.6626 -85.6570 -85.6525 -85.6506 -85.6456 -85.6415
   -85.6389 -85.6368 -85.6353 -85.6345 -85.6316 -85.6307 -85.6291 -85.6285
   -85.6276 -85.6258 -85.6246 -85.6233 -85.6223 -85.6193 -85.6185 -85.6173
   -85.6128 -85.6110 -85.6090 -85.6068 -85.6003 -85.5970 -85.5847 -85.5809
   -52.0403 -52.0313 -52.0042 -51.9977 -51.9927 -51.9918 -51.9898 -51.9839
   -51.9794 -51.9768 -51.9743 -51.9730 -51.9688 -51.9661 -51.9637 -51.9620
   -51.9597 -51.9574 -51.9567 -51.9552 -51.9527 -51.9505 -51.9487 -51.9475
   -51.9451 -51.9429 -51.9406 -51.9331 -51.9315 -51.9265 -51.9232 -51.9175
   -51.9152 -51.9127 -51.9096 -51.9067 -51.9041 -51.9004 -51.8980 -51.8945
   -51.8892 -51.8881 -51.8864 -51.8816 -51.8742 -51.8710 -51.8547 -51.8530
   -51.8482 -51.8397 -51.8370 -51.8344 -51.8324 -51.8306 -51.8268 -51.8236
   -51.8215 -51.8159 -51.8139 -51.8105 -51.8088 -51.8071 -51.8046 -51.8039
   -51.8027 -51.8010 -51.8007 -51.7972 -51.7967 -51.7925 -51.7909 -51.7873
   -51.7847 -51.7842 -51.7801 -51.7784 -51.7772 -51.7713 -51.7671 -51.7646
   -51.7620 -51.7590 -51.7569 -51.7549 -51.7535 -51.7512 -51.7467 -51.7442
   -51.7422 -51.7375 -51.7357 -51.7349 -51.7325 -51.7305 -51.7294 -51.7271
   -51.7243 -51.7233 -51.7198 -51.7183 -51.7155 -51.7136 -51.7106 -51.7073
   -51.7070 -51.7051 -51.7026 -51.7014 -51.6985 -51.6978 -51.6953 -51.6932
   -51.6914 -51.6897 -51.6889 -51.6867 -51.6839 -51.6819 -51.6771 -51.6762
   -51.6731 -51.6715 -51.6698 -51.6672 -51.6654 -51.6630 -51.6618 -51.6596
   -51.6586 -51.6550 -51.6546 -51.6526 -51.6488 -51.6465 -51.6461 -51.6421
   -51.6400 -51.6384 -51.6367 -51.6337 -51.6326 -51.6293 -51.6265 -51.6240
   -51.6214 -51.6203 -51.6187 -51.6137 -51.6094 -51.6057 -51.6042 -51.6001
   -51.5994 -51.5969 -51.5961 -51.5945 -51.5913 -51.5885 -51.5851 -51.5837
   -51.5827 -51.5810 -51.5802 -51.5765 -51.5726 -51.5707 -51.5682 -51.5664
   -51.5649 -51.5624 -51.5603 -51.5586 -51.5560 -51.5510 -51.5507 -51.5493
   -51.5479 -51.5464 -51.5434 -51.5419 -51.5380 -51.5370 -51.5359 -51.5341
   -51.5330 -51.5310 -51.5304 -51.5298 -51.5284 -51.5273 -51.5232 -51.5205
   -13.8842  -5.7260  -5.3572  -4.6673  -4.3811  -4.0410  -3.8784  -3.6821
    -3.5993  -3.4156  -3.2210  -3.1660  -3.0098  -2.9217  -2.8146  -2.7424
    -2.6009  -2.5553  -2.5118  -2.4054  -2.3392  -2.3143  -2.2375  -2.2143
    -2.1839  -2.1693  -2.1524  -2.1134  -2.0863  -2.0388  -1.9665  -1.8941
    -1.8608  -1.8352  -1.8213  -1.8112  -1.8043  -1.7906  -1.7854  -1.7730
    -1.7460  -1.7296  -1.7192  -1.7069  -1.6906  -1.6715  -1.6551  -1.6473
    -1.6252  -1.6164  -1.6117  -1.5942  -1.5898  -1.5366  -1.5310  -1.5238
    -1.5147  -1.5086  -1.4933  -1.4510  -1.4293  -1.3725  -1.3553  -1.3438
    -1.3125  -1.3023  -1.2641  -1.2144  -1.2049  -1.1567  -1.1085  -1.0737
    -1.0472  -1.0346  -1.0232  -0.9988  -0.9468  -0.9350  -0.9231  -0.9187
    -0.9079  -0.8999  -0.8936  -0.8831  -0.8781  -0.8698  -0.8617  -0.8589
    -0.8518  -0.8382  -0.8348  -0.8261  -0.8233  -0.8099  -0.7998  -0.7935
    -0.7869  -0.7815  -0.7789  -0.7737  -0.7657  -0.7576  -0.7463  -0.7364
    -0.7113  -0.6949  -0.6852  -0.6801  -0.6713  -0.6650  -0.6518  -0.6289
    -0.6272  -0.6184  -0.6113  -0.5847  -0.5623  -0.5158  -0.4996  -0.4740
    -0.4558  -0.4387  -0.4283  -0.4200  -0.4106  -0.3772  -0.3503  -0.3291
    -0.3228  -0.3129  -0.3079  -0.2958  -0.2933  -0.2796  -0.2780  -0.2703
    -0.2601  -0.2394  -0.2327  -0.2258  -0.2225  -0.2145  -0.1932  -0.1737
    -0.1697  -0.1601  -0.1243  -0.0997  -0.0765  -0.0716  -0.0611  -0.0539
    -0.0464  -0.0297  -0.0266  -0.0195  -0.0189  -0.0131  -0.0022   0.0050
     0.0122   0.0200   0.0322   0.0412   0.0508   0.0704   0.0792   0.1051
     0.1282   0.1395   0.1577   0.1697   0.1831   0.1953   0.2031   0.2280
     0.2373   0.2496   0.2625   0.2753   0.3057   0.3245   0.3444   0.3608
     0.3793   0.4008   0.4214   0.4391   0.4511   0.5005   0.5902   0.6307
     0.6397   0.6455   0.6790   0.6944   0.7111   0.7264   0.7356   0.7585
     0.7772   0.7899   0.7932   0.8021   0.8095   0.8250   0.8274   0.8367
     0.8496   0.8727   0.8810   0.8843   0.9027   0.9148   0.9460   0.9545
     0.9637   0.9719   0.9757   0.9848   0.9869   0.9994   1.0040   1.0155
     1.0184   1.0248   1.0353   1.0412   1.0719   1.0850   1.0892   1.0911
     1.0991   1.1057   1.1139   1.1197   1.1234   1.1309   1.1363   1.1414
     1.1482   1.1498   1.1590   1.1664   1.1704   1.1732   1.1829   1.1927
     1.1982   1.2067   1.2124   1.2188   1.2231   1.2310   1.2388   1.2410
     1.2440   1.2481   1.2508   1.2652   1.2660   1.2705   1.2726   1.2845
     1.2907   1.2937   1.3057   1.3069   1.3085   1.3132   1.3168   1.3176
     1.3276   1.3315   1.3500   1.3553   1.3596   1.3693   1.3793   1.3818
     1.3910   1.4024   1.4253   1.4476   1.4521   1.4563   1.4635   1.4702
     1.4781   1.4860   1.4980   1.5079   1.5131   1.5152   1.5218   1.5305
     1.5510   1.5614   1.5834   1.5854   1.5880   1.5958   1.6105   1.6155
     1.6286   1.6307   1.6360   1.6491   1.6595   1.6815   1.7237   1.7323
     1.7688   1.7804   1.8165   1.8613   1.9197   2.0084   2.0160   2.0341
     2.0537   2.0552   2.0887   2.0929   2.1088   2.1393   2.1686   2.1728
     2.1796   2.1955   2.2066   2.2225   2.2268   2.2494   2.2613   2.2925
     2.3056   2.3145   2.3562   2.3868   2.4188   2.4499   2.4587   2.5905
     2.6355   2.8413   2.9436   3.0331   3.0552   3.2285   3.3185   3.4137
     3.4746   3.5749   3.6012   3.7032   3.7681   3.8502   3.9751   4.0017
     4.1852   4.1974   4.2606

          k = 0.0000-0.5303 0.0000 (128388 PWs)   bands (ev):

   -85.8546 -85.8493 -85.8101 -85.8098 -85.8050 -85.7993 -85.7974 -85.7918
   -85.7867 -85.7847 -85.7834 -85.7780 -85.7777 -85.7722 -85.7711 -85.7656
   -85.7649 -85.7613 -85.7605 -85.7581 -85.7579 -85.7561 -85.7554 -85.7518
   -85.7516 -85.7437 -85.7434 -85.7326 -85.7156 -85.7095 -85.7072 -85.7041
   -85.6897 -85.6702 -85.6651 -85.6571 -85.6529 -85.6470 -85.6452 -85.6409
   -85.6398 -85.6384 -85.6369 -85.6336 -85.6317 -85.6311 -85.6297 -85.6283
   -85.6271 -85.6253 -85.6248 -85.6238 -85.6217 -85.6186 -85.6168 -85.6157
   -85.6149 -85.6128 -85.6090 -85.6075 -85.5996 -85.5963 -85.5838 -85.5821
   -52.0394 -52.0315 -52.0035 -51.9988 -51.9924 -51.9903 -51.9877 -51.9865
   -51.9811 -51.9770 -51.9748 -51.9724 -51.9699 -51.9628 -51.9619 -51.9614
   -51.9608 -51.9588 -51.9574 -51.9528 -51.9526 -51.9501 -51.9498 -51.9449
   -51.9447 -51.9432 -51.9414 -51.9291 -51.9288 -51.9246 -51.9225 -51.9172
   -51.9098 -51.9081 -51.9054 -51.9028 -51.9019 -51.9013 -51.8990 -51.8967
   -51.8945 -51.8857 -51.8784 -51.8747 -51.8657 -51.8629 -51.8607 -51.8552
   -51.8515 -51.8460 -51.8443 -51.8438 -51.8414 -51.8376 -51.8356 -51.8329
   -51.8299 -51.8184 -51.8140 -51.8110 -51.8088 -51.8069 -51.8050 -51.8019
   -51.8003 -51.7983 -51.7949 -51.7935 -51.7929 -51.7914 -51.7896 -51.7875
   -51.7855 -51.7845 -51.7828 -51.7803 -51.7772 -51.7749 -51.7727 -51.7707
   -51.7674 -51.7663 -51.7639 -51.7623 -51.7598 -51.7593 -51.7576 -51.7550
   -51.7505 -51.7454 -51.7404 -51.7321 -51.7294 -51.7279 -51.7270 -51.7251
   -51.7230 -51.7200 -51.7187 -51.7137 -51.7130 -51.7120 -51.7118 -51.7077
   -51.7003 -51.6988 -51.6964 -51.6931 -51.6924 -51.6912 -51.6904 -51.6901
   -51.6888 -51.6870 -51.6858 -51.6857 -51.6823 -51.6807 -51.6795 -51.6754
   -51.6734 -51.6720 -51.6695 -51.6689 -51.6649 -51.6643 -51.6624 -51.6592
   -51.6581 -51.6558 -51.6530 -51.6485 -51.6446 -51.6442 -51.6423 -51.6410
   -51.6395 -51.6334 -51.6302 -51.6294 -51.6265 -51.6255 -51.6241 -51.6229
   -51.6200 -51.6170 -51.6146 -51.6139 -51.6133 -51.6112 -51.6059 -51.6037
   -51.6037 -51.6012 -51.5933 -51.5903 -51.5872 -51.5864 -51.5860 -51.5844
   -51.5806 -51.5766 -51.5697 -51.5677 -51.5670 -51.5658 -51.5645 -51.5628
   -51.5606 -51.5586 -51.5584 -51.5565 -51.5548 -51.5535 -51.5527 -51.5519
   -51.5514 -51.5500 -51.5475 -51.5467 -51.5460 -51.5445 -51.5433 -51.5420
   -51.5415 -51.5400 -51.5356 -51.5308 -51.5283 -51.5277 -51.5234 -51.5215
   -13.8842  -5.6717  -5.2058  -4.9994  -4.3900  -4.0109  -3.9847  -3.7621
    -3.5249  -3.3031  -3.1466  -3.0940  -2.9629  -2.8896  -2.7134  -2.5928
    -2.5647  -2.4841  -2.4713  -2.4224  -2.3593  -2.3110  -2.2677  -2.2436
    -2.1801  -2.1243  -2.1013  -2.0591  -2.0451  -2.0367  -2.0262  -2.0134
    -2.0028  -1.9996  -1.9779  -1.9620  -1.9495  -1.8856  -1.8756  -1.8252
    -1.7707  -1.7265  -1.6810  -1.6760  -1.6671  -1.6642  -1.6584  -1.5910
    -1.5791  -1.5734  -1.5682  -1.5664  -1.5546  -1.5497  -1.5440  -1.5353
    -1.5091  -1.4760  -1.4450  -1.4182  -1.4068  -1.3999  -1.3871  -1.3679
    -1.3123  -1.3021  -1.2666  -1.2604  -1.2197  -1.1985  -1.1949  -1.1822
    -1.1366  -1.0697  -1.0383  -0.9573  -0.9534  -0.9299  -0.9247  -0.9087
    -0.9005  -0.8942  -0.8770  -0.8683  -0.8644  -0.8550  -0.8489  -0.8481
    -0.8413  -0.8345  -0.8226  -0.8153  -0.8120  -0.8115  -0.7970  -0.7854
    -0.7828  -0.7710  -0.7642  -0.7118  -0.7067  -0.6903  -0.6789  -0.6657
    -0.6617  -0.6493  -0.6381  -0.6364  -0.6274  -0.6238  -0.6182  -0.6150
    -0.6072  -0.5968  -0.5910  -0.5797  -0.5647  -0.5557  -0.5492  -0.5269
    -0.5158  -0.5012  -0.4229  -0.4059  -0.3900  -0.3352  -0.3267  -0.3186
    -0.3007  -0.2983  -0.2955  -0.2885  -0.2838  -0.2784  -0.2688  -0.2688
    -0.2576  -0.2570  -0.2526  -0.2494  -0.2372  -0.2293  -0.2212  -0.2144
    -0.2055  -0.1986  -0.1843  -0.1833  -0.1754  -0.1394  -0.1312  -0.1202
    -0.1023  -0.0890  -0.0881  -0.0707  -0.0687  -0.0547  -0.0414  -0.0283
    -0.0062   0.0008   0.0091   0.0324   0.0721   0.0752   0.0847   0.1135
     0.1492   0.1812   0.2004   0.2075   0.2209   0.2249   0.2347   0.2449
     0.2573   0.2650   0.3067   0.3462   0.4108   0.4832   0.5008   0.5054
     0.5149   0.5231   0.5434   0.5628   0.5672   0.5798   0.5953   0.6197
     0.6329   0.6542   0.6613   0.6707   0.6722   0.6821   0.7062   0.7110
     0.7194   0.7246   0.7301   0.7322   0.7568   0.7870   0.8211   0.8422
     0.8529   0.8566   0.8658   0.8691   0.8933   0.8969   0.9004   0.9084
     0.9442   0.9492   0.9642   0.9900   1.0031   1.0050   1.0098   1.0111
     1.0120   1.0160   1.0214   1.0283   1.0342   1.0420   1.0474   1.0508
     1.0519   1.0568   1.0596   1.0747   1.0773   1.0887   1.1447   1.1500
     1.1573   1.1640   1.1741   1.1766   1.1842   1.1859   1.1895   1.2039
     1.2044   1.2198   1.2213   1.2267   1.2285   1.2330   1.2382   1.2438
     1.2454   1.2573   1.2645   1.2655   1.2772   1.2820   1.2972   1.2992
     1.3043   1.3110   1.3307   1.3356   1.3522   1.3569   1.3685   1.3706
     1.3750   1.3806   1.3965   1.4012   1.4117   1.4156   1.4250   1.4535
     1.4560   1.4591   1.4593   1.4645   1.4684   1.4727   1.4734   1.4812
     1.4833   1.4887   1.4949   1.4952   1.5046   1.5078   1.5159   1.5181
     1.5202   1.5596   1.5758   1.5820   1.5969   1.6581   1.6665   1.6908
     1.7048   1.7362   1.7420   1.7563   1.7699   1.7844   1.8681   1.8699
     1.8880   1.8933   1.8951   1.9119   1.9293   1.9368   1.9471   1.9717
     1.9903   1.9933   2.0123   2.0266   2.0337   2.0423   2.0629   2.1174
     2.1362   2.1425   2.1728   2.1821   2.1876   2.2114   2.2159   2.2282
     2.2429   2.2544   2.2717   2.2841   2.2846   2.2998   2.3073   2.4294
     2.5631   2.5952   2.7569   2.8179   2.9182   3.0190   3.2868   3.3600
     3.3804   3.6253   3.9247   3.9775   4.0330   4.0783   4.0880   4.1255
     4.1706   4.1787   4.1977

          k = 0.2500-0.0884 0.0000 (128371 PWs)   bands (ev):

   -85.8546 -85.8493 -85.8111 -85.8083 -85.8055 -85.8021 -85.7933 -85.7917
   -85.7866 -85.7866 -85.7816 -85.7800 -85.7763 -85.7728 -85.7704 -85.7672
   -85.7623 -85.7617 -85.7611 -85.7600 -85.7584 -85.7562 -85.7530 -85.7530
   -85.7505 -85.7460 -85.7414 -85.7327 -85.7155 -85.7096 -85.7072 -85.7042
   -85.6899 -85.6709 -85.6626 -85.6570 -85.6525 -85.6506 -85.6456 -85.6415
   -85.6389 -85.6368 -85.6352 -85.6345 -85.6315 -85.6307 -85.6291 -85.6286
   -85.6275 -85.6258 -85.6246 -85.6233 -85.6223 -85.6195 -85.6185 -85.6172
   -85.6128 -85.6110 -85.6090 -85.6068 -85.6004 -85.5970 -85.5847 -85.5809
   -52.0403 -52.0313 -52.0042 -51.9977 -51.9927 -51.9918 -51.9898 -51.9839
   -51.9794 -51.9767 -51.9743 -51.9730 -51.9688 -51.9661 -51.9637 -51.9621
   -51.9597 -51.9574 -51.9567 -51.9552 -51.9527 -51.9505 -51.9487 -51.9475
   -51.9451 -51.9429 -51.9406 -51.9332 -51.9315 -51.9265 -51.9231 -51.9175
   -51.9157 -51.9126 -51.9093 -51.9061 -51.9046 -51.9005 -51.8977 -51.8946
   -51.8895 -51.8881 -51.8864 -51.8815 -51.8742 -51.8709 -51.8547 -51.8531
   -51.8482 -51.8396 -51.8369 -51.8345 -51.8324 -51.8306 -51.8268 -51.8236
   -51.8215 -51.8159 -51.8138 -51.8105 -51.8088 -51.8071 -51.8046 -51.8039
   -51.8027 -51.8009 -51.8007 -51.7973 -51.7967 -51.7925 -51.7912 -51.7872
   -51.7846 -51.7843 -51.7802 -51.7783 -51.7773 -51.7713 -51.7671 -51.7648
   -51.7618 -51.7589 -51.7570 -51.7549 -51.7535 -51.7513 -51.7466 -51.7442
   -51.7422 -51.7377 -51.7357 -51.7350 -51.7325 -51.7304 -51.7295 -51.7269
   -51.7242 -51.7234 -51.7196 -51.7184 -51.7154 -51.7137 -51.7106 -51.7073
   -51.7070 -51.7050 -51.7026 -51.7013 -51.6986 -51.6978 -51.6954 -51.6932
   -51.6914 -51.6898 -51.6890 -51.6867 -51.6837 -51.6818 -51.6771 -51.6762
   -51.6731 -51.6715 -51.6698 -51.6672 -51.6655 -51.6630 -51.6618 -51.6596
   -51.6585 -51.6551 -51.6546 -51.6528 -51.6488 -51.6465 -51.6461 -51.6421
   -51.6400 -51.6384 -51.6367 -51.6338 -51.6325 -51.6294 -51.6265 -51.6240
   -51.6214 -51.6203 -51.6187 -51.6136 -51.6094 -51.6058 -51.6042 -51.6001
   -51.5994 -51.5970 -51.5960 -51.5945 -51.5913 -51.5884 -51.5852 -51.5836
   -51.5828 -51.5811 -51.5800 -51.5766 -51.5725 -51.5707 -51.5682 -51.5664
   -51.5649 -51.5624 -51.5602 -51.5587 -51.5559 -51.5511 -51.5506 -51.5493
   -51.5478 -51.5464 -51.5434 -51.5419 -51.5380 -51.5370 -51.5359 -51.5341
   -51.5330 -51.5310 -51.5304 -51.5298 -51.5284 -51.5273 -51.5232 -51.5205
   -13.8842  -5.7260  -5.3572  -4.6671  -4.3813  -4.0411  -3.8784  -3.6820
    -3.5990  -3.4157  -3.2210  -3.1663  -3.0099  -2.9217  -2.8146  -2.7425
    -2.6007  -2.5549  -2.5116  -2.4055  -2.3394  -2.3142  -2.2377  -2.2143
    -2.1839  -2.1692  -2.1524  -2.1134  -2.0862  -2.0391  -1.9666  -1.8939
    -1.8608  -1.8352  -1.8213  -1.8112  -1.8043  -1.7906  -1.7854  -1.7730
    -1.7461  -1.7297  -1.7194  -1.7069  -1.6908  -1.6715  -1.6551  -1.6473
    -1.6251  -1.6164  -1.6118  -1.5942  -1.5897  -1.5363  -1.5310  -1.5238
    -1.5148  -1.5086  -1.4931  -1.4512  -1.4293  -1.3726  -1.3551  -1.3438
    -1.3125  -1.3024  -1.2640  -1.2144  -1.2049  -1.1566  -1.1086  -1.0738
    -1.0471  -1.0345  -1.0230  -0.9988  -0.9468  -0.9351  -0.9230  -0.9188
    -0.9079  -0.9000  -0.8937  -0.8831  -0.8781  -0.8697  -0.8616  -0.8590
    -0.8519  -0.8380  -0.8350  -0.8262  -0.8234  -0.8098  -0.7998  -0.7936
    -0.7870  -0.7813  -0.7788  -0.7737  -0.7656  -0.7576  -0.7463  -0.7362
    -0.7116  -0.6949  -0.6852  -0.6801  -0.6712  -0.6647  -0.6518  -0.6288
    -0.6273  -0.6184  -0.6114  -0.5847  -0.5623  -0.5158  -0.4995  -0.4740
    -0.4557  -0.4387  -0.4284  -0.4200  -0.4106  -0.3773  -0.3502  -0.3291
    -0.3227  -0.3129  -0.3079  -0.2959  -0.2933  -0.2796  -0.2780  -0.2703
    -0.2601  -0.2392  -0.2325  -0.2258  -0.2225  -0.2143  -0.1932  -0.1735
    -0.1697  -0.1601  -0.1243  -0.1000  -0.0767  -0.0715  -0.0612  -0.0538
    -0.0465  -0.0296  -0.0264  -0.0195  -0.0190  -0.0131  -0.0022   0.0049
     0.0121   0.0199   0.0323   0.0411   0.0506   0.0702   0.0792   0.1054
     0.1282   0.1395   0.1575   0.1698   0.1830   0.1953   0.2030   0.2280
     0.2373   0.2496   0.2625   0.2754   0.3058   0.3244   0.3447   0.3606
     0.3792   0.4009   0.4212   0.4391   0.4512   0.5002   0.5900   0.6308
     0.6397   0.6455   0.6789   0.6948   0.7108   0.7265   0.7356   0.7585
     0.7771   0.7899   0.7932   0.8021   0.8093   0.8248   0.8275   0.8366
     0.8497   0.8727   0.8810   0.8842   0.9024   0.9145   0.9462   0.9545
     0.9637   0.9718   0.9758   0.9846   0.9870   0.9994   1.0041   1.0156
     1.0184   1.0248   1.0353   1.0412   1.0719   1.0852   1.0891   1.0910
     1.0991   1.1056   1.1138   1.1196   1.1233   1.1310   1.1363   1.1414
     1.1483   1.1498   1.1590   1.1665   1.1704   1.1731   1.1829   1.1927
     1.1983   1.2066   1.2125   1.2187   1.2231   1.2310   1.2389   1.2410
     1.2440   1.2481   1.2508   1.2652   1.2660   1.2706   1.2726   1.2845
     1.2907   1.2937   1.3055   1.3068   1.3087   1.3132   1.3168   1.3177
     1.3275   1.3314   1.3499   1.3554   1.3596   1.3692   1.3793   1.3818
     1.3910   1.4024   1.4252   1.4475   1.4521   1.4562   1.4635   1.4702
     1.4780   1.4861   1.4980   1.5079   1.5131   1.5153   1.5216   1.5307
     1.5510   1.5614   1.5834   1.5854   1.5880   1.5958   1.6105   1.6155
     1.6285   1.6307   1.6359   1.6492   1.6596   1.6815   1.7234   1.7324
     1.7688   1.7805   1.8162   1.8614   1.9196   2.0087   2.0161   2.0341
     2.0536   2.0552   2.0887   2.0929   2.1087   2.1393   2.1685   2.1728
     2.1795   2.1955   2.2064   2.2225   2.2269   2.2494   2.2613   2.2926
     2.3056   2.3145   2.3565   2.3867   2.4189   2.4498   2.4587   2.5903
     2.6354   2.8412   2.9445   3.0334   3.0550   3.2282   3.3184   3.4134
     3.4753   3.5745   3.6009   3.7031   3.7678   3.8502   3.9751   4.0020
     4.1862   4.1977   4.2609

          k = 0.2500 0.1768 0.0000 (128340 PWs)   bands (ev):

   -85.8546 -85.8493 -85.8111 -85.8071 -85.8067 -85.8012 -85.7934 -85.7916
   -85.7867 -85.7856 -85.7853 -85.7820 -85.7746 -85.7692 -85.7673 -85.7667
   -85.7658 -85.7643 -85.7611 -85.7606 -85.7564 -85.7561 -85.7533 -85.7519
   -85.7515 -85.7446 -85.7428 -85.7326 -85.7155 -85.7096 -85.7072 -85.7042
   -85.6897 -85.6703 -85.6629 -85.6577 -85.6543 -85.6512 -85.6457 -85.6390
   -85.6378 -85.6351 -85.6333 -85.6329 -85.6324 -85.6313 -85.6300 -85.6298
   -85.6275 -85.6274 -85.6249 -85.6236 -85.6220 -85.6216 -85.6186 -85.6177
   -85.6131 -85.6091 -85.6084 -85.6076 -85.5998 -85.5964 -85.5849 -85.5813
   -52.0398 -52.0314 -52.0038 -51.9981 -51.9925 -51.9915 -51.9891 -51.9817
   -51.9796 -51.9760 -51.9758 -51.9718 -51.9702 -51.9692 -51.9621 -51.9615
   -51.9585 -51.9574 -51.9562 -51.9532 -51.9523 -51.9514 -51.9503 -51.9482
   -51.9443 -51.9434 -51.9397 -51.9295 -51.9293 -51.9278 -51.9234 -51.9147
   -51.9114 -51.9091 -51.9089 -51.9033 -51.9012 -51.8997 -51.8969 -51.8851
   -51.8847 -51.8816 -51.8807 -51.8795 -51.8791 -51.8693 -51.8545 -51.8535
   -51.8491 -51.8466 -51.8426 -51.8396 -51.8383 -51.8348 -51.8329 -51.8283
   -51.8258 -51.8233 -51.8197 -51.8188 -51.8156 -51.8120 -51.8054 -51.8049
   -51.8022 -51.8011 -51.8003 -51.7997 -51.7978 -51.7954 -51.7932 -51.7881
   -51.7880 -51.7849 -51.7812 -51.7805 -51.7723 -51.7722 -51.7691 -51.7684
   -51.7664 -51.7617 -51.7601 -51.7586 -51.7527 -51.7502 -51.7493 -51.7453
   -51.7399 -51.7393 -51.7377 -51.7359 -51.7323 -51.7300 -51.7291 -51.7262
   -51.7237 -51.7236 -51.7174 -51.7158 -51.7145 -51.7110 -51.7090 -51.7077
   -51.7069 -51.7052 -51.7050 -51.7013 -51.7007 -51.6977 -51.6963 -51.6956
   -51.6928 -51.6911 -51.6854 -51.6816 -51.6768 -51.6767 -51.6735 -51.6732
   -51.6727 -51.6691 -51.6683 -51.6669 -51.6629 -51.6621 -51.6611 -51.6604
   -51.6578 -51.6543 -51.6515 -51.6487 -51.6469 -51.6450 -51.6371 -51.6359
   -51.6355 -51.6349 -51.6331 -51.6299 -51.6299 -51.6265 -51.6260 -51.6195
   -51.6185 -51.6180 -51.6159 -51.6154 -51.6136 -51.6106 -51.6081 -51.6000
   -51.5989 -51.5939 -51.5917 -51.5902 -51.5855 -51.5849 -51.5834 -51.5804
   -51.5803 -51.5775 -51.5773 -51.5760 -51.5742 -51.5706 -51.5687 -51.5667
   -51.5665 -51.5645 -51.5598 -51.5582 -51.5573 -51.5528 -51.5511 -51.5488
   -51.5486 -51.5476 -51.5450 -51.5427 -51.5421 -51.5383 -51.5381 -51.5368
   -51.5360 -51.5353 -51.5347 -51.5334 -51.5328 -51.5321 -51.5291 -51.5231
   -13.8842  -5.7158  -5.3252  -4.5575  -4.2957  -4.2584  -4.1351  -3.7437
    -3.4357  -3.4021  -3.2433  -3.2026  -2.9744  -2.8822  -2.8485  -2.7086
    -2.5895  -2.4589  -2.4343  -2.3266  -2.2393  -2.2334  -2.2234  -2.1830
    -2.1706  -2.1188  -2.1049  -2.1037  -2.0818  -2.0071  -1.9918  -1.9810
    -1.8985  -1.8738  -1.8718  -1.8582  -1.7989  -1.7820  -1.7818  -1.7675
    -1.7463  -1.7352  -1.7325  -1.7194  -1.7135  -1.7112  -1.7039  -1.7013
    -1.6636  -1.6603  -1.6320  -1.6215  -1.6058  -1.5985  -1.5603  -1.5340
    -1.5290  -1.4785  -1.4642  -1.4506  -1.3693  -1.3662  -1.3310  -1.3245
    -1.3010  -1.2490  -1.2352  -1.2269  -1.1959  -1.1933  -1.1550  -1.1228
    -1.0592  -1.0460  -1.0254  -0.9664  -0.9578  -0.9500  -0.9481  -0.9340
    -0.9264  -0.9246  -0.9211  -0.9200  -0.9128  -0.9101  -0.9022  -0.8959
    -0.8952  -0.8737  -0.8622  -0.8487  -0.8197  -0.8070  -0.7909  -0.7773
    -0.7716  -0.7423  -0.7402  -0.7211  -0.7196  -0.7170  -0.7096  -0.6992
    -0.6884  -0.6731  -0.6657  -0.6598  -0.6350  -0.6212  -0.5949  -0.5827
    -0.5763  -0.5632  -0.5517  -0.5241  -0.5161  -0.5142  -0.5115  -0.5067
    -0.5010  -0.4900  -0.4868  -0.4720  -0.4652  -0.4456  -0.4117  -0.4064
    -0.3942  -0.3612  -0.3346  -0.3147  -0.3062  -0.3000  -0.2971  -0.2871
    -0.2747  -0.2586  -0.2424  -0.2244  -0.2125  -0.2102  -0.2012  -0.1892
    -0.1698  -0.1667  -0.1507  -0.1416  -0.1353  -0.1141  -0.1025  -0.0647
    -0.0627  -0.0402  -0.0379  -0.0223  -0.0118  -0.0083  -0.0058   0.0146
     0.0207   0.0454   0.0634   0.0802   0.0875   0.0959   0.1047   0.1067
     0.1118   0.1180   0.1286   0.1292   0.1397   0.1481   0.1503   0.1644
     0.1788   0.1879   0.2297   0.2358   0.2649   0.3546   0.4061   0.4258
     0.4336   0.4666   0.4727   0.5378   0.5594   0.5663   0.6044   0.6160
     0.6363   0.6597   0.6769   0.6887   0.6914   0.7226   0.7238   0.7655
     0.7735   0.7854   0.7952   0.8055   0.8093   0.8256   0.8259   0.8535
     0.8642   0.8705   0.8793   0.8832   0.8928   0.9135   0.9151   0.9212
     0.9222   0.9381   0.9656   0.9698   1.0020   1.0125   1.0193   1.0352
     1.0354   1.0428   1.0430   1.0486   1.0614   1.0673   1.0697   1.0751
     1.0953   1.0959   1.1154   1.1191   1.1279   1.1339   1.1357   1.1448
     1.1467   1.1537   1.1610   1.1686   1.1738   1.1824   1.2004   1.2113
     1.2195   1.2233   1.2286   1.2353   1.2382   1.2513   1.2614   1.2700
     1.2820   1.2901   1.2939   1.2954   1.3014   1.3067   1.3164   1.3238
     1.3363   1.3430   1.3538   1.3558   1.3622   1.3686   1.3693   1.3730
     1.3777   1.3786   1.3834   1.3834   1.3948   1.3977   1.4102   1.4112
     1.4175   1.4421   1.4425   1.4513   1.4538   1.4574   1.4626   1.4657
     1.4796   1.4833   1.4928   1.4938   1.5089   1.5116   1.5312   1.5315
     1.5435   1.5613   1.5628   1.5715   1.6133   1.6141   1.6335   1.6397
     1.6582   1.6702   1.6759   1.6793   1.6874   1.7441   1.7646   1.7820
     1.8035   1.8038   1.8146   1.8317   1.9562   1.9738   1.9779   2.0385
     2.0477   2.0524   2.0771   2.1385   2.1474   2.1635   2.1808   2.2007
     2.2077   2.2080   2.2237   2.2389   2.2457   2.2517   2.2708   2.3195
     2.3325   2.3914   2.3922   2.4248   2.4898   2.5332   2.5441   2.6302
     2.6367   2.7520   2.8641   3.0185   3.1172   3.2007   3.2116   3.2363
     3.2840   3.3375   3.3401   3.3948   3.4195   3.5379   3.5625   3.7469
     3.8808   3.9758   4.0176

          k = 0.2500-0.6187 0.0000 (128424 PWs)   bands (ev):

   -85.8545 -85.8493 -85.8106 -85.8087 -85.8056 -85.7985 -85.7962 -85.7918
   -85.7896 -85.7868 -85.7838 -85.7790 -85.7722 -85.7714 -85.7697 -85.7679
   -85.7647 -85.7620 -85.7619 -85.7594 -85.7592 -85.7538 -85.7529 -85.7527
   -85.7508 -85.7452 -85.7430 -85.7326 -85.7155 -85.7097 -85.7072 -85.7041
   -85.6895 -85.6690 -85.6654 -85.6603 -85.6523 -85.6490 -85.6425 -85.6401
   -85.6388 -85.6373 -85.6356 -85.6343 -85.6328 -85.6306 -85.6296 -85.6286
   -85.6281 -85.6264 -85.6246 -85.6230 -85.6215 -85.6195 -85.6184 -85.6169
   -85.6153 -85.6109 -85.6093 -85.6071 -85.5991 -85.5954 -85.5843 -85.5823
   -52.0388 -52.0317 -52.0032 -51.9991 -51.9926 -51.9899 -51.9871 -51.9844
   -51.9807 -51.9778 -51.9758 -51.9732 -51.9680 -51.9664 -51.9612 -51.9603
   -51.9592 -51.9575 -51.9561 -51.9535 -51.9530 -51.9513 -51.9484 -51.9478
   -51.9467 -51.9410 -51.9382 -51.9308 -51.9275 -51.9235 -51.9210 -51.9149
   -51.9112 -51.9021 -51.9003 -51.8971 -51.8958 -51.8948 -51.8942 -51.8930
   -51.8873 -51.8832 -51.8789 -51.8712 -51.8692 -51.8668 -51.8581 -51.8573
   -51.8550 -51.8537 -51.8520 -51.8484 -51.8453 -51.8426 -51.8377 -51.8329
   -51.8309 -51.8285 -51.8220 -51.8174 -51.8141 -51.8129 -51.8085 -51.8063
   -51.8033 -51.8020 -51.8007 -51.7955 -51.7922 -51.7913 -51.7880 -51.7859
   -51.7849 -51.7837 -51.7821 -51.7810 -51.7794 -51.7784 -51.7772 -51.7721
   -51.7695 -51.7669 -51.7652 -51.7622 -51.7584 -51.7563 -51.7544 -51.7515
   -51.7476 -51.7471 -51.7449 -51.7417 -51.7371 -51.7314 -51.7277 -51.7267
   -51.7238 -51.7220 -51.7184 -51.7165 -51.7108 -51.7086 -51.7064 -51.7061
   -51.7002 -51.6981 -51.6964 -51.6956 -51.6923 -51.6912 -51.6906 -51.6881
   -51.6873 -51.6850 -51.6827 -51.6816 -51.6794 -51.6779 -51.6744 -51.6732
   -51.6714 -51.6692 -51.6666 -51.6647 -51.6633 -51.6618 -51.6603 -51.6590
   -51.6574 -51.6534 -51.6510 -51.6476 -51.6438 -51.6423 -51.6367 -51.6351
   -51.6342 -51.6328 -51.6279 -51.6267 -51.6258 -51.6251 -51.6233 -51.6225
   -51.6216 -51.6183 -51.6152 -51.6108 -51.6083 -51.6065 -51.6060 -51.6011
   -51.5989 -51.5966 -51.5935 -51.5906 -51.5874 -51.5823 -51.5800 -51.5785
   -51.5758 -51.5738 -51.5704 -51.5683 -51.5671 -51.5665 -51.5652 -51.5630
   -51.5615 -51.5592 -51.5586 -51.5564 -51.5563 -51.5550 -51.5542 -51.5536
   -51.5521 -51.5512 -51.5502 -51.5479 -51.5464 -51.5458 -51.5456 -51.5441
   -51.5431 -51.5415 -51.5404 -51.5352 -51.5343 -51.5335 -51.5320 -51.5260
   -13.8842  -5.6687  -5.1523  -4.8689  -4.5806  -4.2701  -3.8090  -3.7623
    -3.5162  -3.3413  -3.2511  -3.1046  -3.0058  -2.6597  -2.5864  -2.5284
    -2.5009  -2.4704  -2.4106  -2.4074  -2.3708  -2.2758  -2.2061  -2.2010
    -2.1801  -2.1669  -2.1347  -2.0840  -2.0682  -2.0473  -2.0324  -2.0139
    -1.9946  -1.9911  -1.9640  -1.9253  -1.8961  -1.8823  -1.8730  -1.8616
    -1.8428  -1.8237  -1.7870  -1.7713  -1.7589  -1.7384  -1.6799  -1.6551
    -1.6469  -1.6255  -1.5822  -1.5674  -1.5402  -1.5092  -1.4958  -1.4746
    -1.4407  -1.4222  -1.4067  -1.3972  -1.3839  -1.3639  -1.3455  -1.3342
    -1.3046  -1.2866  -1.2698  -1.2518  -1.2314  -1.2246  -1.1876  -1.1432
    -1.1253  -1.1168  -1.1099  -1.0356  -0.9967  -0.9746  -0.9603  -0.9452
    -0.9407  -0.9310  -0.9192  -0.9121  -0.9057  -0.8922  -0.8559  -0.8346
    -0.8154  -0.7982  -0.7925  -0.7837  -0.7756  -0.7570  -0.7502  -0.7371
    -0.7292  -0.7211  -0.7153  -0.7095  -0.7016  -0.6948  -0.6891  -0.6804
    -0.6702  -0.6503  -0.6424  -0.6326  -0.6136  -0.6012  -0.5955  -0.5846
    -0.5778  -0.5759  -0.5571  -0.5368  -0.5295  -0.5251  -0.4990  -0.4925
    -0.4778  -0.4745  -0.4654  -0.4580  -0.4490  -0.4379  -0.4357  -0.4186
    -0.4120  -0.4080  -0.4026  -0.3934  -0.3846  -0.3771  -0.3556  -0.3405
    -0.3253  -0.3147  -0.2882  -0.2767  -0.2412  -0.1963  -0.1807  -0.1700
    -0.1549  -0.1529  -0.1436  -0.1369  -0.1197  -0.1142  -0.1076  -0.1029
    -0.0890  -0.0770  -0.0697  -0.0657  -0.0634  -0.0489  -0.0429  -0.0274
    -0.0052   0.0024   0.0062   0.0090   0.0489   0.0619   0.0935   0.1219
     0.1357   0.1560   0.1651   0.1983   0.2247   0.2331   0.2462   0.2866
     0.3026   0.3308   0.3547   0.3779   0.4133   0.4293   0.4350   0.4771
     0.4889   0.5125   0.5340   0.5622   0.5812   0.5912   0.5975   0.6070
     0.6310   0.6455   0.6458   0.6537   0.6624   0.6786   0.7124   0.7286
     0.7354   0.7473   0.7605   0.7792   0.7933   0.8051   0.8201   0.8353
     0.8422   0.8612   0.8680   0.8775   0.8934   0.8992   0.9052   0.9109
     0.9242   0.9442   0.9542   0.9598   0.9745   0.9959   1.0044   1.0092
     1.0143   1.0194   1.0229   1.0373   1.0445   1.0513   1.0548   1.0629
     1.0719   1.0743   1.0913   1.1024   1.1189   1.1218   1.1281   1.1369
     1.1552   1.1584   1.1696   1.1748   1.1849   1.1917   1.1994   1.2104
     1.2162   1.2282   1.2343   1.2409   1.2512   1.2573   1.2601   1.2643
     1.2754   1.2884   1.3007   1.3062   1.3115   1.3167   1.3257   1.3327
     1.3398   1.3443   1.3464   1.3530   1.3580   1.3678   1.3726   1.3887
     1.3985   1.4005   1.4065   1.4117   1.4153   1.4240   1.4282   1.4377
     1.4424   1.4458   1.4543   1.4553   1.4639   1.4671   1.4765   1.4859
     1.5013   1.5166   1.5262   1.5361   1.5518   1.5621   1.5699   1.5725
     1.5846   1.6079   1.6290   1.6583   1.6637   1.6779   1.6867   1.7217
     1.7362   1.7590   1.7735   1.8079   1.8157   1.8318   1.8594   1.8745
     1.8778   1.8846   1.8942   1.9321   1.9508   1.9712   1.9764   1.9930
     2.0041   2.0328   2.0448   2.0766   2.0900   2.0927   2.1020   2.1135
     2.1287   2.1554   2.1765   2.1851   2.1907   2.2021   2.2101   2.2375
     2.2533   2.2683   2.2911   2.2996   2.3204   2.3775   2.4148   2.4274
     2.4799   2.5872   2.6990   2.8414   2.9134   2.9869   3.0518   3.1434
     3.1817   3.3184   3.3412   3.4797   3.6485   3.7036   3.8837   3.9380
     3.9892   4.0331   4.1535

          k = 0.2500-0.3536 0.0000 (128397 PWs)   bands (ev):

   -85.8546 -85.8493 -85.8103 -85.8096 -85.8050 -85.8006 -85.7935 -85.7918
   -85.7914 -85.7867 -85.7788 -85.7774 -85.7755 -85.7742 -85.7721 -85.7678
   -85.7622 -85.7613 -85.7605 -85.7596 -85.7590 -85.7562 -85.7536 -85.7510
   -85.7503 -85.7472 -85.7416 -85.7326 -85.7155 -85.7096 -85.7072 -85.7041
   -85.6897 -85.6700 -85.6644 -85.6601 -85.6493 -85.6469 -85.6444 -85.6423
   -85.6414 -85.6384 -85.6357 -85.6344 -85.6335 -85.6299 -85.6289 -85.6285
   -85.6271 -85.6264 -85.6248 -85.6223 -85.6206 -85.6181 -85.6178 -85.6164
   -85.6138 -85.6135 -85.6106 -85.6067 -85.5994 -85.5961 -85.5842 -85.5818
   -52.0394 -52.0314 -52.0036 -51.9987 -51.9925 -51.9904 -51.9882 -51.9856
   -51.9800 -51.9786 -51.9756 -51.9738 -51.9663 -51.9640 -51.9613 -51.9613
   -51.9597 -51.9587 -51.9584 -51.9544 -51.9515 -51.9507 -51.9486 -51.9478
   -51.9461 -51.9409 -51.9385 -51.9331 -51.9290 -51.9263 -51.9219 -51.9133
   -51.9111 -51.9087 -51.9075 -51.9049 -51.8984 -51.8967 -51.8935 -51.8926
   -51.8906 -51.8891 -51.8874 -51.8792 -51.8778 -51.8702 -51.8562 -51.8551
   -51.8479 -51.8472 -51.8399 -51.8363 -51.8348 -51.8294 -51.8257 -51.8233
   -51.8220 -51.8213 -51.8185 -51.8183 -51.8144 -51.8121 -51.8088 -51.8069
   -51.8047 -51.8034 -51.8012 -51.8000 -51.7993 -51.7964 -51.7944 -51.7903
   -51.7886 -51.7857 -51.7829 -51.7766 -51.7751 -51.7721 -51.7677 -51.7660
   -51.7640 -51.7605 -51.7599 -51.7583 -51.7553 -51.7526 -51.7498 -51.7484
   -51.7449 -51.7421 -51.7388 -51.7365 -51.7335 -51.7315 -51.7288 -51.7258
   -51.7237 -51.7220 -51.7209 -51.7202 -51.7188 -51.7145 -51.7108 -51.7057
   -51.7041 -51.7008 -51.6958 -51.6945 -51.6939 -51.6926 -51.6901 -51.6895
   -51.6883 -51.6879 -51.6869 -51.6862 -51.6853 -51.6827 -51.6785 -51.6747
   -51.6730 -51.6719 -51.6713 -51.6659 -51.6646 -51.6644 -51.6619 -51.6615
   -51.6586 -51.6572 -51.6478 -51.6471 -51.6442 -51.6419 -51.6397 -51.6387
   -51.6325 -51.6315 -51.6293 -51.6291 -51.6272 -51.6251 -51.6237 -51.6225
   -51.6204 -51.6177 -51.6129 -51.6124 -51.6099 -51.6095 -51.6066 -51.6057
   -51.6016 -51.6011 -51.5991 -51.5956 -51.5883 -51.5855 -51.5842 -51.5829
   -51.5807 -51.5800 -51.5737 -51.5726 -51.5711 -51.5706 -51.5675 -51.5661
   -51.5618 -51.5605 -51.5583 -51.5577 -51.5546 -51.5525 -51.5517 -51.5507
   -51.5490 -51.5481 -51.5467 -51.5445 -51.5425 -51.5387 -51.5378 -51.5371
   -51.5364 -51.5352 -51.5334 -51.5331 -51.5323 -51.5318 -51.5285 -51.5253
   -13.8842  -5.6770  -5.2489  -4.7329  -4.6733  -4.2747  -3.7452  -3.5879
    -3.3534  -3.2510  -3.2019  -3.1089  -3.0562  -2.9916  -2.8410  -2.8069
    -2.5386  -2.3364  -2.3201  -2.3070  -2.3002  -2.2853  -2.2721  -2.2329
    -2.2262  -2.1518  -2.1480  -2.1452  -2.1114  -2.0904  -2.0565  -2.0394
    -2.0265  -1.9670  -1.8941  -1.8749  -1.8631  -1.8491  -1.8281  -1.8212
    -1.7995  -1.7922  -1.7871  -1.7707  -1.7361  -1.7115  -1.6771  -1.6468
    -1.6349  -1.6182  -1.6001  -1.5849  -1.5545  -1.5439  -1.4731  -1.4630
    -1.4144  -1.4100  -1.4080  -1.3824  -1.3684  -1.3622  -1.3588  -1.3497
    -1.3003  -1.2977  -1.2707  -1.2449  -1.2354  -1.2142  -1.1580  -1.1460
    -1.0654  -1.0539  -1.0328  -1.0014  -0.9900  -0.9516  -0.9490  -0.9337
    -0.9332  -0.8997  -0.8867  -0.8776  -0.8762  -0.8733  -0.8492  -0.8477
    -0.8439  -0.8308  -0.8273  -0.8210  -0.8165  -0.8127  -0.7958  -0.7760
    -0.7631  -0.7562  -0.7313  -0.7282  -0.7234  -0.7094  -0.7060  -0.6933
    -0.6791  -0.6696  -0.6681  -0.6596  -0.6509  -0.6408  -0.5991  -0.5665
    -0.5594  -0.5520  -0.5489  -0.5422  -0.5330  -0.5276  -0.5253  -0.5155
    -0.5030  -0.4994  -0.4883  -0.4571  -0.4359  -0.4223  -0.4094  -0.4043
    -0.3751  -0.3558  -0.3411  -0.3023  -0.2756  -0.2731  -0.2683  -0.2352
    -0.2326  -0.2191  -0.2098  -0.1974  -0.1965  -0.1937  -0.1875  -0.1843
    -0.1789  -0.1764  -0.1710  -0.1694  -0.1630  -0.1614  -0.1446  -0.1315
    -0.1304  -0.1240  -0.1117  -0.0943  -0.0739  -0.0636  -0.0467  -0.0152
     0.0106   0.0321   0.0404   0.0696   0.0759   0.0912   0.1232   0.1536
     0.1673   0.1727   0.1849   0.1917   0.2114   0.2457   0.2750   0.2927
     0.3028   0.3506   0.3844   0.3958   0.4072   0.4388   0.4459   0.4566
     0.4630   0.5114   0.5311   0.5399   0.5456   0.5616   0.5795   0.5825
     0.5855   0.5871   0.6010   0.6302   0.6411   0.6639   0.6847   0.7154
     0.7422   0.7440   0.7605   0.7721   0.7872   0.8087   0.8154   0.8349
     0.8390   0.8490   0.8540   0.8554   0.8741   0.8904   0.9149   0.9409
     0.9553   0.9562   0.9613   0.9701   0.9803   0.9925   1.0069   1.0170
     1.0374   1.0488   1.0533   1.0624   1.0671   1.0762   1.0780   1.0842
     1.1137   1.1140   1.1202   1.1229   1.1323   1.1433   1.1555   1.1587
     1.1645   1.1688   1.1830   1.1849   1.1899   1.1924   1.2048   1.2071
     1.2162   1.2209   1.2243   1.2304   1.2339   1.2403   1.2447   1.2518
     1.2616   1.2627   1.2672   1.2789   1.2801   1.2870   1.2889   1.2909
     1.3012   1.3017   1.3126   1.3155   1.3169   1.3202   1.3238   1.3409
     1.3498   1.3501   1.3564   1.3781   1.3816   1.3897   1.3930   1.3983
     1.4000   1.4019   1.4114   1.4170   1.4184   1.4320   1.4489   1.4515
     1.4678   1.4962   1.4989   1.5116   1.5187   1.5199   1.5340   1.5509
     1.5723   1.5840   1.6073   1.6352   1.6473   1.6560   1.6673   1.6762
     1.6807   1.6898   1.7029   1.7156   1.7207   1.7405   1.7548   1.7938
     1.8083   1.8174   1.8449   1.8593   1.8647   1.9080   1.9271   1.9763
     2.0057   2.0367   2.0743   2.0950   2.0971   2.0982   2.1072   2.1119
     2.1261   2.1411   2.1563   2.1622   2.1764   2.1778   2.1839   2.1914
     2.2212   2.2284   2.2311   2.2455   2.4410   2.4644   2.6219   2.7563
     2.7746   2.8397   2.8556   2.9989   3.0665   3.0701   3.1465   3.1827
     3.2223   3.2611   3.3894   3.5005   3.6254   3.7574   3.7969   3.9775
     4.0624   4.3822   4.6207

          k =-0.5000 0.1768 0.0000 (128388 PWs)   bands (ev):

   -85.8546 -85.8493 -85.8103 -85.8095 -85.8050 -85.7993 -85.7974 -85.7918
   -85.7867 -85.7847 -85.7834 -85.7780 -85.7777 -85.7722 -85.7711 -85.7656
   -85.7649 -85.7612 -85.7606 -85.7581 -85.7579 -85.7561 -85.7554 -85.7518
   -85.7516 -85.7437 -85.7434 -85.7327 -85.7154 -85.7096 -85.7072 -85.7041
   -85.6897 -85.6702 -85.6651 -85.6571 -85.6529 -85.6470 -85.6452 -85.6410
   -85.6399 -85.6383 -85.6368 -85.6336 -85.6317 -85.6311 -85.6296 -85.6284
   -85.6271 -85.6253 -85.6247 -85.6237 -85.6218 -85.6189 -85.6169 -85.6156
   -85.6147 -85.6128 -85.6091 -85.6075 -85.5997 -85.5962 -85.5838 -85.5821
   -52.0394 -52.0315 -52.0035 -51.9987 -51.9925 -51.9903 -51.9877 -51.9865
   -51.9811 -51.9769 -51.9749 -51.9724 -51.9699 -51.9628 -51.9620 -51.9614
   -51.9607 -51.9588 -51.9574 -51.9529 -51.9526 -51.9502 -51.9498 -51.9449
   -51.9447 -51.9432 -51.9414 -51.9291 -51.9288 -51.9246 -51.9227 -51.9164
   -51.9115 -51.9072 -51.9054 -51.9028 -51.9014 -51.9002 -51.8994 -51.8973
   -51.8949 -51.8858 -51.8784 -51.8747 -51.8655 -51.8630 -51.8607 -51.8552
   -51.8515 -51.8460 -51.8443 -51.8438 -51.8412 -51.8374 -51.8358 -51.8328
   -51.8298 -51.8185 -51.8140 -51.8109 -51.8088 -51.8069 -51.8051 -51.8020
   -51.8003 -51.7983 -51.7950 -51.7936 -51.7929 -51.7913 -51.7899 -51.7876
   -51.7856 -51.7846 -51.7826 -51.7804 -51.7771 -51.7750 -51.7729 -51.7706
   -51.7673 -51.7662 -51.7640 -51.7622 -51.7597 -51.7594 -51.7575 -51.7550
   -51.7506 -51.7454 -51.7406 -51.7321 -51.7297 -51.7281 -51.7269 -51.7251
   -51.7230 -51.7196 -51.7185 -51.7137 -51.7129 -51.7118 -51.7117 -51.7075
   -51.7004 -51.6988 -51.6963 -51.6931 -51.6923 -51.6912 -51.6903 -51.6901
   -51.6887 -51.6868 -51.6858 -51.6857 -51.6822 -51.6807 -51.6796 -51.6753
   -51.6734 -51.6721 -51.6696 -51.6690 -51.6648 -51.6643 -51.6623 -51.6594
   -51.6580 -51.6560 -51.6531 -51.6486 -51.6446 -51.6443 -51.6423 -51.6409
   -51.6394 -51.6332 -51.6300 -51.6298 -51.6266 -51.6255 -51.6241 -51.6229
   -51.6200 -51.6170 -51.6146 -51.6139 -51.6133 -51.6111 -51.6057 -51.6039
   -51.6037 -51.6012 -51.5934 -51.5902 -51.5875 -51.5863 -51.5861 -51.5843
   -51.5805 -51.5763 -51.5697 -51.5678 -51.5669 -51.5658 -51.5645 -51.5628
   -51.5605 -51.5586 -51.5584 -51.5566 -51.5548 -51.5535 -51.5526 -51.5520
   -51.5514 -51.5501 -51.5474 -51.5467 -51.5460 -51.5445 -51.5434 -51.5420
   -51.5414 -51.5400 -51.5356 -51.5308 -51.5284 -51.5277 -51.5233 -51.5215
   -13.8842  -5.6717  -5.2058  -4.9994  -4.3902  -4.0110  -3.9846  -3.7619
    -3.5255  -3.3031  -3.1469  -3.0937  -2.9628  -2.8892  -2.7131  -2.5928
    -2.5648  -2.4840  -2.4713  -2.4222  -2.3593  -2.3118  -2.2675  -2.2435
    -2.1801  -2.1242  -2.1013  -2.0590  -2.0451  -2.0367  -2.0262  -2.0134
    -2.0027  -1.9996  -1.9779  -1.9620  -1.9494  -1.8856  -1.8757  -1.8255
    -1.7709  -1.7265  -1.6812  -1.6760  -1.6671  -1.6642  -1.6584  -1.5910
    -1.5791  -1.5736  -1.5681  -1.5663  -1.5547  -1.5497  -1.5440  -1.5353
    -1.5087  -1.4760  -1.4452  -1.4185  -1.4069  -1.3995  -1.3870  -1.3681
    -1.3122  -1.3021  -1.2668  -1.2604  -1.2201  -1.1985  -1.1949  -1.1815
    -1.1366  -1.0696  -1.0382  -0.9569  -0.9534  -0.9299  -0.9246  -0.9088
    -0.9006  -0.8942  -0.8770  -0.8683  -0.8644  -0.8550  -0.8489  -0.8481
[...]
     3.6369   3.6584   3.6799   3.7133   3.7194   3.7364   3.7505   3.7674
     3.7842   3.7939   3.8049   3.8167   3.8293   3.8478   3.8542   3.8615
     3.8722   3.8862   3.8953   3.9123   3.9168   3.9249   3.9402   3.9488
     3.9660   3.9668   3.9912   4.0001   4.0092   4.0288   4.0337   4.0450
     4.0520   4.0696   4.0735   4.0762   4.0777   4.0873   4.0946   4.1095
     4.1136   4.1337   4.1393   4.1415   4.1460   4.1627   4.1733   4.1821
     4.1888   4.1968   4.2093   4.2153   4.2240   4.2445   4.2585   4.2712
     4.2757   4.2860   4.2909   4.2965   4.3003   4.3073   4.3142   4.3195
     4.3272   4.3366   4.3393   4.3537   4.3649   4.3720   4.3785   4.3892
     4.4020   4.4095   4.4188   4.4230   4.4286   4.4365   4.4397   4.4442
     4.4467   4.4596   4.4681   4.4741   4.4774   4.4880   4.4973   4.5091
     4.5121   4.5178   4.5320   4.5410   4.5499   4.5690   4.5918   4.6023
     4.6066   4.6180   4.6327   4.6387   4.6449   4.6500   4.6586   4.6675
     4.6834   4.6854   4.7207   4.7301   4.7383   4.7454   4.7593   4.7762
     4.7835   4.8081   4.8537   4.9072   4.9510   4.9959   5.0542   5.0939
     5.1612   5.2400   5.2577   5.2887   5.4096   5.4459   5.5342   5.5859
     5.6422   5.7303   5.7962

          k =-0.5000-0.3536 0.0000 (128560 PWs)   bands (ev):

   -83.2543 -83.2527 -82.9078 -82.9068 -82.8601 -82.8564 -82.8372 -82.8317
   -82.8153 -82.8093 -82.7926 -82.7895 -82.7819 -82.7809 -82.7806 -82.7775
   -82.7703 -82.7683 -82.7657 -82.7621 -82.7595 -82.7585 -82.7579 -82.7552
   -82.7524 -82.7490 -82.7471 -82.7430 -82.7421 -82.7403 -82.7400 -82.7389
   -82.7387 -82.7363 -82.7362 -82.7202 -82.7189 -82.7166 -82.7162 -82.7098
   -82.7078 -82.6988 -82.6986 -82.6985 -82.6975 -82.6973 -82.6968 -82.6940
   -82.6904 -82.6829 -82.6776 -82.6768 -82.6765 -82.6764 -82.6761 -82.6752
   -82.6749 -82.6742 -82.6724 -82.6718 -82.6543 -82.6540 -82.6533 -82.6510
   -49.6890 -49.6738 -49.3464 -49.3414 -49.1957 -49.1791 -49.1395 -49.1388
   -49.1287 -49.1051 -49.0774 -49.0709 -49.0708 -49.0650 -49.0632 -49.0605
   -49.0590 -49.0574 -49.0524 -49.0500 -49.0467 -49.0460 -49.0454 -49.0423
   -49.0404 -49.0358 -49.0344 -49.0308 -49.0296 -49.0245 -49.0198 -49.0190
   -49.0166 -49.0144 -49.0139 -49.0099 -49.0049 -49.0017 -48.9994 -48.9990
   -48.9978 -48.9928 -48.9915 -48.9867 -48.9843 -48.9819 -48.9796 -48.9788
   -48.9723 -48.9657 -48.9650 -48.9594 -48.9576 -48.9568 -48.9545 -48.9515
   -48.9515 -48.9514 -48.9505 -48.9502 -48.9450 -48.9439 -48.9420 -48.9419
   -48.9403 -48.9403 -48.9334 -48.9313 -48.9271 -48.9236 -48.9199 -48.9177
   -48.9124 -48.9049 -48.9019 -48.9002 -48.8954 -48.8917 -48.8850 -48.8838
   -48.8820 -48.8816 -48.8734 -48.8720 -48.8686 -48.8631 -48.8612 -48.8610
   -48.8555 -48.8543 -48.8527 -48.8494 -48.8489 -48.8441 -48.8421 -48.8412
   -48.8409 -48.8383 -48.8348 -48.8341 -48.8327 -48.8311 -48.8233 -48.8226
   -48.8168 -48.8146 -48.8143 -48.8119 -48.8057 -48.8053 -48.8027 -48.8019
   -48.8006 -48.7997 -48.7982 -48.7966 -48.7956 -48.7936 -48.7921 -48.7878
   -48.7867 -48.7859 -48.7840 -48.7806 -48.7762 -48.7757 -48.7746 -48.7737
   -48.7683 -48.7681 -48.7675 -48.7634 -48.7619 -48.7610 -48.7591 -48.7538
   -48.7532 -48.7524 -48.7494 -48.7480 -48.7460 -48.7456 -48.7435 -48.7434
   -48.7426 -48.7414 -48.7385 -48.7376 -48.7364 -48.7359 -48.7354 -48.7342
   -48.7324 -48.7291 -48.7266 -48.7254 -48.7218 -48.7188 -48.7185 -48.7167
   -48.7156 -48.7136 -48.7133 -48.7126 -48.7116 -48.7106 -48.7104 -48.7095
   -48.7087 -48.7076 -48.7073 -48.7069 -48.7046 -48.7043 -48.7012 -48.7000
   -48.6975 -48.6959 -48.6959 -48.6949 -48.6943 -48.6889 -48.6884 -48.6881
   -48.6867 -48.6851 -48.6838 -48.6836 -48.6818 -48.6798 -48.6778 -48.6773
   -13.9327  -5.4486  -4.7719  -4.7383  -4.2250  -4.1974  -3.8005  -3.5029
    -3.0843  -2.9964  -2.6924  -2.5676  -2.5421  -2.1684  -2.1235  -2.0903
    -2.0548  -1.7002  -1.4992  -1.3281  -1.3191  -1.3066  -1.2870  -1.2753
    -1.2372  -1.2039  -1.1841  -1.1792  -1.1422  -1.1344  -0.9123  -0.7824
    -0.7590  -0.7509  -0.7490  -0.7096  -0.6522  -0.5565  -0.4621  -0.3006
    -0.2806  -0.2768  -0.2462  -0.2428  -0.2135  -0.1938  -0.1523  -0.1383
    -0.1346  -0.0775  -0.0365  -0.0083  -0.0014   0.0209   0.0429   0.0762
     0.1149   0.2587   0.2664   0.2872   0.2987   0.3096   0.3478   0.5195
     0.5518   0.5743   0.5873   0.6044   0.6164   0.6982   0.7195   0.7378
     0.7634   0.7818   0.8020   0.8130   0.8150   0.8244   0.8407   0.8416
     0.8594   0.8733   0.8773   0.9167   0.9208   0.9300   0.9322   0.9424
     0.9507   0.9686   0.9818   1.0279   1.0562   1.0732   1.1509   1.1584
     1.1672   1.2263   1.2716   1.2850   1.2909   1.2926   1.3007   1.3102
     1.3234   1.3294   1.3356   1.3364   1.3617   1.3632   1.3699   1.3730
     1.3787   1.3882   1.3994   1.4079   1.4099   1.4142   1.4259   1.4314
     1.4344   1.4395   1.4463   1.4536   1.4652   1.4664   1.4760   1.4875
     1.5003   1.5198   1.5204   1.5267   1.5277   1.5403   1.5467   1.5556
     1.5570   1.5572   1.5868   1.5898   1.5950   1.6461   1.6630   1.7191
     1.7596   1.7890   1.8057   1.8194   1.8205   1.8217   1.8400   1.8432
     1.8525   1.8697   1.9224   1.9317   1.9708   1.9808   1.9871   1.9983
     2.0039   2.0156   2.0210   2.0511   2.0622   2.0642   2.0975   2.1128
     2.2024   2.2307   2.2513   2.2694   2.2885   2.2987   2.3145   2.3201
     2.3329   2.3345   2.3414   2.3708   2.3743   2.3771   2.4115   2.4287
     2.4362   2.4408   2.4417   2.4747   2.4951   2.6507   2.7096   2.7199
     2.7345   2.8349   2.8365   2.8652   3.0033   3.0473   3.0915   3.1060
     3.1274   3.1639   3.1780   3.1870   3.1966   3.2225   3.2283   3.2581
     3.2708   3.2791   3.2900   3.3320   3.3546   3.3809   3.3926   3.4035
     3.4083   3.4204   3.4290   3.4707   3.4809   3.4878   3.5153   3.5651
     3.5708   3.5835   3.5916   3.5927   3.6008   3.6069   3.6086   3.6230
     3.6290   3.6329   3.6685   3.6864   3.6900   3.7059   3.7547   3.7555
     3.7738   3.7835   3.7878   3.7926   3.8177   3.8447   3.8905   3.9065
     3.9111   3.9142   3.9539   3.9592   3.9923   4.0040   4.0159   4.0287
     4.0311   4.0321   4.0355   4.0486   4.0613   4.0650   4.0812   4.0879
     4.0924   4.0980   4.0998   4.1114   4.1133   4.1184   4.1272   4.1427
     4.1525   4.1558   4.1594   4.1769   4.1862   4.1939   4.1990   4.2046
     4.2080   4.2095   4.2160   4.2168   4.2202   4.2354   4.2463   4.2472
     4.2587   4.2727   4.2754   4.2799   4.2830   4.2899   4.2976   4.2983
     4.3043   4.3254   4.3322   4.3387   4.3719   4.3898   4.3958   4.4042
     4.4131   4.4230   4.4236   4.4349   4.4381   4.4385   4.4587   4.4686
     4.4704   4.4771   4.4774   4.4844   4.4912   4.4933   4.4984   4.5025
     4.5077   4.5116   4.5154   4.5316   4.5369   4.5449   4.5478   4.5522
     4.5578   4.5619   4.5740   4.5750   4.5780   4.5845   4.5937   4.6091
     4.6378   4.6587   4.6595   4.6773   4.6788   4.7021   4.7594   4.7737
     4.8912   4.8917   4.8940   4.9152   5.0316   5.0966   5.1092   5.1173
     5.1276   5.1570   5.1780   5.1784   5.1928   5.2070   5.2163   5.3217
     5.4375   5.4593   5.5285

     the Fermi energy is     2.3594 ev

!    total energy              =  -21094.96250819 Ry
     Harris-Foulkes estimate   =  -21094.96250808 Ry
     estimated scf accuracy    <          3.2E-11 Ry

     The total energy is the sum of the following terms:

     one-electron contribution = -168050.00134102 Ry
     hartree contribution      =   84109.70250360 Ry
     xc contribution           =   -2234.99939092 Ry
     ewald contribution        =   69955.18102653 Ry
     Dispersion Correction     =      -1.39943574 Ry
     one-center paw contrib.   =   -4873.44761140 Ry
     smearing contrib. (-TS)   =       0.00174076 Ry

     total magnetization       =   160.54 Bohr mag/cell
     absolute magnetization    =   167.31 Bohr mag/cell

     convergence has been achieved in   9 iterations

     negative rho (up, down):  2.518E-02 1.825E-02

     Forces acting on atoms (cartesian axes, Ry/au):

     atom    1 type  1   force =     0.00062532   -0.00023931    0.00913702
     atom    2 type  1   force =     0.00143464   -0.00216622   -0.01356528
     atom    3 type  1   force =    -0.00056803   -0.00032748    0.00922790
     atom    4 type  1   force =     0.00076941    0.00088330   -0.00842471
     atom    5 type  1   force =    -0.00000209   -0.00003875    0.00000123
     atom    6 type  1   force =     0.00010954   -0.00006697   -0.00003361
     atom    7 type  1   force =    -0.00000259   -0.00001923    0.00001056
     atom    8 type  1   force =    -0.00003045   -0.00005709    0.00003716
     atom    9 type  1   force =     0.00001796   -0.00000166    0.00987431
     atom   10 type  1   force =    -0.00018300   -0.00012586    0.00918872
     atom   11 type  1   force =    -0.00023118    0.00141064   -0.00746081
     atom   12 type  1   force =     0.00081874    0.00066763   -0.01170144
     atom   13 type  1   force =     0.00000481   -0.00002849   -0.00000098
     atom   14 type  1   force =     0.00000312   -0.00003743   -0.00006745
     atom   15 type  1   force =    -0.00003109    0.00002590    0.00001275
     atom   16 type  1   force =     0.00000919   -0.00002305    0.00000011
     atom   17 type  1   force =    -0.00048156   -0.00041509    0.00918127
     atom   18 type  1   force =     0.00107243    0.00052752   -0.00839171
     atom   19 type  1   force =     0.00052803    0.00035749    0.00931993
     atom   20 type  1   force =     0.00043357   -0.00085080   -0.01108305
     atom   21 type  1   force =     0.00001097   -0.00000579    0.00001621
     atom   22 type  1   force =     0.00000933   -0.00003093    0.00004286
     atom   23 type  1   force =    -0.00000206   -0.00000354    0.00003335
     atom   24 type  1   force =     0.00005016   -0.00006555   -0.00004952
     atom   25 type  1   force =    -0.00002072   -0.00004233    0.00724057
     atom   26 type  1   force =    -0.00064387    0.00080020    0.01011495
     atom   27 type  1   force =    -0.00011138   -0.00008715   -0.00644382
     atom   28 type  1   force =    -0.00109304    0.00073215   -0.00691640
     atom   29 type  1   force =    -0.00000567   -0.00002630    0.00000910
     atom   30 type  1   force =     0.00000632    0.00000628   -0.00000113
     atom   31 type  1   force =    -0.00008028   -0.00005956   -0.00004580
     atom   32 type  1   force =     0.00006447    0.00002296    0.00000535
     atom   33 type  1   force =    -0.00045972    0.00022490    0.00899257
     atom   34 type  1   force =    -0.00062071   -0.00076651   -0.00854650
     atom   35 type  1   force =     0.00000814    0.00065651    0.00914915
     atom   36 type  1   force =    -0.00166736    0.00221951   -0.01353021
     atom   37 type  1   force =     0.00000700   -0.00000330   -0.00002179
     atom   38 type  1   force =    -0.00003149   -0.00008221    0.00008464
     atom   39 type  1   force =    -0.00001269   -0.00003015   -0.00000597
     atom   40 type  1   force =    -0.00002737    0.00010899   -0.00003074
     atom   41 type  1   force =     0.00011105    0.00004828    0.00831573
     atom   42 type  1   force =     0.00053760   -0.00084481    0.01020198
     atom   43 type  1   force =    -0.00120670   -0.00074504   -0.01131152
     atom   44 type  1   force =     0.00029614   -0.00122083   -0.00690217
     atom   45 type  1   force =     0.00001376   -0.00000601    0.00015089
     atom   46 type  1   force =     0.00000420    0.00000322    0.00003595
     atom   47 type  1   force =    -0.00003844   -0.00004861   -0.00003290
     atom   48 type  1   force =     0.00004665    0.00002757   -0.00001444
     atom   49 type  1   force =     0.00052380    0.00036494    0.00938085
     atom   50 type  1   force =    -0.00060559    0.00062935   -0.01108490
     atom   51 type  1   force =     0.00008891   -0.00051605    0.00897895
     atom   52 type  1   force =    -0.00094798   -0.00024845   -0.00852992
     atom   53 type  1   force =     0.00001749   -0.00001346    0.00002871
     atom   54 type  1   force =    -0.00003195    0.00004953   -0.00006402
     atom   55 type  1   force =     0.00002182   -0.00002260   -0.00002636
     atom   56 type  1   force =    -0.00003881   -0.00000512    0.00008703
     atom   57 type  1   force =    -0.00004494   -0.00001464    0.00985964
     atom   58 type  1   force =    -0.00004057   -0.00000890    0.00937232
     atom   59 type  1   force =     0.00121468   -0.00062556   -0.00741336
     atom   60 type  1   force =     0.00025513    0.00016439   -0.00640887
     atom   61 type  1   force =     0.00001250    0.00001540   -0.00000910
     atom   62 type  1   force =    -0.00000131   -0.00002381   -0.00001485
     atom   63 type  1   force =     0.00003518   -0.00004629   -0.00000212
     atom   64 type  1   force =    -0.00001146   -0.00001531   -0.00002230
     atom   65 type  2   force =     0.00000740   -0.00001366    0.00005738
     atom   66 type  3   force =     0.00001923    0.00001092   -0.00007399
     atom   67 type  2   force =     0.00008539    0.00006231    0.00008261

     Total force =     0.000425     Total SCF correction =     0.000021

     bfgs converged in  16 scf cycles and  15 bfgs steps
     (criteria: energy <  7.3E-07 Ry, force <  3.9E-04 Ry/Bohr)

     End of BFGS Geometry Optimization

     Final energy   =  -21094.9625081859 Ry
Begin final coordinates

ATOMIC_POSITIONS (angstrom)
Fe       1.654912953   1.170200133   0.000000000    0   0   0
Fe       0.000000000   0.000000000   2.026984232    0   0   0
Fe       4.964738858   3.510600399   0.000000000    0   0   0
Fe       3.309825906   2.340400266   2.026984232    0   0   0
Fe       1.676621719   1.169817709   4.024066952
Fe       3.320093551   9.356100424   6.001338812
Fe       4.976372657   3.524843326   4.041943657
Fe       3.369904784   2.334738082   6.009533774
Fe       2.482363858   3.510600399   0.000000000    0   0   0
Fe       4.137287953   1.170200133   0.000000000    0   0   0
Fe       0.827450906   2.340400266   2.026984232    0   0   0
Fe       2.482375000   0.000000000   2.026984232    0   0   0
Fe       2.482929986   3.510028900   4.040522309
Fe       4.161453114   1.187915344   4.032958195
Fe       0.865291598   2.322155424   5.998690288
Fe       2.496851349   0.011042038   6.010788105
Fe       6.619662953   1.170200133   0.000000000    0   0   0
Fe       4.964750000   0.000000000   2.026984232    0   0   0
Fe       9.929488858   3.510600399   0.000000000    0   0   0
Fe       8.274575906   2.340400266   2.026984232    0   0   0
Fe       6.636443412   1.176810519   4.041669117
Fe       4.978595652   0.059227940   6.009801794
Fe       9.917373024   3.495738676   4.039696046
Fe       8.365195518   2.212314200   5.985406909
Fe       7.447113858   3.510600399   0.000000000    0   0   0
Fe       9.102037953   1.170200133   0.000000000    0   0   0
Fe       5.792200906   2.340400266   2.026984232    0   0   0
Fe       7.447125000   0.000000000   2.026984232    0   0   0
Fe       7.446729090   3.510366127   4.000489369
Fe       9.120422875   1.142279488   4.012949019
Fe       5.886628158   2.407296385   6.049837037
Fe      10.769155193   9.321967699   5.999305539
Fe       3.309814764   5.851000664   0.000000000    0   0   0
Fe       1.654901811   4.680800531   2.026984232    0   0   0
Fe       6.619640670   8.191400930   0.000000000    0   0   0
Fe       4.964727717   7.021200797   2.026984232    0   0   0
Fe       3.288949688   5.851798001   4.027143545
Fe      11.525972212   4.679495053   6.005584730
Fe       6.626305411   8.212513950   4.024283411
Fe       4.962789987   7.033583675   6.000912718
Fe       4.137265670   8.191400930   0.000000000    0   0   0
Fe       5.792189764   5.851000664   0.000000000    0   0   0
Fe      12.411852717   7.021200797   2.026984232    0   0   0
Fe       4.137276811   4.680800531   2.026984232    0   0   0
Fe       4.136061971   8.191025608   4.015412006
Fe       5.771940322   5.877883531   4.012918791
Fe      12.385963401   7.003323112   6.012731116
Fe       4.103706396   4.706572642   6.000018178
Fe       8.274564764   5.851000664   0.000000000    0   0   0
Fe       6.619651811   4.680800531   2.026984232    0   0   0
Fe      11.584390670   8.191400930   0.000000000    0   0   0
Fe       9.929477717   7.021200797   2.026984232    0   0   0
Fe       8.256218943   5.844941608   4.039961776
Fe       6.528924685   4.809411191   5.985403454
Fe      11.577908821   8.171793519   4.027048549
Fe       9.908442138   6.966782670   6.005584878
Fe       9.102015670   8.191400930   0.000000000    0   0   0
Fe      10.756939764   5.851000664   0.000000000    0   0   0
Fe       7.447102717   7.021200797   2.026984232    0   0   0
Fe       9.102026811   4.680800531   2.026984232    0   0   0
Fe       9.101335627   8.192634342   4.040672532
Fe      10.732144664   5.833924960   4.030578678
Fe       7.442121778   7.063665400   5.999305330
Fe       9.010185541   4.615933220   6.049081705
H        7.449655608   3.513018429   8.026382109
N        7.448112093   3.511649213   6.998098682
H        4.560774916   8.491303822   6.940543357
End final coordinates



     Writing output data file Fe_NH_H_paper_480c.save/

     init_run     :     81.14s CPU     83.04s WALL (       1 calls)
     electrons    :  38196.76s CPU  38627.54s WALL (      16 calls)
     update_pot   :    289.70s CPU    290.27s WALL (      15 calls)
     forces       :    633.62s CPU    638.74s WALL (      16 calls)

     Called by init_run:
     wfcinit      :     59.43s CPU     61.04s WALL (       1 calls)
     potinit      :      7.90s CPU      7.92s WALL (       1 calls)
     hinit0       :     10.59s CPU     10.71s WALL (       1 calls)

     Called by electrons:
     c_bands      :  32529.31s CPU  32878.62s WALL (     206 calls)
     sum_band     :   3251.75s CPU   3307.70s WALL (     206 calls)
     v_of_rho     :    307.89s CPU    309.01s WALL (     207 calls)
     newd         :     61.57s CPU     64.29s WALL (     207 calls)
     PAW_pot      :    116.41s CPU    116.97s WALL (     222 calls)
     mix_rho      :   1902.20s CPU   1917.45s WALL (     206 calls)

     Called by c_bands:
     init_us_2    :     98.98s CPU    101.89s WALL (    1332 calls)
     cegterg      :  30651.46s CPU  30882.99s WALL (     618 calls)

     Called by sum_band:
     sum_band:bec :      6.35s CPU      6.37s WALL (     663 calls)
     addusdens    :     74.01s CPU     78.45s WALL (     206 calls)

     Called by *egterg:
     h_psi        :  13036.72s CPU  13151.01s WALL (    2251 calls)
     s_psi        :   2637.25s CPU   2643.16s WALL (    2251 calls)
     g_psi        :     34.18s CPU     34.25s WALL (    1630 calls)
     cdiaghg      :   6279.27s CPU   6307.66s WALL (    2158 calls)

     Called by h_psi:
     h_psi:pot    :  12970.11s CPU  13041.07s WALL (    2251 calls)
     h_psi:calbec :   2682.09s CPU   2688.22s WALL (    2251 calls)
     vloc_psi     :   7647.96s CPU   7708.18s WALL (    2251 calls)
     add_vuspsi   :   2640.03s CPU   2644.65s WALL (    2251 calls)

     General routines
     calbec       :   4222.20s CPU   4231.41s WALL (    3106 calls)
     fft          :    216.05s CPU    216.97s WALL (    5428 calls)
     ffts         :    971.15s CPU    977.94s WALL (  117727 calls)
     fftw         :   7488.71s CPU   7552.80s WALL ( 2198262 calls)
     interpolate  :     21.59s CPU     21.77s WALL (     414 calls)
     davcio       :      0.81s CPU    119.59s WALL (    4397 calls)

     Parallel routines
     fft_scatt_xy :   1523.34s CPU   1531.07s WALL ( 2321417 calls)
     fft_scatt_yz :   2145.99s CPU   2178.53s WALL ( 2321417 calls)

     PWSCF        :     10h55m CPU     11h 2m WALL


   This run was terminated on:   8:13:51   5Jun2022            

=------------------------------------------------------------------------------=
   JOB DONE.
=------------------------------------------------------------------------------=
