     Message from routine get_command_line:
     unexpected argument # 4     :-in

     Program PWSCF v.6.7MaX starts on 28Sep2022 at 20:50: 7 

     This program is part of the open-source Quantum ESPRESSO suite
     for quantum simulation of materials; please cite
         "P. Giannozzi et al., J. Phys.:Condens. Matter 21 395502 (2009);
         "P. Giannozzi et al., J. Phys.:Condens. Matter 29 465901 (2017);
          URL http://www.quantum-espresso.org", 
     in publications or presentations arising from this work. More details at
     http://www.quantum-espresso.org/quote

     Parallel version (MPI), running on   120 processors

     MPI processes distributed on     1 nodes
     K-points division:     npool     =       8
     R & G space division:  proc/nbgrp/npool/nimage =      15
     Waiting for input...
     Reading input from standard input
Warning: card &CELL ignored
Warning: card / ignored

     Current dimensions of program PWSCF are:
     Max number of different atomic species (ntypx) = 10
     Max number of k-points (npk) =  40000
     Max angular momentum in pseudopotentials (lmaxx) =  3

     IMPORTANT: XC functional enforced from input :
     Exchange-correlation= PBE
                           (   1   4   3   4   0   0   0)
     Any further DFT definition will be discarded
     Please, verify this is what you really want


     -------------------------------------------------
     Parameters for Dispersion (Grimme-D2) Correction:
     -------------------------------------------------
       atom      VdW radius       C_6     

        N          2.640         42.670
        H          1.892          4.857

     Subspace diagonalization in iterative solution of the eigenvalue problem:
     one sub-group per band group will be used
     scalapack distributed-memory algorithm (size of sub-group:  3*  3 procs)


     Parallelization info
     --------------------
     sticks:   dense  smooth     PW     G-vecs:    dense   smooth      PW
     Min        3636    1818    468               639190   225950   29545
     Max        3637    1819    470               639197   225953   29547
     Sum       54553   27281   7033              9587919  3389267  443191



     bravais-lattice index     =            0
     lattice parameter (alat)  =      37.7945  a.u.
     unit-cell volume          =   53986.6760 (a.u.)^3
     number of atoms/cell      =            3
     number of atomic types    =            2
     number of electrons       =         7.00
     number of Kohn-Sham states=            8
     kinetic-energy cutoff     =      60.0000  Ry
     charge density cutoff     =     480.0000  Ry
     scf convergence threshold =      1.0E-08
     mixing beta               =       0.7000
     number of iterations used =           10  plain     mixing
     energy convergence thresh.=      7.3E-07
     force convergence thresh. =      3.9E-04
     Exchange-correlation= PBE
                           (   1   4   3   4   0   0   0)
     nstep                     =           50


     celldm(1)=  37.794522  celldm(2)=   0.000000  celldm(3)=   0.000000
     celldm(4)=   0.000000  celldm(5)=   0.000000  celldm(6)=   0.000000

     crystal axes: (cart. coord. in units of alat)
               a(1) = (   1.000000   0.000000   0.000000 )  
               a(2) = (   0.000000   1.000000   0.000000 )  
               a(3) = (   0.000000   0.000000   1.000000 )  

     reciprocal axes: (cart. coord. in units 2 pi/alat)
               b(1) = (  1.000000  0.000000  0.000000 )  
               b(2) = (  0.000000  1.000000  0.000000 )  
               b(3) = (  0.000000  0.000000  1.000000 )  


     PseudoPot. # 1 for N  read from file:
     ../../SSSP/N.pbe-n-radius_5.UPF
     MD5 check sum: 16739722b17309cd8fe442a2ace49922
     Pseudo is Ultrasoft + core correction, Zval =  5.0
     Generated using "atomic" code by A. Dal Corso  v.5.1
     Using radial grid of 1085 points,  4 beta functions with: 
                l(1) =   0
                l(2) =   0
                l(3) =   1
                l(4) =   1
     Q(r) pseudized with 0 coefficients 


     PseudoPot. # 2 for H  read from file:
     ../../SSSP/H.pbe-rrkjus_psl.1.0.0.UPF
     MD5 check sum: f52b6d4d1c606e5624b1dc7b2218f220
     Pseudo is Ultrasoft, Zval =  1.0
     Generated using "atomic" code by A. Dal Corso  v.5.1
     Using radial grid of  929 points,  2 beta functions with: 
                l(1) =   0
                l(2) =   0
     Q(r) pseudized with 0 coefficients 


     atomic species   valence    mass     pseudopotential
        N              5.00    14.00700     N ( 1.00)
        H              1.00     1.00800     H ( 1.00)

     Starting magnetic structure 
     atomic species   magnetization
        N            0.100
        H            0.100

     No symmetry found



   Cartesian axes

     site n.     atom                  positions (alat units)
         1           N   tau(   1) = (   0.5000000   0.5000000   0.0000000  )
         2           H   tau(   2) = (   0.5000000   0.5404449  -0.0324140  )
         3           H   tau(   3) = (   0.5000000   0.4595551  -0.0324140  )

     number of k points=    10  Methfessel-Paxton smearing, width (Ry)=  0.0100
                       cart. coord. in units 2pi/alat
        k(    1) = (   0.0000000   0.0000000   0.0000000), wk =   0.0625000
        k(    2) = (   0.0000000   0.2500000   0.0000000), wk =   0.1250000
        k(    3) = (   0.0000000  -0.5000000   0.0000000), wk =   0.0625000
        k(    4) = (   0.2500000   0.0000000   0.0000000), wk =   0.1250000
        k(    5) = (   0.2500000   0.2500000   0.0000000), wk =   0.1250000
        k(    6) = (   0.2500000  -0.5000000   0.0000000), wk =   0.1250000
        k(    7) = (   0.2500000  -0.2500000   0.0000000), wk =   0.1250000
        k(    8) = (  -0.5000000   0.0000000   0.0000000), wk =   0.0625000
        k(    9) = (  -0.5000000   0.2500000   0.0000000), wk =   0.1250000
        k(   10) = (  -0.5000000  -0.5000000   0.0000000), wk =   0.0625000

     Dense  grid:  9587919 G-vectors     FFT dimensions: ( 270, 270, 270)

     Smooth grid:  3389267 G-vectors     FFT dimensions: ( 192, 192, 192)

     Estimated max dynamical RAM per process >     388.03 MB

     Estimated total dynamical RAM >      45.47 GB

     Adding external electric field
        E field amplitude [Ha a.u.]: -1.5762E-02
        Potential amp.       -1.0723 Ry
        Total length         34.0151 bohr

     Generating pointlists ...
     new r_m :   0.0214 (alat units)  0.8081 (a.u.) for type    1
     new r_m :   0.0214 (alat units)  0.8081 (a.u.) for type    2

     Initial potential from superposition of free atoms

     starting charge    6.99997, renormalised to    7.00000

     negative rho (up, down):  9.679E-05 7.919E-05
     Starting wfcs are    6 randomized atomic wfcs +    2 random wfcs

     total cpu time spent up to now is       21.6 secs

     Self-consistent Calculation

     iteration #  1     ecut=    60.00 Ry     beta= 0.70
     CG style diagonalization
     c_bands:  1 eigenvalues not converged
     c_bands:  2 eigenvalues not converged
     c_bands:  1 eigenvalues not converged
     ethr =  1.00E-04,  avg # of iterations = 11.7

     negative rho (up, down):  2.221E-04 1.478E-04

     total cpu time spent up to now is       55.9 secs

     total energy              =     -22.32593287 Ry
     estimated scf accuracy    <       0.33879170 Ry

     total magnetization       =     1.00 Bohr mag/cell
     absolute magnetization    =     1.01 Bohr mag/cell

     iteration #  2     ecut=    60.00 Ry     beta= 0.70
     CG style diagonalization
     ethr =  4.84E-03,  avg # of iterations =  3.4

     negative rho (up, down):  1.791E-04 1.868E-04

     total cpu time spent up to now is       74.3 secs

     total energy              =     -22.38215750 Ry
     estimated scf accuracy    <       0.11591526 Ry

     total magnetization       =     1.00 Bohr mag/cell
     absolute magnetization    =     1.04 Bohr mag/cell

     iteration #  3     ecut=    60.00 Ry     beta= 0.70
     CG style diagonalization
     ethr =  1.66E-03,  avg # of iterations =  3.3

     negative rho (up, down):  2.273E-04 1.722E-04

     total cpu time spent up to now is       92.6 secs

     total energy              =     -22.43171977 Ry
     estimated scf accuracy    <       0.00247359 Ry

     total magnetization       =     1.00 Bohr mag/cell
     absolute magnetization    =     1.05 Bohr mag/cell

     iteration #  4     ecut=    60.00 Ry     beta= 0.70
     CG style diagonalization
     ethr =  3.53E-05,  avg # of iterations =  4.7

     negative rho (up, down):  2.318E-04 1.677E-04

     total cpu time spent up to now is      113.7 secs

     total energy              =     -22.43298859 Ry
     estimated scf accuracy    <       0.00119289 Ry

     total magnetization       =     1.00 Bohr mag/cell
     absolute magnetization    =     1.07 Bohr mag/cell

     iteration #  5     ecut=    60.00 Ry     beta= 0.70
     CG style diagonalization
     ethr =  1.70E-05,  avg # of iterations =  5.8

     negative rho (up, down):  2.397E-04 1.704E-04

     total cpu time spent up to now is      137.2 secs

     total energy              =     -22.43314103 Ry
     estimated scf accuracy    <       0.00007928 Ry

     total magnetization       =     1.00 Bohr mag/cell
     absolute magnetization    =     1.07 Bohr mag/cell

     iteration #  6     ecut=    60.00 Ry     beta= 0.70
     CG style diagonalization
     c_bands:  1 eigenvalues not converged
     c_bands:  1 eigenvalues not converged
     ethr =  1.13E-06,  avg # of iterations =  7.2

     negative rho (up, down):  2.415E-04 1.701E-04

     total cpu time spent up to now is      163.5 secs

     total energy              =     -22.43317975 Ry
     estimated scf accuracy    <       0.00001640 Ry

     total magnetization       =     1.00 Bohr mag/cell
     absolute magnetization    =     1.07 Bohr mag/cell

     iteration #  7     ecut=    60.00 Ry     beta= 0.70
     CG style diagonalization
     c_bands:  1 eigenvalues not converged
     c_bands:  1 eigenvalues not converged
     ethr =  2.34E-07,  avg # of iterations =  4.7

     negative rho (up, down):  2.413E-04 1.699E-04

     total cpu time spent up to now is      185.2 secs

     total energy              =     -22.43318961 Ry
     estimated scf accuracy    <       0.00000226 Ry

     total magnetization       =     1.00 Bohr mag/cell
     absolute magnetization    =     1.07 Bohr mag/cell

     iteration #  8     ecut=    60.00 Ry     beta= 0.70
     CG style diagonalization
     ethr =  3.22E-08,  avg # of iterations =  3.8

     negative rho (up, down):  2.415E-04 1.698E-04

     total cpu time spent up to now is      205.0 secs

     total energy              =     -22.43319007 Ry
     estimated scf accuracy    <       0.00000021 Ry

     total magnetization       =     1.00 Bohr mag/cell
     absolute magnetization    =     1.07 Bohr mag/cell

     iteration #  9     ecut=    60.00 Ry     beta= 0.70
     CG style diagonalization
     ethr =  3.05E-09,  avg # of iterations =  3.8

     negative rho (up, down):  2.416E-04 1.698E-04

     total cpu time spent up to now is      224.9 secs

     total energy              =     -22.43319023 Ry
     estimated scf accuracy    <       0.00000010 Ry

     total magnetization       =     1.00 Bohr mag/cell
     absolute magnetization    =     1.07 Bohr mag/cell

     iteration # 10     ecut=    60.00 Ry     beta= 0.70
     CG style diagonalization
     ethr =  1.45E-09,  avg # of iterations =  3.5

     negative rho (up, down):  2.416E-04 1.698E-04

     total cpu time spent up to now is      244.2 secs

     total energy              =     -22.43319025 Ry
     estimated scf accuracy    <       0.00000007 Ry

     total magnetization       =     1.00 Bohr mag/cell
     absolute magnetization    =     1.07 Bohr mag/cell

     iteration # 11     ecut=    60.00 Ry     beta= 0.70
     CG style diagonalization
     ethr =  1.06E-09,  avg # of iterations =  3.4

     negative rho (up, down):  2.416E-04 1.698E-04

     Magnetic moment per site:
     atom:    1    charge:    1.3483    magn:    0.2672    constr:    0.0000
     atom:    2    charge:    0.4497    magn:   -0.0053    constr:    0.0000
     atom:    3    charge:    0.4497    magn:   -0.0053    constr:    0.0000

     total cpu time spent up to now is      261.0 secs

     End of self-consistent calculation

 ------ SPIN UP ------------


          k = 0.0000 0.0000 0.0000 (423701 PWs)   bands (ev):

   -26.6498 -16.9854 -13.3941 -13.0501  -5.8699  -5.0797  -4.9702  -4.9256

          k = 0.0000 0.2500 0.0000 (423725 PWs)   bands (ev):

   -26.6498 -16.9854 -13.3941 -13.0501  -5.8691  -5.1125  -4.9552  -4.9123

          k = 0.0000-0.5000 0.0000 (423542 PWs)   bands (ev):

   -26.6498 -16.9854 -13.3941 -13.0501  -5.8684  -5.1375  -4.9314  -4.8922

          k = 0.2500 0.0000 0.0000 (423725 PWs)   bands (ev):

   -26.6498 -16.9854 -13.3941 -13.0501  -5.8692  -5.0965  -4.9607  -4.9437

          k = 0.2500 0.2500 0.0000 (423766 PWs)   bands (ev):

   -26.6498 -16.9854 -13.3941 -13.0501  -5.8685  -5.1006  -5.0265  -4.8423

          k = 0.2500-0.5000 0.0000 (423782 PWs)   bands (ev):

   -26.6498 -16.9854 -13.3941 -13.0501  -5.8677  -5.1177  -5.0151  -4.9106

          k = 0.2500-0.2500 0.0000 (423766 PWs)   bands (ev):

   -26.6498 -16.9854 -13.3941 -13.0501  -5.8684  -5.1017  -5.0254  -4.8352

          k =-0.5000 0.0000 0.0000 (423542 PWs)   bands (ev):

   -26.6498 -16.9854 -13.3941 -13.0501  -5.8687  -5.1145  -4.9483  -4.9339

          k =-0.5000 0.2500 0.0000 (423782 PWs)   bands (ev):

   -26.6498 -16.9854 -13.3941 -13.0501  -5.8680  -5.0930  -5.0488  -4.8935

          k =-0.5000-0.5000 0.0000 (423708 PWs)   bands (ev):

   -26.6498 -16.9854 -13.3941 -13.0501  -5.8672  -5.0864  -5.0503  -4.9865

 ------ SPIN DOWN ----------


          k = 0.0000 0.0000 0.0000 (423701 PWs)   bands (ev):

   -25.3853 -16.6193 -12.8190  -9.8737  -5.6560  -5.0587  -4.9406  -4.8319

          k = 0.0000 0.2500 0.0000 (423725 PWs)   bands (ev):

   -25.3853 -16.6193 -12.8190  -9.8737  -5.6540  -5.0963  -4.9299  -4.8095

          k = 0.0000-0.5000 0.0000 (423542 PWs)   bands (ev):

   -25.3853 -16.6192 -12.8190  -9.8737  -5.6517  -5.1251  -4.9061  -4.7777

          k = 0.2500 0.0000 0.0000 (423725 PWs)   bands (ev):

   -25.3853 -16.6193 -12.8190  -9.8737  -5.6546  -5.0679  -4.9273  -4.9013

          k = 0.2500 0.2500 0.0000 (423766 PWs)   bands (ev):

   -25.3853 -16.6193 -12.8190  -9.8737  -5.6524  -5.0815  -4.9865  -4.7845

          k = 0.2500-0.5000 0.0000 (423782 PWs)   bands (ev):

   -25.3853 -16.6192 -12.8190  -9.8737  -5.6506  -5.1054  -4.9602  -4.9009

          k = 0.2500-0.2500 0.0000 (423766 PWs)   bands (ev):

   -25.3853 -16.6193 -12.8190  -9.8737  -5.6527  -5.0810  -4.9869  -4.8055

          k =-0.5000 0.0000 0.0000 (423542 PWs)   bands (ev):

   -25.3853 -16.6192 -12.8190  -9.8737  -5.6530  -5.0796  -4.9159  -4.9141

          k =-0.5000 0.2500 0.0000 (423782 PWs)   bands (ev):

   -25.3853 -16.6193 -12.8190  -9.8737  -5.6514  -5.0559  -5.0295  -4.8621

          k =-0.5000-0.5000 0.0000 (423708 PWs)   bands (ev):

   -25.3853 -16.6192 -12.8190  -9.8737  -5.6495  -5.0694  -4.9919  -4.9799

     the Fermi energy is    -9.9883 ev

!    total energy              =     -22.43319026 Ry
     estimated scf accuracy    <          4.6E-09 Ry
     smearing contrib. (-TS)   =       0.00028990 Ry
     internal energy E=F+TS    =     -22.43348015 Ry

     The total energy is F=E-TS. E is the sum of the following terms:
     one-electron contribution =     -50.62870075 Ry
     hartree contribution      =      24.88541613 Ry
     xc contribution           =      -6.72097975 Ry
     ewald contribution        =       7.18903680 Ry
     Dispersion Correction     =      -0.00009835 Ry
     electric field correction =       2.84184577 Ry

     total magnetization       =     1.00 Bohr mag/cell
     absolute magnetization    =     1.07 Bohr mag/cell

     convergence has been achieved in  11 iterations

     negative rho (up, down):  2.416E-04 1.698E-04

     Forces acting on atoms (cartesian axes, Ry/au):

     atom    1 type  1   force =     0.00000020    0.00000006    0.00280940
     atom    2 type  2   force =    -0.00000011   -0.00397063   -0.00140470
     atom    3 type  2   force =    -0.00000009    0.00397057   -0.00140470

     Total force =     0.005956     Total SCF correction =     0.000026

     BFGS Geometry Optimization
     Energy error            =      0.0E+00
     Gradient error          =      4.0E-03

     number of scf cycles    =   1
     number of bfgs steps    =   0

     energy   new            =     -22.4331902566 Ry

     new trust radius        =       0.0042117777 bohr
     new conv_thr            =       0.0000000100 Ry


ATOMIC_POSITIONS (angstrom)
N            10.0000000000       10.0000000000        0.0000000000    0   0   0
H             9.9999999438       10.8067976201       -0.6490241869
H             9.9999999518        9.1932024011       -0.6490241904



     Writing output data file ./NH2_ESM_VA8.save/
     NEW-OLD atomic charge density approx. for the potential

     negative rho (up, down):  1.862E-04 2.067E-04

     Adding external electric field
        E field amplitude [Ha a.u.]: -1.5762E-02
        Potential amp.       -1.0723 Ry
        Total length         34.0151 bohr

     Generating pointlists ...

     total cpu time spent up to now is      282.4 secs

     Self-consistent Calculation

     iteration #  1     ecut=    60.00 Ry     beta= 0.70
     CG style diagonalization
     ethr =  1.00E-06,  avg # of iterations =  2.4

     Threshold (ethr) on eigenvalues was too large:
     Diagonalizing with lowered threshold

     CG style diagonalization
     ethr =  2.18E-08,  avg # of iterations =  2.4

     negative rho (up, down):  2.281E-04 1.788E-04

     total cpu time spent up to now is      306.6 secs

     total energy              =     -22.43322030 Ry
     estimated scf accuracy    <       0.00000177 Ry

     total magnetization       =     1.00 Bohr mag/cell
     absolute magnetization    =     1.07 Bohr mag/cell

     iteration #  2     ecut=    60.00 Ry     beta= 0.70
     CG style diagonalization
     ethr =  2.53E-08,  avg # of iterations =  3.5

     negative rho (up, down):  2.366E-04 1.735E-04

     total cpu time spent up to now is      325.1 secs

     total energy              =     -22.43322070 Ry
     estimated scf accuracy    <       0.00000025 Ry

     total magnetization       =     1.00 Bohr mag/cell
     absolute magnetization    =     1.07 Bohr mag/cell

     iteration #  3     ecut=    60.00 Ry     beta= 0.70
     CG style diagonalization
     ethr =  3.58E-09,  avg # of iterations =  3.5

     negative rho (up, down):  2.410E-04 1.704E-04

     total cpu time spent up to now is      343.8 secs

     total energy              =     -22.43322081 Ry
     estimated scf accuracy    <       0.00000002 Ry

     total magnetization       =     1.00 Bohr mag/cell
     absolute magnetization    =     1.07 Bohr mag/cell

     iteration #  4     ecut=    60.00 Ry     beta= 0.70
     CG style diagonalization
     ethr =  2.71E-10,  avg # of iterations =  3.2

     negative rho (up, down):  2.419E-04 1.701E-04

     Magnetic moment per site:
     atom:    1    charge:    1.3487    magn:    0.2672    constr:    0.0000
     atom:    2    charge:    0.4508    magn:   -0.0053    constr:    0.0000
     atom:    3    charge:    0.4508    magn:   -0.0053    constr:    0.0000

     total cpu time spent up to now is      360.3 secs

     End of self-consistent calculation

 ------ SPIN UP ------------


          k = 0.0000 0.0000 0.0000 (423701 PWs)   bands (ev):

   -26.6638 -16.9835 -13.4037 -13.0517  -5.8668  -5.0794  -4.9697  -4.9261

          k = 0.0000 0.2500 0.0000 (423725 PWs)   bands (ev):

   -26.6638 -16.9835 -13.4037 -13.0517  -5.8660  -5.1123  -4.9550  -4.9123

          k = 0.0000-0.5000 0.0000 (423542 PWs)   bands (ev):

   -26.6638 -16.9835 -13.4037 -13.0517  -5.8652  -5.1372  -4.9312  -4.8922

          k = 0.2500 0.0000 0.0000 (423725 PWs)   bands (ev):

   -26.6638 -16.9835 -13.4037 -13.0517  -5.8661  -5.0967  -4.9599  -4.9436

          k = 0.2500 0.2500 0.0000 (423766 PWs)   bands (ev):

   -26.6638 -16.9835 -13.4037 -13.0517  -5.8653  -5.1005  -5.0263  -4.8420

          k = 0.2500-0.5000 0.0000 (423782 PWs)   bands (ev):

   -26.6638 -16.9835 -13.4037 -13.0517  -5.8646  -5.1183  -5.0151  -4.9105

          k = 0.2500-0.2500 0.0000 (423766 PWs)   bands (ev):

   -26.6638 -16.9835 -13.4037 -13.0517  -5.8653  -5.1015  -5.0257  -4.8351

          k =-0.5000 0.0000 0.0000 (423542 PWs)   bands (ev):

   -26.6638 -16.9835 -13.4037 -13.0517  -5.8655  -5.1146  -4.9474  -4.9383

          k =-0.5000 0.2500 0.0000 (423782 PWs)   bands (ev):

   -26.6638 -16.9835 -13.4037 -13.0517  -5.8648  -5.0931  -5.0485  -4.8987

          k =-0.5000-0.5000 0.0000 (423708 PWs)   bands (ev):

   -26.6638 -16.9835 -13.4037 -13.0517  -5.8640  -5.0859  -5.0504  -4.9865

 ------ SPIN DOWN ----------


          k = 0.0000 0.0000 0.0000 (423701 PWs)   bands (ev):

   -25.4002 -16.6169 -12.8277  -9.8755  -5.6532  -5.0584  -4.9399  -4.8319

          k = 0.0000 0.2500 0.0000 (423725 PWs)   bands (ev):

   -25.4002 -16.6169 -12.8277  -9.8755  -5.6511  -5.0961  -4.9297  -4.8095

          k = 0.0000-0.5000 0.0000 (423542 PWs)   bands (ev):

   -25.4002 -16.6169 -12.8277  -9.8755  -5.6488  -5.1249  -4.9060  -4.7774

          k = 0.2500 0.0000 0.0000 (423725 PWs)   bands (ev):

   -25.4002 -16.6169 -12.8277  -9.8755  -5.6517  -5.0678  -4.9269  -4.9013

          k = 0.2500 0.2500 0.0000 (423766 PWs)   bands (ev):

   -25.4002 -16.6169 -12.8277  -9.8755  -5.6496  -5.0813  -4.9863  -4.7853

          k = 0.2500-0.5000 0.0000 (423782 PWs)   bands (ev):

   -25.4002 -16.6169 -12.8277  -9.8755  -5.6477  -5.1052  -4.9601  -4.9008

          k = 0.2500-0.2500 0.0000 (423766 PWs)   bands (ev):

   -25.4002 -16.6169 -12.8277  -9.8755  -5.6498  -5.0810  -4.9867  -4.8064

          k =-0.5000 0.0000 0.0000 (423542 PWs)   bands (ev):

   -25.4002 -16.6169 -12.8277  -9.8755  -5.6502  -5.0797  -4.9157  -4.9134

          k =-0.5000 0.2500 0.0000 (423782 PWs)   bands (ev):

   -25.4002 -16.6169 -12.8277  -9.8755  -5.6485  -5.0561  -5.0290  -4.8634

          k =-0.5000-0.5000 0.0000 (423708 PWs)   bands (ev):

   -25.4002 -16.6169 -12.8277  -9.8755  -5.6465  -5.0692  -4.9920  -4.9800

     the Fermi energy is    -9.9900 ev

!    total energy              =     -22.43322081 Ry
     estimated scf accuracy    <          2.4E-10 Ry
     smearing contrib. (-TS)   =       0.00028990 Ry
     internal energy E=F+TS    =     -22.43351070 Ry

     The total energy is F=E-TS. E is the sum of the following terms:
     one-electron contribution =     -50.65015130 Ry
     hartree contribution      =      24.89554021 Ry
     xc contribution           =      -6.72285647 Ry
     ewald contribution        =       7.20229563 Ry
     Dispersion Correction     =      -0.00009597 Ry
     electric field correction =       2.84175720 Ry

     total magnetization       =     1.00 Bohr mag/cell
     absolute magnetization    =     1.07 Bohr mag/cell

     convergence has been achieved in   4 iterations

     negative rho (up, down):  2.419E-04 1.701E-04

     Forces acting on atoms (cartesian axes, Ry/au):

     atom    1 type  1   force =    -0.00000000    0.00000001    0.00411047
     atom    2 type  2   force =     0.00000000   -0.00199990   -0.00205523
     atom    3 type  2   force =    -0.00000000    0.00199989   -0.00205524

     Total force =     0.004056     Total SCF correction =     0.000001
     Energy error            =      3.1E-05
     Gradient error          =      2.1E-03

     number of scf cycles    =   2
     number of bfgs steps    =   1

     energy   old            =     -22.4331902566 Ry
     energy   new            =     -22.4332208094 Ry

     CASE: energy  _new < energy  _old

     new trust radius        =       0.0046329555 bohr
     new conv_thr            =       0.0000000005 Ry


ATOMIC_POSITIONS (angstrom)
N            10.0000000000       10.0000000000        0.0000000000    0   0   0
H             9.9999999288       10.8048964002       -0.6505720797
H             9.9999999376        9.1951036054       -0.6505720883



     Writing output data file ./NH2_ESM_VA8.save/
     NEW-OLD atomic charge density approx. for the potential

     negative rho (up, down):  1.864E-04 2.070E-04

     Adding external electric field
        E field amplitude [Ha a.u.]: -1.5762E-02
        Potential amp.       -1.0723 Ry
        Total length         34.0151 bohr

     Generating pointlists ...

     total cpu time spent up to now is      380.9 secs

     Self-consistent Calculation

     iteration #  1     ecut=    60.00 Ry     beta= 0.70
     CG style diagonalization
     ethr =  1.00E-06,  avg # of iterations =  2.4

     Threshold (ethr) on eigenvalues was too large:
     Diagonalizing with lowered threshold

     CG style diagonalization
     ethr =  1.21E-08,  avg # of iterations =  2.4

     negative rho (up, down):  2.282E-04 1.790E-04

     total cpu time spent up to now is      405.1 secs

     total energy              =     -22.43324664 Ry
     estimated scf accuracy    <       0.00000087 Ry

     total magnetization       =     1.00 Bohr mag/cell
     absolute magnetization    =     1.07 Bohr mag/cell

     iteration #  2     ecut=    60.00 Ry     beta= 0.70
     CG style diagonalization
     ethr =  1.24E-08,  avg # of iterations =  3.3

     negative rho (up, down):  2.391E-04 1.713E-04

     total cpu time spent up to now is      423.2 secs

     total energy              =     -22.43324684 Ry
     estimated scf accuracy    <       0.00000008 Ry

     total magnetization       =     1.00 Bohr mag/cell
     absolute magnetization    =     1.07 Bohr mag/cell

     iteration #  3     ecut=    60.00 Ry     beta= 0.70
     CG style diagonalization
     ethr =  1.11E-09,  avg # of iterations =  3.4

     negative rho (up, down):  2.413E-04 1.704E-04

     total cpu time spent up to now is      441.7 secs

     total energy              =     -22.43324686 Ry
     estimated scf accuracy    <          3.1E-09 Ry

     total magnetization       =     1.00 Bohr mag/cell
     absolute magnetization    =     1.07 Bohr mag/cell

     iteration #  4     ecut=    60.00 Ry     beta= 0.70
     CG style diagonalization
     ethr =  4.48E-11,  avg # of iterations =  3.5

     negative rho (up, down):  2.420E-04 1.703E-04

     Magnetic moment per site:
     atom:    1    charge:    1.3488    magn:    0.2672    constr:    0.0000
     atom:    2    charge:    0.4512    magn:   -0.0053    constr:    0.0000
     atom:    3    charge:    0.4512    magn:   -0.0053    constr:    0.0000

     total cpu time spent up to now is      458.6 secs

     End of self-consistent calculation

 ------ SPIN UP ------------


          k = 0.0000 0.0000 0.0000 (423701 PWs)   bands (ev):

   -26.6728 -16.9742 -13.4152 -13.0529  -5.8648  -5.0793  -4.9691  -4.9262

          k = 0.0000 0.2500 0.0000 (423725 PWs)   bands (ev):

   -26.6728 -16.9742 -13.4152 -13.0529  -5.8640  -5.1120  -4.9548  -4.9123

          k = 0.0000-0.5000 0.0000 (423542 PWs)   bands (ev):

   -26.6728 -16.9742 -13.4152 -13.0529  -5.8632  -5.1369  -4.9311  -4.8922

          k = 0.2500 0.0000 0.0000 (423725 PWs)   bands (ev):

   -26.6728 -16.9742 -13.4152 -13.0529  -5.8642  -5.0968  -4.9591  -4.9436

          k = 0.2500 0.2500 0.0000 (423766 PWs)   bands (ev):

   -26.6728 -16.9742 -13.4152 -13.0529  -5.8634  -5.1005  -5.0261  -4.8418

          k = 0.2500-0.5000 0.0000 (423782 PWs)   bands (ev):

   -26.6728 -16.9742 -13.4152 -13.0529  -5.8626  -5.1179  -5.0151  -4.9103

          k = 0.2500-0.2500 0.0000 (423766 PWs)   bands (ev):

   -26.6728 -16.9742 -13.4152 -13.0529  -5.8634  -5.1012  -5.0255  -4.8351

          k =-0.5000 0.0000 0.0000 (423542 PWs)   bands (ev):

   -26.6728 -16.9742 -13.4152 -13.0529  -5.8636  -5.1146  -4.9466  -4.9382

          k =-0.5000 0.2500 0.0000 (423782 PWs)   bands (ev):

   -26.6728 -16.9742 -13.4152 -13.0529  -5.8628  -5.0932  -5.0481  -4.8987

          k =-0.5000-0.5000 0.0000 (423708 PWs)   bands (ev):

   -26.6728 -16.9742 -13.4152 -13.0529  -5.8621  -5.0854  -5.0503  -4.9864

 ------ SPIN DOWN ----------


          k = 0.0000 0.0000 0.0000 (423701 PWs)   bands (ev):

   -25.4099 -16.6073 -12.8387  -9.8768  -5.6514  -5.0582  -4.9393  -4.8318

          k = 0.0000 0.2500 0.0000 (423725 PWs)   bands (ev):

   -25.4099 -16.6073 -12.8387  -9.8768  -5.6492  -5.0958  -4.9295  -4.8095

          k = 0.0000-0.5000 0.0000 (423542 PWs)   bands (ev):

   -25.4099 -16.6073 -12.8387  -9.8768  -5.6470  -5.1247  -4.9060  -4.7771

          k = 0.2500 0.0000 0.0000 (423725 PWs)   bands (ev):

   -25.4099 -16.6073 -12.8387  -9.8768  -5.6499  -5.0678  -4.9265  -4.9014

          k = 0.2500 0.2500 0.0000 (423766 PWs)   bands (ev):

   -25.4099 -16.6073 -12.8387  -9.8768  -5.6478  -5.0812  -4.9862  -4.7861

          k = 0.2500-0.5000 0.0000 (423782 PWs)   bands (ev):

   -25.4099 -16.6073 -12.8387  -9.8768  -5.6458  -5.1049  -4.9600  -4.9007

          k = 0.2500-0.2500 0.0000 (423766 PWs)   bands (ev):

   -25.4099 -16.6073 -12.8387  -9.8768  -5.6479  -5.0809  -4.9865  -4.8069

          k =-0.5000 0.0000 0.0000 (423542 PWs)   bands (ev):

   -25.4099 -16.6073 -12.8387  -9.8768  -5.6484  -5.0797  -4.9157  -4.9126

          k =-0.5000 0.2500 0.0000 (423782 PWs)   bands (ev):

   -25.4099 -16.6073 -12.8387  -9.8768  -5.6466  -5.0562  -5.0286  -4.8644

          k =-0.5000-0.5000 0.0000 (423708 PWs)   bands (ev):

   -25.4099 -16.6073 -12.8387  -9.8768  -5.6446  -5.0690  -4.9920  -4.9801

     the Fermi energy is    -9.9914 ev

!    total energy              =     -22.43324686 Ry
     estimated scf accuracy    <          4.1E-10 Ry
     smearing contrib. (-TS)   =       0.00028990 Ry
     internal energy E=F+TS    =     -22.43353676 Ry

     The total energy is F=E-TS. E is the sum of the following terms:
     one-electron contribution =     -50.66068311 Ry
     hartree contribution      =      24.90055934 Ry
     xc contribution           =      -6.72375116 Ry
     ewald contribution        =       7.20885927 Ry
     Dispersion Correction     =      -0.00009388 Ry
     electric field correction =       2.84157277 Ry

     total magnetization       =     1.00 Bohr mag/cell
     absolute magnetization    =     1.07 Bohr mag/cell

     convergence has been achieved in   4 iterations

     negative rho (up, down):  2.420E-04 1.703E-04

     Forces acting on atoms (cartesian axes, Ry/au):

     atom    1 type  1   force =    -0.00000000   -0.00000001    0.00414904
     atom    2 type  2   force =     0.00000000   -0.00070290   -0.00207452
     atom    3 type  2   force =     0.00000000    0.00070291   -0.00207452

     Total force =     0.003098     Total SCF correction =     0.000006
     Energy error            =      2.6E-05
     Gradient error          =      2.1E-03

     number of scf cycles    =   3
     number of bfgs steps    =   2

     energy   old            =     -22.4332208094 Ry
     energy   new            =     -22.4332468637 Ry

     CASE: energy  _new < energy  _old

     new trust radius        =       0.0069494333 bohr
     new conv_thr            =       0.0000000005 Ry


ATOMIC_POSITIONS (angstrom)
N            10.0000000000       10.0000000000        0.0000000000    0   0   0
H             9.9999998926       10.8025498436       -0.6534036065
H             9.9999999078        9.1974501483       -0.6534036207



     Writing output data file ./NH2_ESM_VA8.save/
     NEW-OLD atomic charge density approx. for the potential

     negative rho (up, down):  1.883E-04 2.071E-04

     Adding external electric field
        E field amplitude [Ha a.u.]: -1.5762E-02
        Potential amp.       -1.0723 Ry
        Total length         34.0151 bohr

     Generating pointlists ...

     total cpu time spent up to now is      479.1 secs

     Self-consistent Calculation

     iteration #  1     ecut=    60.00 Ry     beta= 0.70
     CG style diagonalization
     ethr =  1.00E-06,  avg # of iterations =  2.4

     Threshold (ethr) on eigenvalues was too large:
     Diagonalizing with lowered threshold

     CG style diagonalization
     ethr =  2.28E-08,  avg # of iterations =  2.6

     negative rho (up, down):  2.412E-04 1.931E-04

     total cpu time spent up to now is      503.6 secs

     total energy              =     -22.43327467 Ry
     estimated scf accuracy    <       0.00000165 Ry

     total magnetization       =     1.00 Bohr mag/cell
     absolute magnetization    =     1.07 Bohr mag/cell

     iteration #  2     ecut=    60.00 Ry     beta= 0.70
     CG style diagonalization
     ethr =  2.35E-08,  avg # of iterations =  3.1

     negative rho (up, down):  2.414E-04 1.739E-04

     total cpu time spent up to now is      521.4 secs

     total energy              =     -22.43327504 Ry
     estimated scf accuracy    <       0.00000017 Ry

     total magnetization       =     1.00 Bohr mag/cell
     absolute magnetization    =     1.07 Bohr mag/cell

     iteration #  3     ecut=    60.00 Ry     beta= 0.70
     CG style diagonalization
     ethr =  2.45E-09,  avg # of iterations =  3.4

     negative rho (up, down):  2.417E-04 1.708E-04

     total cpu time spent up to now is      540.0 secs

     total energy              =     -22.43327509 Ry
     estimated scf accuracy    <       0.00000002 Ry

     total magnetization       =     1.00 Bohr mag/cell
     absolute magnetization    =     1.07 Bohr mag/cell

     iteration #  4     ecut=    60.00 Ry     beta= 0.70
     CG style diagonalization
     ethr =  2.85E-10,  avg # of iterations =  3.5

     negative rho (up, down):  2.418E-04 1.703E-04

     total cpu time spent up to now is      558.7 secs

     total energy              =     -22.43327509 Ry
     estimated scf accuracy    <          2.7E-09 Ry

     total magnetization       =     1.00 Bohr mag/cell
     absolute magnetization    =     1.07 Bohr mag/cell

     iteration #  5     ecut=    60.00 Ry     beta= 0.70
     CG style diagonalization
     ethr =  3.89E-11,  avg # of iterations =  3.6

     negative rho (up, down):  2.419E-04 1.702E-04

     Magnetic moment per site:
     atom:    1    charge:    1.3488    magn:    0.2671    constr:    0.0000
     atom:    2    charge:    0.4514    magn:   -0.0052    constr:    0.0000
     atom:    3    charge:    0.4514    magn:   -0.0052    constr:    0.0000

     total cpu time spent up to now is      575.8 secs

     End of self-consistent calculation

 ------ SPIN UP ------------


          k = 0.0000 0.0000 0.0000 (423701 PWs)   bands (ev):

   -26.6795 -16.9544 -13.4322 -13.0536  -5.8633  -5.0792  -4.9683  -4.9263

          k = 0.0000 0.2500 0.0000 (423725 PWs)   bands (ev):

   -26.6795 -16.9544 -13.4322 -13.0536  -5.8625  -5.1117  -4.9545  -4.9122

          k = 0.0000-0.5000 0.0000 (423542 PWs)   bands (ev):

   -26.6795 -16.9544 -13.4322 -13.0536  -5.8616  -5.1365  -4.9310  -4.8921

          k = 0.2500 0.0000 0.0000 (423725 PWs)   bands (ev):

   -26.6795 -16.9544 -13.4322 -13.0536  -5.8626  -5.0969  -4.9581  -4.9436

          k = 0.2500 0.2500 0.0000 (423766 PWs)   bands (ev):

   -26.6795 -16.9544 -13.4322 -13.0536  -5.8618  -5.1003  -5.0257  -4.8414

          k = 0.2500-0.5000 0.0000 (423782 PWs)   bands (ev):

   -26.6795 -16.9544 -13.4322 -13.0536  -5.8611  -5.1174  -5.0151  -4.9101

          k = 0.2500-0.2500 0.0000 (423766 PWs)   bands (ev):

   -26.6795 -16.9544 -13.4322 -13.0536  -5.8618  -5.1009  -5.0252  -4.8350

          k =-0.5000 0.0000 0.0000 (423542 PWs)   bands (ev):

   -26.6795 -16.9544 -13.4322 -13.0536  -5.8620  -5.1145  -4.9455  -4.9382

          k =-0.5000 0.2500 0.0000 (423782 PWs)   bands (ev):

   -26.6795 -16.9544 -13.4322 -13.0536  -5.8612  -5.0931  -5.0475  -4.8986

          k =-0.5000-0.5000 0.0000 (423708 PWs)   bands (ev):

   -26.6795 -16.9544 -13.4322 -13.0536  -5.8605  -5.0848  -5.0502  -4.9863

 ------ SPIN DOWN ----------


          k = 0.0000 0.0000 0.0000 (423701 PWs)   bands (ev):

   -25.4174 -16.5873 -12.8550  -9.8778  -5.6499  -5.0580  -4.9384  -4.8317

          k = 0.0000 0.2500 0.0000 (423725 PWs)   bands (ev):

   -25.4174 -16.5873 -12.8550  -9.8778  -5.6477  -5.0955  -4.9293  -4.8094

          k = 0.0000-0.5000 0.0000 (423542 PWs)   bands (ev):

   -25.4174 -16.5873 -12.8550  -9.8778  -5.6455  -5.1243  -4.9059  -4.7765

          k = 0.2500 0.0000 0.0000 (423725 PWs)   bands (ev):

   -25.4174 -16.5873 -12.8550  -9.8778  -5.6484  -5.0677  -4.9257  -4.9014

          k = 0.2500 0.2500 0.0000 (423766 PWs)   bands (ev):

   -25.4174 -16.5873 -12.8550  -9.8778  -5.6463  -5.0810  -4.9859  -4.8101

          k = 0.2500-0.5000 0.0000 (423782 PWs)   bands (ev):

   -25.4174 -16.5873 -12.8550  -9.8778  -5.6443  -5.1045  -4.9599  -4.9005

          k = 0.2500-0.2500 0.0000 (423766 PWs)   bands (ev):

   -25.4174 -16.5873 -12.8550  -9.8778  -5.6464  -5.0807  -4.9861  -4.8070

          k =-0.5000 0.0000 0.0000 (423542 PWs)   bands (ev):

   -25.4174 -16.5873 -12.8550  -9.8778  -5.6469  -5.0796  -4.9157  -4.9115

          k =-0.5000 0.2500 0.0000 (423782 PWs)   bands (ev):

   -25.4174 -16.5873 -12.8550  -9.8778  -5.6450  -5.0562  -5.0281  -4.8649

          k =-0.5000-0.5000 0.0000 (423708 PWs)   bands (ev):

   -25.4174 -16.5873 -12.8550  -9.8778  -5.6430  -5.0686  -4.9919  -4.9801

     the Fermi energy is    -9.9924 ev

!    total energy              =     -22.43327509 Ry
     estimated scf accuracy    <          2.3E-10 Ry
     smearing contrib. (-TS)   =       0.00028990 Ry
     internal energy E=F+TS    =     -22.43356499 Ry

     The total energy is F=E-TS. E is the sum of the following terms:
     one-electron contribution =     -50.66382810 Ry
     hartree contribution      =      24.90186135 Ry
     xc contribution           =      -6.72389983 Ry
     ewald contribution        =       7.21115756 Ry
     Dispersion Correction     =      -0.00009138 Ry
     electric field correction =       2.84123541 Ry

     total magnetization       =     1.00 Bohr mag/cell
     absolute magnetization    =     1.07 Bohr mag/cell

     convergence has been achieved in   5 iterations

     negative rho (up, down):  2.419E-04 1.702E-04

     Forces acting on atoms (cartesian axes, Ry/au):

     atom    1 type  1   force =    -0.00000000   -0.00000002    0.00297551
     atom    2 type  2   force =     0.00000000    0.00038956   -0.00148776
     atom    3 type  2   force =     0.00000000   -0.00038954   -0.00148775

     Total force =     0.002175     Total SCF correction =     0.000005
     Energy error            =      2.8E-05
     Gradient error          =      1.5E-03

     number of scf cycles    =   4
     number of bfgs steps    =   3

     energy   old            =     -22.4332468637 Ry
     energy   new            =     -22.4332750946 Ry

     CASE: energy  _new < energy  _old

     new trust radius        =       0.0059737706 bohr
     new conv_thr            =       0.0000000004 Ry


ATOMIC_POSITIONS (angstrom)
N            10.0000000000       10.0000000000        0.0000000000    0   0   0
H             9.9999998531       10.8010147279       -0.6561670282
H             9.9999998744        9.1989852607       -0.6561670336



     Writing output data file ./NH2_ESM_VA8.save/
     NEW-OLD atomic charge density approx. for the potential

     negative rho (up, down):  1.864E-04 2.071E-04

     Adding external electric field
        E field amplitude [Ha a.u.]: -1.5762E-02
        Potential amp.       -1.0723 Ry
        Total length         34.0151 bohr

     Generating pointlists ...

     total cpu time spent up to now is      596.6 secs

     Self-consistent Calculation

     iteration #  1     ecut=    60.00 Ry     beta= 0.70
     CG style diagonalization
     ethr =  1.00E-06,  avg # of iterations =  2.4

     Threshold (ethr) on eigenvalues was too large:
     Diagonalizing with lowered threshold

     CG style diagonalization
     ethr =  1.93E-08,  avg # of iterations =  2.8

     negative rho (up, down):  2.280E-04 1.789E-04

     total cpu time spent up to now is      621.3 secs

     total energy              =     -22.43328963 Ry
     estimated scf accuracy    <       0.00000184 Ry

     total magnetization       =     1.00 Bohr mag/cell
     absolute magnetization    =     1.07 Bohr mag/cell

     iteration #  2     ecut=    60.00 Ry     beta= 0.70
     CG style diagonalization
     ethr =  2.63E-08,  avg # of iterations =  3.4

     negative rho (up, down):  2.363E-04 1.739E-04

     total cpu time spent up to now is      639.7 secs

     total energy              =     -22.43328991 Ry
     estimated scf accuracy    <       0.00000044 Ry

     total magnetization       =     1.00 Bohr mag/cell
     absolute magnetization    =     1.07 Bohr mag/cell

     iteration #  3     ecut=    60.00 Ry     beta= 0.70
     CG style diagonalization
     ethr =  6.24E-09,  avg # of iterations =  3.4

     negative rho (up, down):  2.412E-04 1.701E-04

     total cpu time spent up to now is      658.2 secs

     total energy              =     -22.43329011 Ry
     estimated scf accuracy    <       0.00000004 Ry

     total magnetization       =     1.00 Bohr mag/cell
     absolute magnetization    =     1.07 Bohr mag/cell

     iteration #  4     ecut=    60.00 Ry     beta= 0.70
     CG style diagonalization
     ethr =  5.26E-10,  avg # of iterations =  3.0

     negative rho (up, down):  2.417E-04 1.700E-04

     total cpu time spent up to now is      676.0 secs

     total energy              =     -22.43329011 Ry
     estimated scf accuracy    <          1.6E-09 Ry

     total magnetization       =     1.00 Bohr mag/cell
     absolute magnetization    =     1.07 Bohr mag/cell

     iteration #  5     ecut=    60.00 Ry     beta= 0.70
     CG style diagonalization
     ethr =  2.28E-11,  avg # of iterations =  3.4

     negative rho (up, down):  2.418E-04 1.701E-04

     Magnetic moment per site:
     atom:    1    charge:    1.3485    magn:    0.2672    constr:    0.0000
     atom:    2    charge:    0.4510    magn:   -0.0053    constr:    0.0000
     atom:    3    charge:    0.4510    magn:   -0.0053    constr:    0.0000

     total cpu time spent up to now is      692.9 secs

     End of self-consistent calculation

 ------ SPIN UP ------------


          k = 0.0000 0.0000 0.0000 (423701 PWs)   bands (ev):

   -26.6799 -16.9335 -13.4465 -13.0536  -5.8631  -5.0792  -4.9676  -4.9262

          k = 0.0000 0.2500 0.0000 (423725 PWs)   bands (ev):

   -26.6799 -16.9335 -13.4465 -13.0536  -5.8622  -5.1115  -4.9543  -4.9121

          k = 0.0000-0.5000 0.0000 (423542 PWs)   bands (ev):

   -26.6799 -16.9335 -13.4465 -13.0536  -5.8614  -5.1362  -4.9311  -4.8920

          k = 0.2500 0.0000 0.0000 (423725 PWs)   bands (ev):

   -26.6799 -16.9335 -13.4465 -13.0536  -5.8624  -5.0969  -4.9572  -4.9436

          k = 0.2500 0.2500 0.0000 (423766 PWs)   bands (ev):

   -26.6799 -16.9335 -13.4465 -13.0536  -5.8616  -5.1002  -5.0254  -4.8411

          k = 0.2500-0.5000 0.0000 (423782 PWs)   bands (ev):

   -26.6799 -16.9335 -13.4465 -13.0536  -5.8608  -5.1170  -5.0150  -4.9100

          k = 0.2500-0.2500 0.0000 (423766 PWs)   bands (ev):

   -26.6799 -16.9335 -13.4465 -13.0536  -5.8616  -5.1007  -5.0250  -4.8350

          k =-0.5000 0.0000 0.0000 (423542 PWs)   bands (ev):

   -26.6799 -16.9335 -13.4465 -13.0536  -5.8618  -5.1144  -4.9446  -4.9382

          k =-0.5000 0.2500 0.0000 (423782 PWs)   bands (ev):

   -26.6799 -16.9335 -13.4465 -13.0536  -5.8610  -5.0931  -5.0470  -4.8985

          k =-0.5000-0.5000 0.0000 (423708 PWs)   bands (ev):

   -26.6799 -16.9335 -13.4465 -13.0536  -5.8603  -5.0843  -5.0501  -4.9863

 ------ SPIN DOWN ----------


          k = 0.0000 0.0000 0.0000 (423701 PWs)   bands (ev):

   -25.4182 -16.5662 -12.8689  -9.8781  -5.6496  -5.0581  -4.9377  -4.8315

          k = 0.0000 0.2500 0.0000 (423725 PWs)   bands (ev):

   -25.4182 -16.5662 -12.8689  -9.8781  -5.6474  -5.0953  -4.9291  -4.8093

          k = 0.0000-0.5000 0.0000 (423542 PWs)   bands (ev):

   -25.4182 -16.5662 -12.8689  -9.8781  -5.6452  -5.1240  -4.9061  -4.7762

          k = 0.2500 0.0000 0.0000 (423725 PWs)   bands (ev):

   -25.4182 -16.5662 -12.8689  -9.8781  -5.6481  -5.0677  -4.9251  -4.9015

          k = 0.2500 0.2500 0.0000 (423766 PWs)   bands (ev):

   -25.4182 -16.5662 -12.8689  -9.8781  -5.6461  -5.0808  -4.9857  -4.8104

          k = 0.2500-0.5000 0.0000 (423782 PWs)   bands (ev):

   -25.4182 -16.5662 -12.8689  -9.8781  -5.6440  -5.1041  -4.9598  -4.9003

          k = 0.2500-0.2500 0.0000 (423766 PWs)   bands (ev):

   -25.4182 -16.5662 -12.8689  -9.8781  -5.6461  -5.0805  -4.9858  -4.8072

          k =-0.5000 0.0000 0.0000 (423542 PWs)   bands (ev):

   -25.4182 -16.5662 -12.8689  -9.8781  -5.6467  -5.0796  -4.9158  -4.9107

          k =-0.5000 0.2500 0.0000 (423782 PWs)   bands (ev):

   -25.4182 -16.5662 -12.8689  -9.8781  -5.6447  -5.0561  -5.0276  -4.8652

          k =-0.5000-0.5000 0.0000 (423708 PWs)   bands (ev):

   -25.4182 -16.5662 -12.8689  -9.8781  -5.6427  -5.0682  -4.9919  -4.9801

     the Fermi energy is    -9.9926 ev

!    total energy              =     -22.43329011 Ry
     estimated scf accuracy    <          1.1E-10 Ry
     smearing contrib. (-TS)   =       0.00028990 Ry
     internal energy E=F+TS    =     -22.43358000 Ry

     The total energy is F=E-TS. E is the sum of the following terms:
     one-electron contribution =     -50.65627353 Ry
     hartree contribution      =      24.89807148 Ry
     xc contribution           =      -6.72309550 Ry
     ewald contribution        =       7.20690117 Ry
     Dispersion Correction     =      -0.00008978 Ry
     electric field correction =       2.84090616 Ry

     total magnetization       =     1.00 Bohr mag/cell
     absolute magnetization    =     1.07 Bohr mag/cell

     convergence has been achieved in   5 iterations

     negative rho (up, down):  2.418E-04 1.701E-04

     Forces acting on atoms (cartesian axes, Ry/au):

     atom    1 type  1   force =    -0.00000000   -0.00000001    0.00098599
     atom    2 type  2   force =     0.00000000    0.00060188   -0.00049300
     atom    3 type  2   force =     0.00000000   -0.00060186   -0.00049299

     Total force =     0.001100     Total SCF correction =     0.000001
     Energy error            =      1.5E-05
     Gradient error          =      6.0E-04

     number of scf cycles    =   5
     number of bfgs steps    =   4

     energy   old            =     -22.4332750946 Ry
     energy   new            =     -22.4332901079 Ry

     CASE: energy  _new < energy  _old

     new trust radius        =       0.0008788945 bohr
     new conv_thr            =       0.0000000002 Ry


ATOMIC_POSITIONS (angstrom)
N            10.0000000000       10.0000000000        0.0000000000    0   0   0
H             9.9999998447       10.8010956706       -0.6566250215
H             9.9999998679        9.1989043223       -0.6566250218



     Writing output data file ./NH2_ESM_VA8.save/
     NEW-OLD atomic charge density approx. for the potential

     negative rho (up, down):  1.859E-04 2.065E-04

     Adding external electric field
        E field amplitude [Ha a.u.]: -1.5762E-02
        Potential amp.       -1.0723 Ry
        Total length         34.0151 bohr

     Generating pointlists ...

     total cpu time spent up to now is      713.8 secs

     Self-consistent Calculation

     iteration #  1     ecut=    60.00 Ry     beta= 0.70
     CG style diagonalization
     ethr =  1.00E-06,  avg # of iterations =  2.0

     Threshold (ethr) on eigenvalues was too large:
     Diagonalizing with lowered threshold

     CG style diagonalization
     ethr =  1.01E-09,  avg # of iterations =  2.8

     negative rho (up, down):  2.277E-04 1.784E-04

     total cpu time spent up to now is      737.8 secs

     total energy              =     -22.43329199 Ry
     estimated scf accuracy    <       0.00000016 Ry

     total magnetization       =     1.00 Bohr mag/cell
     absolute magnetization    =     1.07 Bohr mag/cell

     iteration #  2     ecut=    60.00 Ry     beta= 0.70
     CG style diagonalization
     ethr =  2.25E-09,  avg # of iterations =  3.4

     negative rho (up, down):  2.363E-04 1.736E-04

     total cpu time spent up to now is      756.3 secs

     total energy              =     -22.43329202 Ry
     estimated scf accuracy    <       0.00000002 Ry

     total magnetization       =     1.00 Bohr mag/cell
     absolute magnetization    =     1.07 Bohr mag/cell

     iteration #  3     ecut=    60.00 Ry     beta= 0.70
     CG style diagonalization
     ethr =  2.73E-10,  avg # of iterations =  3.4

     negative rho (up, down):  2.410E-04 1.701E-04

     total cpu time spent up to now is      774.8 secs

     total energy              =     -22.43329203 Ry
     estimated scf accuracy    <          8.1E-10 Ry

     total magnetization       =     1.00 Bohr mag/cell
     absolute magnetization    =     1.07 Bohr mag/cell

     iteration #  4     ecut=    60.00 Ry     beta= 0.70
     CG style diagonalization
     ethr =  1.16E-11,  avg # of iterations =  3.6

     negative rho (up, down):  2.415E-04 1.700E-04

     total cpu time spent up to now is      793.6 secs

     total energy              =     -22.43329203 Ry
     estimated scf accuracy    <          3.7E-10 Ry

     total magnetization       =     1.00 Bohr mag/cell
     absolute magnetization    =     1.07 Bohr mag/cell

     iteration #  5     ecut=    60.00 Ry     beta= 0.70
     CG style diagonalization
     ethr =  5.24E-12,  avg # of iterations =  3.4

     negative rho (up, down):  2.417E-04 1.699E-04

     Magnetic moment per site:
     atom:    1    charge:    1.3484    magn:    0.2672    constr:    0.0000
     atom:    2    charge:    0.4508    magn:   -0.0053    constr:    0.0000
     atom:    3    charge:    0.4508    magn:   -0.0053    constr:    0.0000

     total cpu time spent up to now is      810.5 secs

     End of self-consistent calculation

 ------ SPIN UP ------------


          k = 0.0000 0.0000 0.0000 (423701 PWs)   bands (ev):

   -26.6771 -16.9293 -13.4476 -13.0532  -5.8636  -5.0792  -4.9677  -4.9264

          k = 0.0000 0.2500 0.0000 (423725 PWs)   bands (ev):

   -26.6771 -16.9293 -13.4476 -13.0532  -5.8628  -5.1115  -4.9545  -4.9122

          k = 0.0000-0.5000 0.0000 (423542 PWs)   bands (ev):

   -26.6771 -16.9293 -13.4476 -13.0532  -5.8620  -5.1361  -4.9312  -4.8921

          k = 0.2500 0.0000 0.0000 (423725 PWs)   bands (ev):

   -26.6771 -16.9293 -13.4476 -13.0532  -5.8630  -5.0970  -4.9572  -4.9437

          k = 0.2500 0.2500 0.0000 (423766 PWs)   bands (ev):

   -26.6771 -16.9293 -13.4476 -13.0532  -5.8622  -5.1004  -5.0254  -4.8411

          k = 0.2500-0.5000 0.0000 (423782 PWs)   bands (ev):

   -26.6771 -16.9293 -13.4476 -13.0532  -5.8614  -5.1170  -5.0151  -4.9100

          k = 0.2500-0.2500 0.0000 (423766 PWs)   bands (ev):

   -26.6771 -16.9293 -13.4476 -13.0532  -5.8622  -5.1007  -5.0251  -4.8351

          k =-0.5000 0.0000 0.0000 (423542 PWs)   bands (ev):

   -26.6771 -16.9293 -13.4476 -13.0532  -5.8623  -5.1145  -4.9445  -4.9382

          k =-0.5000 0.2500 0.0000 (423782 PWs)   bands (ev):

   -26.6771 -16.9293 -13.4476 -13.0532  -5.8616  -5.0931  -5.0471  -4.8985

          k =-0.5000-0.5000 0.0000 (423708 PWs)   bands (ev):

   -26.6771 -16.9293 -13.4476 -13.0532  -5.8608  -5.0843  -5.0501  -4.9863

 ------ SPIN DOWN ----------


          k = 0.0000 0.0000 0.0000 (423701 PWs)   bands (ev):

   -25.4153 -16.5621 -12.8701  -9.8777  -5.6500  -5.0581  -4.9376  -4.8315

          k = 0.0000 0.2500 0.0000 (423725 PWs)   bands (ev):

   -25.4153 -16.5621 -12.8701  -9.8777  -5.6479  -5.0953  -4.9293  -4.8093

          k = 0.0000-0.5000 0.0000 (423542 PWs)   bands (ev):

   -25.4153 -16.5621 -12.8701  -9.8777  -5.6457  -5.1240  -4.9063  -4.7762

          k = 0.2500 0.0000 0.0000 (423725 PWs)   bands (ev):

   -25.4153 -16.5621 -12.8701  -9.8777  -5.6486  -5.0677  -4.9252  -4.9016

          k = 0.2500 0.2500 0.0000 (423766 PWs)   bands (ev):

   -25.4153 -16.5621 -12.8701  -9.8777  -5.6466  -5.0808  -4.9857  -4.8107

          k = 0.2500-0.5000 0.0000 (423782 PWs)   bands (ev):

   -25.4153 -16.5621 -12.8701  -9.8777  -5.6445  -5.1041  -4.9598  -4.9003

          k = 0.2500-0.2500 0.0000 (423766 PWs)   bands (ev):

   -25.4153 -16.5621 -12.8701  -9.8777  -5.6466  -5.0806  -4.9858  -4.8076

          k =-0.5000 0.0000 0.0000 (423542 PWs)   bands (ev):

   -25.4153 -16.5621 -12.8701  -9.8777  -5.6471  -5.0796  -4.9159  -4.9107

          k =-0.5000 0.2500 0.0000 (423782 PWs)   bands (ev):

   -25.4153 -16.5621 -12.8701  -9.8777  -5.6452  -5.0562  -5.0277  -4.8656

          k =-0.5000-0.5000 0.0000 (423708 PWs)   bands (ev):

   -25.4153 -16.5621 -12.8701  -9.8777  -5.6432  -5.0683  -4.9919  -4.9801

     the Fermi energy is    -9.9922 ev

!    total energy              =     -22.43329203 Ry
     estimated scf accuracy    <          1.0E-11 Ry
     smearing contrib. (-TS)   =       0.00028990 Ry
     internal energy E=F+TS    =     -22.43358193 Ry

     The total energy is F=E-TS. E is the sum of the following terms:
     one-electron contribution =     -50.65037612 Ry
     hartree contribution      =      24.89522452 Ry
     xc contribution           =      -6.72254646 Ry
     ewald contribution        =       7.20335442 Ry
     Dispersion Correction     =      -0.00008987 Ry
     electric field correction =       2.84085159 Ry

     total magnetization       =     1.00 Bohr mag/cell
     absolute magnetization    =     1.07 Bohr mag/cell

     convergence has been achieved in   5 iterations

     negative rho (up, down):  2.417E-04 1.699E-04

     Forces acting on atoms (cartesian axes, Ry/au):

     atom    1 type  1   force =    -0.00000000   -0.00000001    0.00028457
     atom    2 type  2   force =     0.00000000    0.00025876   -0.00014229
     atom    3 type  2   force =     0.00000000   -0.00025876   -0.00014228

     Total force =     0.000418     Total SCF correction =     0.000001
     Energy error            =      1.9E-06
     Gradient error          =      2.6E-04

     number of scf cycles    =   6
     number of bfgs steps    =   5

     energy   old            =     -22.4332901079 Ry
     energy   new            =     -22.4332920344 Ry

     CASE: energy  _new < energy  _old

     new trust radius        =       0.0003724639 bohr
     new conv_thr            =            1.0E-10 Ry


ATOMIC_POSITIONS (angstrom)
N            10.0000000000       10.0000000000        0.0000000000    0   0   0
H             9.9999998433       10.8012825191       -0.6566877577
H             9.9999998678        9.1987174776       -0.6566877540



     Writing output data file ./NH2_ESM_VA8.save/
     NEW-OLD atomic charge density approx. for the potential

     negative rho (up, down):  1.858E-04 2.064E-04

     Adding external electric field
        E field amplitude [Ha a.u.]: -1.5762E-02
        Potential amp.       -1.0723 Ry
        Total length         34.0151 bohr

     Generating pointlists ...

     total cpu time spent up to now is      831.4 secs

     Self-consistent Calculation

     iteration #  1     ecut=    60.00 Ry     beta= 0.70
     CG style diagonalization
     ethr =  1.00E-06,  avg # of iterations =  2.0

     Threshold (ethr) on eigenvalues was too large:
     Diagonalizing with lowered threshold

     CG style diagonalization
     ethr =  3.02E-10,  avg # of iterations =  2.5

     negative rho (up, down):  2.277E-04 1.784E-04

     total cpu time spent up to now is      854.8 secs

     total energy              =     -22.43329229 Ry
     estimated scf accuracy    <       0.00000005 Ry

     total magnetization       =     1.00 Bohr mag/cell
     absolute magnetization    =     1.07 Bohr mag/cell

     iteration #  2     ecut=    60.00 Ry     beta= 0.70
     CG style diagonalization
     ethr =  7.55E-10,  avg # of iterations =  3.5

     negative rho (up, down):  2.353E-04 1.745E-04

     total cpu time spent up to now is      873.4 secs

     total energy              =     -22.43329231 Ry
     estimated scf accuracy    <       0.00000002 Ry

     total magnetization       =     1.00 Bohr mag/cell
     absolute magnetization    =     1.07 Bohr mag/cell

     iteration #  3     ecut=    60.00 Ry     beta= 0.70
     CG style diagonalization
     ethr =  2.92E-10,  avg # of iterations =  3.5

     negative rho (up, down):  2.405E-04 1.705E-04

     total cpu time spent up to now is      891.9 secs

     total energy              =     -22.43329232 Ry
     estimated scf accuracy    <          2.1E-10 Ry

     total magnetization       =     1.00 Bohr mag/cell
     absolute magnetization    =     1.07 Bohr mag/cell

     iteration #  4     ecut=    60.00 Ry     beta= 0.70
     CG style diagonalization
     ethr =  3.01E-12,  avg # of iterations =  3.6

     negative rho (up, down):  2.417E-04 1.699E-04

     Magnetic moment per site:
     atom:    1    charge:    1.3483    magn:    0.2672    constr:    0.0000
     atom:    2    charge:    0.4506    magn:   -0.0053    constr:    0.0000
     atom:    3    charge:    0.4506    magn:   -0.0053    constr:    0.0000

     total cpu time spent up to now is      909.0 secs

     End of self-consistent calculation

 ------ SPIN UP ------------


          k = 0.0000 0.0000 0.0000 (423701 PWs)   bands (ev):

   -26.6752 -16.9283 -13.4471 -13.0529  -5.8640  -5.0793  -4.9678  -4.9265

          k = 0.0000 0.2500 0.0000 (423725 PWs)   bands (ev):

   -26.6752 -16.9283 -13.4471 -13.0529  -5.8632  -5.1116  -4.9546  -4.9123

          k = 0.0000-0.5000 0.0000 (423542 PWs)   bands (ev):

   -26.6752 -16.9283 -13.4471 -13.0529  -5.8623  -5.1362  -4.9313  -4.8922

          k = 0.2500 0.0000 0.0000 (423725 PWs)   bands (ev):

   -26.6752 -16.9283 -13.4471 -13.0529  -5.8633  -5.0971  -4.9573  -4.9437

          k = 0.2500 0.2500 0.0000 (423766 PWs)   bands (ev):

   -26.6752 -16.9283 -13.4471 -13.0529  -5.8626  -5.1005  -5.0255  -4.8412

          k = 0.2500-0.5000 0.0000 (423782 PWs)   bands (ev):

   -26.6752 -16.9283 -13.4471 -13.0529  -5.8618  -5.1171  -5.0152  -4.9101

          k = 0.2500-0.2500 0.0000 (423766 PWs)   bands (ev):

   -26.6752 -16.9283 -13.4471 -13.0529  -5.8626  -5.1008  -5.0252  -4.8353

          k =-0.5000 0.0000 0.0000 (423542 PWs)   bands (ev):

   -26.6752 -16.9283 -13.4471 -13.0529  -5.8627  -5.1145  -4.9446  -4.9383

          k =-0.5000 0.2500 0.0000 (423782 PWs)   bands (ev):

   -26.6752 -16.9283 -13.4471 -13.0529  -5.8619  -5.0931  -5.0472  -4.8986

          k =-0.5000-0.5000 0.0000 (423708 PWs)   bands (ev):

   -26.6752 -16.9283 -13.4471 -13.0529  -5.8612  -5.0843  -5.0502  -4.9863

 ------ SPIN DOWN ----------


          k = 0.0000 0.0000 0.0000 (423701 PWs)   bands (ev):

   -25.4133 -16.5611 -12.8696  -9.8774  -5.6504  -5.0581  -4.9377  -4.8315

          k = 0.0000 0.2500 0.0000 (423725 PWs)   bands (ev):

   -25.4133 -16.5611 -12.8696  -9.8774  -5.6482  -5.0953  -4.9294  -4.8093

          k = 0.0000-0.5000 0.0000 (423542 PWs)   bands (ev):

   -25.4133 -16.5611 -12.8696  -9.8774  -5.6460  -5.1240  -4.9064  -4.7762

          k = 0.2500 0.0000 0.0000 (423725 PWs)   bands (ev):

   -25.4133 -16.5611 -12.8696  -9.8774  -5.6490  -5.0678  -4.9254  -4.9017

          k = 0.2500 0.2500 0.0000 (423766 PWs)   bands (ev):

   -25.4133 -16.5611 -12.8696  -9.8774  -5.6469  -5.0808  -4.9857  -4.8109

          k = 0.2500-0.5000 0.0000 (423782 PWs)   bands (ev):

   -25.4133 -16.5611 -12.8696  -9.8774  -5.6448  -5.1041  -4.9598  -4.9003

          k = 0.2500-0.2500 0.0000 (423766 PWs)   bands (ev):

   -25.4133 -16.5611 -12.8696  -9.8774  -5.6469  -5.0807  -4.9858  -4.8078

          k =-0.5000 0.0000 0.0000 (423542 PWs)   bands (ev):

   -25.4133 -16.5611 -12.8696  -9.8774  -5.6475  -5.0796  -4.9160  -4.9107

          k =-0.5000 0.2500 0.0000 (423782 PWs)   bands (ev):

   -25.4133 -16.5611 -12.8696  -9.8774  -5.6456  -5.0562  -5.0277  -4.8659

          k =-0.5000-0.5000 0.0000 (423708 PWs)   bands (ev):

   -25.4133 -16.5611 -12.8696  -9.8774  -5.6436  -5.0683  -4.9918  -4.9801

     the Fermi energy is    -9.9919 ev

!    total energy              =     -22.43329232 Ry
     estimated scf accuracy    <          6.2E-11 Ry
     smearing contrib. (-TS)   =       0.00028990 Ry
     internal energy E=F+TS    =     -22.43358221 Ry

     The total energy is F=E-TS. E is the sum of the following terms:
     one-electron contribution =     -50.64710135 Ry
     hartree contribution      =      24.89362433 Ry
     xc contribution           =      -6.72224358 Ry
     ewald contribution        =       7.20138433 Ry
     Dispersion Correction     =      -0.00009007 Ry
     electric field correction =       2.84084411 Ry

     total magnetization       =     1.00 Bohr mag/cell
     absolute magnetization    =     1.07 Bohr mag/cell

     convergence has been achieved in   4 iterations

     negative rho (up, down):  2.417E-04 1.699E-04

     Forces acting on atoms (cartesian axes, Ry/au):

     atom    1 type  1   force =    -0.00000000   -0.00000000   -0.00000250
     atom    2 type  2   force =     0.00000000    0.00001569    0.00000125
     atom    3 type  2   force =     0.00000000   -0.00001569    0.00000125

     Total force =     0.000022     Total SCF correction =     0.000003
     SCF correction compared to forces is large: reduce conv_thr to get better values
     Energy error            =      2.8E-07
     Gradient error          =      1.6E-05

     bfgs converged in   7 scf cycles and   6 bfgs steps
     (criteria: energy <  7.3E-07 Ry, force <  3.9E-04 Ry/Bohr)

     End of BFGS Geometry Optimization

     Final energy   =     -22.4332923172 Ry

     File ./NH2_ESM_VA8.bfgs deleted, as requested
Begin final coordinates

ATOMIC_POSITIONS (angstrom)
N            10.0000000000       10.0000000000        0.0000000000    0   0   0
H             9.9999998433       10.8012825191       -0.6566877577
H             9.9999998678        9.1987174776       -0.6566877540
End final coordinates



     Writing output data file ./NH2_ESM_VA8.save/

     init_run     :     20.25s CPU     21.41s WALL (       1 calls)
     electrons    :    725.55s CPU    775.97s WALL (       7 calls)
     update_pot   :     47.05s CPU     49.76s WALL (       6 calls)
     forces       :     56.40s CPU     60.48s WALL (       7 calls)

     Called by init_run:
     wfcinit      :      1.81s CPU      1.88s WALL (       1 calls)
     potinit      :      7.42s CPU      8.11s WALL (       1 calls)
     hinit0       :      1.10s CPU      1.23s WALL (       1 calls)

     Called by electrons:
     c_bands      :    294.33s CPU    298.84s WALL (      44 calls)
     sum_band     :     99.75s CPU    103.05s WALL (      44 calls)
     v_of_rho     :    254.52s CPU    276.74s WALL (      45 calls)
     newd         :     32.66s CPU     34.37s WALL (      45 calls)
     mix_rho      :     43.53s CPU     52.52s WALL (      44 calls)

     Called by c_bands:
     init_us_2    :      1.63s CPU      1.69s WALL (     288 calls)
     ccgdiagg     :    235.49s CPU    238.20s WALL (     132 calls)
     wfcrot       :     52.97s CPU     53.57s WALL (      96 calls)

     Called by *cgdiagg:
     h_psi        :    253.40s CPU    256.32s WALL (    3147 calls)
     s_psi        :     12.84s CPU     12.97s WALL (    6198 calls)

     Called by h_psi:
     h_psi:calbec :      9.34s CPU      9.46s WALL (    3147 calls)
     vloc_psi     :    231.28s CPU    233.92s WALL (    3147 calls)
     add_vuspsi   :     11.53s CPU     11.68s WALL (    3147 calls)
     hs_1psi      :    210.61s CPU    213.04s WALL (    3051 calls)
     s_1psi       :     14.49s CPU     14.64s WALL (    3051 calls)

     General routines
     calbec       :     18.33s CPU     18.58s WALL (    6414 calls)
     fft          :    286.34s CPU    293.88s WALL (    1234 calls)
     ffts         :     15.46s CPU     15.61s WALL (     178 calls)
     fftw         :    219.35s CPU    221.82s WALL (    8694 calls)
     interpolate  :     31.12s CPU     33.27s WALL (      90 calls)
     davcio       :      0.11s CPU      5.10s WALL (     677 calls)

     Parallel routines
     fft_scatt_xy :     81.44s CPU     82.43s WALL (   10106 calls)
     fft_scatt_yz :    189.40s CPU    191.58s WALL (   10106 calls)

     PWSCF        :  14m21.12s CPU  15m21.00s WALL


   This run was terminated on:  21: 5:28  28Sep2022            

=------------------------------------------------------------------------------=
   JOB DONE.
=------------------------------------------------------------------------------=
