
     Program PWSCF v.6.7MaX starts on  8Jul2022 at 17:35:38 

     This program is part of the open-source Quantum ESPRESSO suite
     for quantum simulation of materials; please cite
         "P. Giannozzi et al., J. Phys.:Condens. Matter 21 395502 (2009);
         "P. Giannozzi et al., J. Phys.:Condens. Matter 29 465901 (2017);
          URL http://www.quantum-espresso.org", 
     in publications or presentations arising from this work. More details at
     http://www.quantum-espresso.org/quote

     Parallel version (MPI), running on   256 processors

     MPI processes distributed on     2 nodes
     K-points division:     npool     =       8
     R & G space division:  proc/nbgrp/npool/nimage =      32
     Waiting for input...
     Reading input from standard input
Warning: card &CELL ignored
Warning: card / ignored

     Current dimensions of program PWSCF are:
     Max number of different atomic species (ntypx) = 10
     Max number of k-points (npk) =  40000
     Max angular momentum in pseudopotentials (lmaxx) =  3
     file Fe.pbe-spn-kjpaw_psl.0.2.1.UPF: wavefunction(s)  3D renormalized

     IMPORTANT: XC functional enforced from input :
     Exchange-correlation= PBE
                           (   1   4   3   4   0   0   0)
     Any further DFT definition will be discarded
     Please, verify this is what you really want


     -------------------------------------------------
     Parameters for Dispersion (Grimme-D2) Correction:
     -------------------------------------------------
       atom      VdW radius       C_6     

        Fe         2.952        374.666
        N          2.640         42.670
        H          1.892          4.857

     Subspace diagonalization in iterative solution of the eigenvalue problem:
     one sub-group per band group will be used
     scalapack distributed-memory algorithm (size of sub-group:  5*  5 procs)


     Parallelization info
     --------------------
     sticks:   dense  smooth     PW     G-vecs:    dense   smooth      PW
     Min         396     198     52                90796    32100    4368
     Max         397     199     53                90807    32109    4377
     Sum       12685    6351   1677              2905599  1027285  139897



     bravais-lattice index     =            0
     lattice parameter (alat)  =      18.7640  a.u.
     unit-cell volume          =   16360.3161 (a.u.)^3
     number of atoms/cell      =           68
     number of atomic types    =            3
     number of electrons       =      1032.00
     number of Kohn-Sham states=          619
     kinetic-energy cutoff     =      60.0000  Ry
     charge density cutoff     =     480.0000  Ry
     scf convergence threshold =      1.0E-08
     mixing beta               =       0.2000
     number of iterations used =           10  local-TF  mixing
     energy convergence thresh.=      7.3E-07
     force convergence thresh. =      3.9E-04
     Exchange-correlation= PBE
                           (   1   4   3   4   0   0   0)
     nstep                     =           50


     Effective Screening Medium Method
     =================================
     Boundary Conditions: Metal-Slab-Metal
     field strength                   =     0.00 Ry/a.u.
     grid points for fit at edges     =        4 


     celldm(1)=  18.764036  celldm(2)=   0.000000  celldm(3)=   0.000000
     celldm(4)=   0.000000  celldm(5)=   0.000000  celldm(6)=   0.000000

     crystal axes: (cart. coord. in units of alat)
               a(1) = (   1.000000   0.000000   0.000000 )  
               a(2) = (   0.333330   0.942807   0.000000 )  
               a(3) = (   0.000000   0.000000   2.626577 )  

     reciprocal axes: (cart. coord. in units 2 pi/alat)
               b(1) = (  1.000000 -0.353551  0.000000 )  
               b(2) = (  0.000000  1.060663  0.000000 )  
               b(3) = (  0.000000  0.000000  0.380724 )  


     PseudoPot. # 1 for Fe read from file:
     ../../SSSP/Fe.pbe-spn-kjpaw_psl.0.2.1.UPF
     MD5 check sum: e86618425769142926afa95317d90200
     Pseudo is Projector augmented-wave + core cor, Zval = 16.0
     Generated using "atomic" code by A. Dal Corso  v.5.0.99 svn rev. 10869
     Shape of augmentation charge: PSQ
     Using radial grid of 1191 points,  6 beta functions with: 
                l(1) =   0
                l(2) =   0
                l(3) =   1
                l(4) =   1
                l(5) =   2
                l(6) =   2
     Q(r) pseudized with 0 coefficients 


     PseudoPot. # 2 for N  read from file:
     ../../SSSP/N.pbe-n-radius_5.UPF
     MD5 check sum: 16739722b17309cd8fe442a2ace49922
     Pseudo is Ultrasoft + core correction, Zval =  5.0
     Generated using "atomic" code by A. Dal Corso  v.5.1
     Using radial grid of 1085 points,  4 beta functions with: 
                l(1) =   0
                l(2) =   0
                l(3) =   1
                l(4) =   1
     Q(r) pseudized with 0 coefficients 


     PseudoPot. # 3 for H  read from file:
     ../../SSSP/H.pbe-rrkjus_psl.1.0.0.UPF
     MD5 check sum: f52b6d4d1c606e5624b1dc7b2218f220
     Pseudo is Ultrasoft, Zval =  1.0
     Generated using "atomic" code by A. Dal Corso  v.5.1
     Using radial grid of  929 points,  2 beta functions with: 
                l(1) =   0
                l(2) =   0
     Q(r) pseudized with 0 coefficients 


     atomic species   valence    mass     pseudopotential
        Fe            16.00    55.84500     Fe( 1.00)
        N              5.00    14.00700     N ( 1.00)
        H              1.00     1.00800     H ( 1.00)

     Starting magnetic structure 
     atomic species   magnetization
        Fe           0.100
        N            0.100
        H            0.100

     No symmetry found



   Cartesian axes

     site n.     atom                  positions (alat units)
         1           Fe  tau(   1) = (   0.1666663   0.1178509   0.0000000  )
         2           Fe  tau(   2) = (   0.0000000   0.0000000   0.2041376  )
         3           Fe  tau(   3) = (   0.4999989   0.3535526   0.0000000  )
         4           Fe  tau(   4) = (   0.3333326   0.2357017   0.2041376  )
         5           Fe  tau(   5) = (   0.1662170   0.1176445   0.4052802  )
         6           Fe  tau(   6) = (   0.3330511   0.9440826   0.6058663  )
         7           Fe  tau(   7) = (   0.4996524   0.3541752   0.4041872  )
         8           Fe  tau(   8) = (   0.3330739   0.2348314   0.6047444  )
         9           Fe  tau(   9) = (   0.2499989   0.3535526   0.0000000  )
        10           Fe  tau(  10) = (   0.4166663   0.1178509   0.0000000  )
        11           Fe  tau(  11) = (   0.0833326   0.2357017   0.2041376  )
        12           Fe  tau(  12) = (   0.2500000   0.0000000   0.2041376  )
        13           Fe  tau(  13) = (   0.2500226   0.3534598   0.4057148  )
        14           Fe  tau(  14) = (   0.4159904   0.1173735   0.4049081  )
        15           Fe  tau(  15) = (   0.0825924   0.2363449   0.6036676  )
        16           Fe  tau(  16) = (   0.2500275   0.0000355   0.6050451  )
        17           Fe  tau(  17) = (   0.6666663   0.1178509   0.0000000  )
        18           Fe  tau(  18) = (   0.5000000   0.0000000   0.2041376  )
        19           Fe  tau(  19) = (   0.9999989   0.3535526   0.0000000  )
        20           Fe  tau(  20) = (   0.8333326   0.2357017   0.2041376  )
        21           Fe  tau(  21) = (   0.6671388   0.1173085   0.4041954  )
        22           Fe  tau(  22) = (   0.4990800   0.0000401   0.6047328  )
        23           Fe  tau(  23) = (   1.0002948   0.3528379   0.4040508  )
        24           Fe  tau(  24) = (   0.8344328   0.2341177   0.6131506  )
        25           Fe  tau(  25) = (   0.7499989   0.3535526   0.0000000  )
        26           Fe  tau(  26) = (   0.9166663   0.1178509   0.0000000  )
        27           Fe  tau(  27) = (   0.5833326   0.2357017   0.2041376  )
        28           Fe  tau(  28) = (   0.7500000   0.0000000   0.2041376  )
        29           Fe  tau(  29) = (   0.7499687   0.3535117   0.4074709  )
        30           Fe  tau(  30) = (   0.9158764   0.1187379   0.4084475  )
        31           Fe  tau(  31) = (   0.5785997   0.2323533   0.5977302  )
        32           Fe  tau(  32) = (   1.0836102   0.9440052   0.6037594  )
        33           Fe  tau(  33) = (   0.3333315   0.5892543   0.0000000  )
        34           Fe  tau(  34) = (   0.1666652   0.4714034   0.2041376  )
        35           Fe  tau(  35) = (   0.6666640   0.8249560   0.0000000  )
        36           Fe  tau(  36) = (   0.4999978   0.7071052   0.2041376  )
        37           Fe  tau(  37) = (   0.3338367   0.5895286   0.4056824  )
        38           Fe  tau(  38) = (   1.1670898   0.4714810   0.6042065  )
        39           Fe  tau(  39) = (   0.6663057   0.8246308   0.4052796  )
        40           Fe  tau(  40) = (   0.5010674   0.7064763   0.6058713  )
        41           Fe  tau(  41) = (   0.4166640   0.8249560   0.0000000  )
        42           Fe  tau(  42) = (   0.5833315   0.5892543   0.0000000  )
        43           Fe  tau(  43) = (   0.2499978   0.7071052   0.2041376  )
        44           Fe  tau(  44) = (   0.4166652   0.4714034   0.2041376  )
        45           Fe  tau(  45) = (   0.4164851   0.8248718   0.4054940  )
        46           Fe  tau(  46) = (   0.5838892   0.5882400   0.4084486  )
        47           Fe  tau(  47) = (   1.2488466   0.7063160   0.6059892  )
        48           Fe  tau(  48) = (   0.4178841   0.4712874   0.6037558  )
        49           Fe  tau(  49) = (   0.8333315   0.5892543   0.0000000  )
        50           Fe  tau(  50) = (   0.6666652   0.4714034   0.2041376  )
        51           Fe  tau(  51) = (   1.1666640   0.8249560   0.0000000  )
        52           Fe  tau(  52) = (   0.9999978   0.7071052   0.2041376  )
        53           Fe  tau(  53) = (   0.8327631   0.5897642   0.4040372  )
        54           Fe  tau(  54) = (   0.6655729   0.4729044   0.6131247  )
        55           Fe  tau(  55) = (   1.1670705   0.8253740   0.4056890  )
        56           Fe  tau(  56) = (   1.0001963   0.7074724   0.6042379  )
        57           Fe  tau(  57) = (   0.9166640   0.8249560   0.0000000  )
        58           Fe  tau(  58) = (   1.0833315   0.5892543   0.0000000  )
        59           Fe  tau(  59) = (   0.7499978   0.7071052   0.2041376  )
        60           Fe  tau(  60) = (   0.9166652   0.4714034   0.2041376  )
        61           Fe  tau(  61) = (   0.9165820   0.8250163   0.4057195  )
        62           Fe  tau(  62) = (   1.0839698   0.5897091   0.4046548  )
        63           Fe  tau(  63) = (   0.7503435   0.7061881   0.6036765  )
        64           Fe  tau(  64) = (   0.9215437   0.4748570   0.5977225  )
        65           N   tau(  65) = (   0.7500130   0.3535404   0.7528212  )
        66           H   tau(  66) = (   0.8169492   0.4009451   0.8161228  )
        67           H   tau(  67) = (   0.6831219   0.3062085   0.8162252  )
        68           H   tau(  68) = (   0.4576675   0.8539922   0.6991343  )

     number of k points=    10  Methfessel-Paxton smearing, width (Ry)=  0.0100
                       cart. coord. in units 2pi/alat
        k(    1) = (   0.0000000   0.0000000   0.0000000), wk =   0.0625000
        k(    2) = (   0.0000000   0.2651656   0.0000000), wk =   0.1250000
        k(    3) = (   0.0000000  -0.5303313   0.0000000), wk =   0.0625000
        k(    4) = (   0.2500000  -0.0883878   0.0000000), wk =   0.1250000
        k(    5) = (   0.2500000   0.1767779   0.0000000), wk =   0.1250000
        k(    6) = (   0.2500000  -0.6187190   0.0000000), wk =   0.1250000
        k(    7) = (   0.2500000  -0.3535534   0.0000000), wk =   0.1250000
        k(    8) = (  -0.5000000   0.1767755   0.0000000), wk =   0.0625000
        k(    9) = (  -0.5000000   0.4419412   0.0000000), wk =   0.1250000
        k(   10) = (  -0.5000000  -0.3535558   0.0000000), wk =   0.0625000

     Dense  grid:  2905599 G-vectors     FFT dimensions: ( 135, 135, 360)

     Smooth grid:  1027285 G-vectors     FFT dimensions: (  96,  96, 243)

     Estimated max dynamical RAM per process >     641.09 MB

     Estimated total dynamical RAM >     160.27 GB

     Check: negative core charge=   -0.000039
     Generating pointlists ...
     new r_m :   0.0742 (alat units)  1.3920 (a.u.) for type    1
     new r_m :   0.0427 (alat units)  0.8019 (a.u.) for type    2
     new r_m :   0.0427 (alat units)  0.8019 (a.u.) for type    3

     Initial potential from superposition of free atoms

     starting charge 1031.97191, renormalised to 1032.00000

     negative rho (up, down):  1.338E-02 1.095E-02
     Starting wfcs are  839 randomized atomic wfcs
     Checking if some PAW data can be deallocated... 

     total cpu time spent up to now is       32.1 secs

     Self-consistent Calculation

     iteration #  1     ecut=    60.00 Ry     beta= 0.20
     Davidson diagonalization with overlap
     c_bands:  1 eigenvalues not converged
     ethr =  1.00E-04,  avg # of iterations = 17.8

     negative rho (up, down):  6.694E-03 5.358E-03

     total cpu time spent up to now is      325.2 secs

     total energy              =  -21095.78633309 Ry
     estimated scf accuracy    <      45.39863585 Ry

     total magnetization       =   133.43 Bohr mag/cell
     absolute magnetization    =   133.79 Bohr mag/cell

     iteration #  2     ecut=    60.00 Ry     beta= 0.20
     Davidson diagonalization with overlap
     ethr =  4.40E-03,  avg # of iterations =  1.0

     negative rho (up, down):  4.042E-03 3.458E-03

     total cpu time spent up to now is      372.5 secs

     total energy              =  -21096.18998438 Ry
     estimated scf accuracy    <      10.06970611 Ry

     total magnetization       =   135.97 Bohr mag/cell
     absolute magnetization    =   136.32 Bohr mag/cell

     iteration #  3     ecut=    60.00 Ry     beta= 0.20
     Davidson diagonalization with overlap
     ethr =  9.76E-04,  avg # of iterations =  1.0

     negative rho (up, down):  1.725E-02 5.330E-02

     total cpu time spent up to now is      419.0 secs

     total energy              =  -21095.46641398 Ry
     estimated scf accuracy    <      10.19013402 Ry

     total magnetization       =   141.67 Bohr mag/cell
     absolute magnetization    =   142.06 Bohr mag/cell

     iteration #  4     ecut=    60.00 Ry     beta= 0.20
     Davidson diagonalization with overlap
     ethr =  9.76E-04,  avg # of iterations =  3.9

     negative rho (up, down):  2.918E-02 9.980E-02

     total cpu time spent up to now is      472.4 secs

     total energy              =  -21094.82222797 Ry
     estimated scf accuracy    <       8.91080179 Ry

     total magnetization       =   154.59 Bohr mag/cell
     absolute magnetization    =   155.53 Bohr mag/cell

     iteration #  5     ecut=    60.00 Ry     beta= 0.20
     Davidson diagonalization with overlap
     ethr =  8.63E-04,  avg # of iterations =  6.0

     negative rho (up, down):  4.200E-03 3.564E-02

     total cpu time spent up to now is      539.8 secs

     total energy              =  -21095.33808828 Ry
     estimated scf accuracy    <       4.70516376 Ry

     total magnetization       =   160.13 Bohr mag/cell
     absolute magnetization    =   161.94 Bohr mag/cell

     iteration #  6     ecut=    60.00 Ry     beta= 0.20
     Davidson diagonalization with overlap
     ethr =  4.56E-04,  avg # of iterations =  5.7

     negative rho (up, down):  3.926E-05 8.319E-03

     total cpu time spent up to now is      604.2 secs

     total energy              =  -21095.58770988 Ry
     estimated scf accuracy    <       1.10327177 Ry

     total magnetization       =   153.47 Bohr mag/cell
     absolute magnetization    =   155.97 Bohr mag/cell

     iteration #  7     ecut=    60.00 Ry     beta= 0.20
     Davidson diagonalization with overlap
     c_bands:  1 eigenvalues not converged
     ethr =  1.07E-04,  avg # of iterations = 15.6

     negative rho (up, down):  2.717E-05 5.041E-03

     total cpu time spent up to now is      818.7 secs

     total energy              =  -21096.15358073 Ry
     estimated scf accuracy    <       3.55073025 Ry

     total magnetization       =   150.13 Bohr mag/cell
     absolute magnetization    =   155.93 Bohr mag/cell

     iteration #  8     ecut=    60.00 Ry     beta= 0.20
     Davidson diagonalization with overlap
     ethr =  1.07E-04,  avg # of iterations =  1.4

     negative rho (up, down):  1.137E-05 1.802E-03

     total cpu time spent up to now is      869.5 secs

     total energy              =  -21096.13278024 Ry
     estimated scf accuracy    <       0.60705993 Ry

     total magnetization       =   151.99 Bohr mag/cell
     absolute magnetization    =   157.01 Bohr mag/cell

     iteration #  9     ecut=    60.00 Ry     beta= 0.20
     Davidson diagonalization with overlap
     ethr =  5.88E-05,  avg # of iterations =  4.3

     negative rho (up, down):  2.019E-04 1.262E-03

     total cpu time spent up to now is      929.5 secs

     total energy              =  -21096.13880943 Ry
     estimated scf accuracy    <       0.33980166 Ry

     total magnetization       =   152.79 Bohr mag/cell
     absolute magnetization    =   157.46 Bohr mag/cell

     iteration # 10     ecut=    60.00 Ry     beta= 0.20
     Davidson diagonalization with overlap
     ethr =  3.29E-05,  avg # of iterations =  8.7

     negative rho (up, down):  9.610E-05 1.923E-03

     total cpu time spent up to now is     1039.2 secs

     total energy              =  -21096.17281837 Ry
     estimated scf accuracy    <       0.57547069 Ry

     total magnetization       =   156.17 Bohr mag/cell
     absolute magnetization    =   160.99 Bohr mag/cell

     iteration # 11     ecut=    60.00 Ry     beta= 0.20
     Davidson diagonalization with overlap
     ethr =  3.29E-05,  avg # of iterations =  2.7

     negative rho (up, down):  1.252E-04 1.788E-03

     total cpu time spent up to now is     1096.3 secs

     total energy              =  -21096.18507773 Ry
     estimated scf accuracy    <       0.29360121 Ry

     total magnetization       =   158.12 Bohr mag/cell
     absolute magnetization    =   163.03 Bohr mag/cell

     iteration # 12     ecut=    60.00 Ry     beta= 0.20
     Davidson diagonalization with overlap
     ethr =  2.84E-05,  avg # of iterations =  1.2

     negative rho (up, down):  4.526E-04 2.023E-03

     total cpu time spent up to now is     1147.4 secs

     total energy              =  -21096.17083183 Ry
     estimated scf accuracy    <       0.23156544 Ry

     total magnetization       =   158.77 Bohr mag/cell
     absolute magnetization    =   163.73 Bohr mag/cell

     iteration # 13     ecut=    60.00 Ry     beta= 0.20
     Davidson diagonalization with overlap
     ethr =  2.24E-05,  avg # of iterations =  7.0

     negative rho (up, down):  8.514E-04 2.294E-03

     total cpu time spent up to now is     1207.7 secs

     total energy              =  -21096.16622770 Ry
     estimated scf accuracy    <       0.54501704 Ry

     total magnetization       =   160.78 Bohr mag/cell
     absolute magnetization    =   165.82 Bohr mag/cell

     iteration # 14     ecut=    60.00 Ry     beta= 0.20
     Davidson diagonalization with overlap
     ethr =  2.24E-05,  avg # of iterations =  3.4

     negative rho (up, down):  4.408E-02 3.700E-02

     total cpu time spent up to now is     1264.4 secs

     total energy              =  -21096.16521190 Ry
     estimated scf accuracy    <       0.16796931 Ry

     total magnetization       =   160.97 Bohr mag/cell
     absolute magnetization    =   166.12 Bohr mag/cell

     iteration # 15     ecut=    60.00 Ry     beta= 0.20
     Davidson diagonalization with overlap
     c_bands:  3 eigenvalues not converged
     ethr =  1.63E-05,  avg # of iterations =  5.7

     negative rho (up, down):  5.360E-02 4.780E-02

     total cpu time spent up to now is     1332.5 secs

     total energy              =  -21096.15952789 Ry
     estimated scf accuracy    <       0.12458162 Ry

     total magnetization       =   161.31 Bohr mag/cell
     absolute magnetization    =   166.57 Bohr mag/cell

     iteration # 16     ecut=    60.00 Ry     beta= 0.20
     Davidson diagonalization with overlap
     ethr =  1.21E-05,  avg # of iterations = 11.3

     negative rho (up, down):  1.011E-01 9.574E-02

     total cpu time spent up to now is     1434.9 secs

     total energy              =  -21096.14692363 Ry
     estimated scf accuracy    <       0.07895891 Ry

     total magnetization       =   160.87 Bohr mag/cell
     absolute magnetization    =   166.25 Bohr mag/cell

     iteration # 17     ecut=    60.00 Ry     beta= 0.20
     Davidson diagonalization with overlap
     c_bands:  1 eigenvalues not converged
     ethr =  7.65E-06,  avg # of iterations = 20.1

     negative rho (up, down):  7.506E-02 7.112E-02

     total cpu time spent up to now is     1615.9 secs

     total energy              =  -21096.14372296 Ry
     estimated scf accuracy    <       0.03253517 Ry

     total magnetization       =   160.50 Bohr mag/cell
     absolute magnetization    =   166.12 Bohr mag/cell

     iteration # 18     ecut=    60.00 Ry     beta= 0.20
     Davidson diagonalization with overlap
     c_bands:  1 eigenvalues not converged
     c_bands:  3 eigenvalues not converged
     ethr =  3.15E-06,  avg # of iterations = 16.9

     negative rho (up, down):  1.004E-01 9.650E-02

     total cpu time spent up to now is     1757.2 secs

     total energy              =  -21096.12230804 Ry
     estimated scf accuracy    <       0.03073156 Ry

     total magnetization       =   159.98 Bohr mag/cell
     absolute magnetization    =   165.75 Bohr mag/cell

     iteration # 19     ecut=    60.00 Ry     beta= 0.20
     Davidson diagonalization with overlap
     c_bands:  2 eigenvalues not converged
     ethr =  2.98E-06,  avg # of iterations =  9.8

     negative rho (up, down):  1.108E-01 1.076E-01

     total cpu time spent up to now is     1843.7 secs

     total energy              =  -21096.10932491 Ry
     estimated scf accuracy    <       0.01404509 Ry

     total magnetization       =   160.10 Bohr mag/cell
     absolute magnetization    =   166.07 Bohr mag/cell

     iteration # 20     ecut=    60.00 Ry     beta= 0.20
     Davidson diagonalization with overlap
     c_bands:  3 eigenvalues not converged
     ethr =  1.36E-06,  avg # of iterations = 17.8

     negative rho (up, down):  7.141E-02 7.040E-02

     total cpu time spent up to now is     2030.9 secs

     total energy              =  -21096.10465229 Ry
     estimated scf accuracy    <       0.00765121 Ry

     total magnetization       =   160.50 Bohr mag/cell
     absolute magnetization    =   166.85 Bohr mag/cell

     iteration # 21     ecut=    60.00 Ry     beta= 0.20
     Davidson diagonalization with overlap
     c_bands:  3 eigenvalues not converged
     ethr =  7.41E-07,  avg # of iterations = 12.3

     negative rho (up, down):  4.673E-02 4.805E-02

     total cpu time spent up to now is     2185.9 secs

     total energy              =  -21096.10073931 Ry
     estimated scf accuracy    <       0.00328536 Ry

     total magnetization       =   160.89 Bohr mag/cell
     absolute magnetization    =   167.38 Bohr mag/cell

     iteration # 22     ecut=    60.00 Ry     beta= 0.20
     Davidson diagonalization with overlap
     c_bands:  3 eigenvalues not converged
     ethr =  3.18E-07,  avg # of iterations = 11.8

     negative rho (up, down):  2.886E-02 3.163E-02

     total cpu time spent up to now is     2322.2 secs

     total energy              =  -21096.10364426 Ry
     estimated scf accuracy    <       0.00165597 Ry

     total magnetization       =   161.11 Bohr mag/cell
     absolute magnetization    =   167.76 Bohr mag/cell

     iteration # 23     ecut=    60.00 Ry     beta= 0.20
     Davidson diagonalization with overlap
     c_bands:  3 eigenvalues not converged
     ethr =  1.60E-07,  avg # of iterations = 10.9

     negative rho (up, down):  2.008E-02 2.342E-02

     total cpu time spent up to now is     2446.6 secs

     total energy              =  -21096.10688390 Ry
     estimated scf accuracy    <       0.00102743 Ry

     total magnetization       =   161.21 Bohr mag/cell
     absolute magnetization    =   167.83 Bohr mag/cell

     iteration # 24     ecut=    60.00 Ry     beta= 0.20
     Davidson diagonalization with overlap
     c_bands:  3 eigenvalues not converged
     c_bands:  3 eigenvalues not converged
     ethr =  9.96E-08,  avg # of iterations = 12.5

     negative rho (up, down):  1.567E-02 1.940E-02

     total cpu time spent up to now is     2606.3 secs

     total energy              =  -21096.10774354 Ry
     estimated scf accuracy    <       0.00059972 Ry

     total magnetization       =   161.29 Bohr mag/cell
     absolute magnetization    =   167.93 Bohr mag/cell

     iteration # 25     ecut=    60.00 Ry     beta= 0.20
     Davidson diagonalization with overlap
     c_bands:  2 eigenvalues not converged
     c_bands:  1 eigenvalues not converged
     ethr =  5.81E-08,  avg # of iterations = 10.5

     negative rho (up, down):  1.499E-02 1.908E-02

     total cpu time spent up to now is     2736.9 secs

     total energy              =  -21096.10841499 Ry
     estimated scf accuracy    <       0.00026168 Ry

     total magnetization       =   161.28 Bohr mag/cell
     absolute magnetization    =   167.92 Bohr mag/cell

     iteration # 26     ecut=    60.00 Ry     beta= 0.20
     Davidson diagonalization with overlap
     ethr =  2.54E-08,  avg # of iterations =  7.5

     negative rho (up, down):  1.373E-02 1.805E-02

     total cpu time spent up to now is     2838.6 secs

     total energy              =  -21096.10990607 Ry
     estimated scf accuracy    <       0.00011535 Ry

     total magnetization       =   161.24 Bohr mag/cell
     absolute magnetization    =   167.86 Bohr mag/cell

     iteration # 27     ecut=    60.00 Ry     beta= 0.20
     Davidson diagonalization with overlap
     c_bands:  2 eigenvalues not converged
     ethr =  1.12E-08,  avg # of iterations =  8.9

     negative rho (up, down):  1.270E-02 1.718E-02

     total cpu time spent up to now is     2958.1 secs

     total energy              =  -21096.11070093 Ry
     estimated scf accuracy    <       0.00011901 Ry

     total magnetization       =   161.28 Bohr mag/cell
     absolute magnetization    =   167.90 Bohr mag/cell

     iteration # 28     ecut=    60.00 Ry     beta= 0.20
     Davidson diagonalization with overlap
     ethr =  1.12E-08,  avg # of iterations =  5.2

     negative rho (up, down):  1.206E-02 1.660E-02

     total cpu time spent up to now is     3051.1 secs

     total energy              =  -21096.11126062 Ry
     estimated scf accuracy    <       0.00002015 Ry

     total magnetization       =   161.32 Bohr mag/cell
     absolute magnetization    =   167.95 Bohr mag/cell

     iteration # 29     ecut=    60.00 Ry     beta= 0.20
     Davidson diagonalization with overlap
     ethr =  1.95E-09,  avg # of iterations = 10.9

     negative rho (up, down):  1.192E-02 1.648E-02

     total cpu time spent up to now is     3239.8 secs

     total energy              =  -21096.11132426 Ry
     estimated scf accuracy    <       0.00000615 Ry

     total magnetization       =   161.31 Bohr mag/cell
     absolute magnetization    =   167.95 Bohr mag/cell

     iteration # 30     ecut=    60.00 Ry     beta= 0.20
     Davidson diagonalization with overlap
     ethr =  5.96E-10,  avg # of iterations =  7.5

     negative rho (up, down):  1.191E-02 1.648E-02

     total cpu time spent up to now is     3391.3 secs

     total energy              =  -21096.11132937 Ry
     estimated scf accuracy    <       0.00000479 Ry

     total magnetization       =   161.32 Bohr mag/cell
     absolute magnetization    =   167.96 Bohr mag/cell

     iteration # 31     ecut=    60.00 Ry     beta= 0.20
     Davidson diagonalization with overlap
     ethr =  4.64E-10,  avg # of iterations =  1.9

     negative rho (up, down):  1.189E-02 1.646E-02

     total cpu time spent up to now is     3440.9 secs

     total energy              =  -21096.11158457 Ry
     estimated scf accuracy    <       0.00000368 Ry

     total magnetization       =   161.32 Bohr mag/cell
     absolute magnetization    =   167.96 Bohr mag/cell

     iteration # 32     ecut=    60.00 Ry     beta= 0.20
     Davidson diagonalization with overlap
     ethr =  3.57E-10,  avg # of iterations =  7.2

     negative rho (up, down):  1.184E-02 1.642E-02

     total cpu time spent up to now is     3546.7 secs

     total energy              =  -21096.11171961 Ry
     estimated scf accuracy    <       0.00000197 Ry

     total magnetization       =   161.33 Bohr mag/cell
     absolute magnetization    =   167.98 Bohr mag/cell

     iteration # 33     ecut=    60.00 Ry     beta= 0.20
     Davidson diagonalization with overlap
     ethr =  1.91E-10,  avg # of iterations =  6.2

     negative rho (up, down):  1.177E-02 1.636E-02

     total cpu time spent up to now is     3624.4 secs

     total energy              =  -21096.11182412 Ry
     estimated scf accuracy    <       0.00000118 Ry

     total magnetization       =   161.34 Bohr mag/cell
     absolute magnetization    =   167.99 Bohr mag/cell

     iteration # 34     ecut=    60.00 Ry     beta= 0.20
     Davidson diagonalization with overlap
     ethr =  1.15E-10,  avg # of iterations =  7.1

     negative rho (up, down):  1.174E-02 1.633E-02

     total cpu time spent up to now is     3696.8 secs

     total energy              =  -21096.11194941 Ry
     estimated scf accuracy    <       0.00000071 Ry

     total magnetization       =   161.35 Bohr mag/cell
     absolute magnetization    =   168.00 Bohr mag/cell

     iteration # 35     ecut=    60.00 Ry     beta= 0.20
     Davidson diagonalization with overlap
     ethr =  6.89E-11,  avg # of iterations =  8.9

     negative rho (up, down):  1.165E-02 1.623E-02

     total cpu time spent up to now is     3839.3 secs

     total energy              =  -21096.11204778 Ry
     estimated scf accuracy    <       0.00000067 Ry

     total magnetization       =   161.36 Bohr mag/cell
     absolute magnetization    =   168.01 Bohr mag/cell

     iteration # 36     ecut=    60.00 Ry     beta= 0.20
     Davidson diagonalization with overlap
     ethr =  6.51E-11,  avg # of iterations =  4.1

     negative rho (up, down):  1.164E-02 1.622E-02

     total cpu time spent up to now is     3910.8 secs

     total energy              =  -21096.11204752 Ry
     estimated scf accuracy    <       0.00000035 Ry

     total magnetization       =   161.37 Bohr mag/cell
     absolute magnetization    =   168.02 Bohr mag/cell

     iteration # 37     ecut=    60.00 Ry     beta= 0.20
     Davidson diagonalization with overlap
     ethr =  3.39E-11,  avg # of iterations =  6.7

     negative rho (up, down):  1.168E-02 1.626E-02

     total cpu time spent up to now is     3996.4 secs

     total energy              =  -21096.11199751 Ry
     estimated scf accuracy    <       0.00000019 Ry

     total magnetization       =   161.37 Bohr mag/cell
     absolute magnetization    =   168.02 Bohr mag/cell

     iteration # 38     ecut=    60.00 Ry     beta= 0.20
     Davidson diagonalization with overlap
     ethr =  1.88E-11,  avg # of iterations =  8.4

     negative rho (up, down):  1.176E-02 1.635E-02

     total cpu time spent up to now is     4083.2 secs

     total energy              =  -21096.11193889 Ry
     estimated scf accuracy    <       0.00000012 Ry

     total magnetization       =   161.37 Bohr mag/cell
     absolute magnetization    =   168.02 Bohr mag/cell

     iteration # 39     ecut=    60.00 Ry     beta= 0.20
     Davidson diagonalization with overlap
     ethr =  1.11E-11,  avg # of iterations =  9.3

     negative rho (up, down):  1.178E-02 1.637E-02

     total cpu time spent up to now is     4213.2 secs

     total energy              =  -21096.11195149 Ry
     estimated scf accuracy    <       0.00000005 Ry

     total magnetization       =   161.37 Bohr mag/cell
     absolute magnetization    =   168.02 Bohr mag/cell

     iteration # 40     ecut=    60.00 Ry     beta= 0.20
     Davidson diagonalization with overlap
     ethr =  5.12E-12,  avg # of iterations =  7.8

     negative rho (up, down):  1.180E-02 1.638E-02

     total cpu time spent up to now is     4360.0 secs

     total energy              =  -21096.11194445 Ry
     estimated scf accuracy    <       0.00000004 Ry

     total magnetization       =   161.37 Bohr mag/cell
     absolute magnetization    =   168.03 Bohr mag/cell

     iteration # 41     ecut=    60.00 Ry     beta= 0.20
     Davidson diagonalization with overlap
     ethr =  3.50E-12,  avg # of iterations =  1.9

     negative rho (up, down):  1.181E-02 1.639E-02

     total cpu time spent up to now is     4411.3 secs

     total energy              =  -21096.11194901 Ry
     estimated scf accuracy    <       0.00000002 Ry

     total magnetization       =   161.37 Bohr mag/cell
     absolute magnetization    =   168.03 Bohr mag/cell

     iteration # 42     ecut=    60.00 Ry     beta= 0.20
     Davidson diagonalization with overlap
     ethr =  2.02E-12,  avg # of iterations =  7.3

     negative rho (up, down):  1.181E-02 1.640E-02

     total cpu time spent up to now is     4525.0 secs

     total energy              =  -21096.11195207 Ry
     estimated scf accuracy    <       0.00000002 Ry

     total magnetization       =   161.37 Bohr mag/cell
     absolute magnetization    =   168.03 Bohr mag/cell

     iteration # 43     ecut=    60.00 Ry     beta= 0.20
     Davidson diagonalization with overlap
     ethr =  1.59E-12,  avg # of iterations =  5.7

     negative rho (up, down):  1.182E-02 1.641E-02

     Magnetic moment per site:
     atom:    1    charge:   12.6272    magn:    2.3606    constr:    0.0000
     atom:    2    charge:   12.6153    magn:    2.2123    constr:    0.0000
     atom:    3    charge:   12.6275    magn:    2.3643    constr:    0.0000
     atom:    4    charge:   12.6165    magn:    2.1886    constr:    0.0000
     atom:    5    charge:   12.6175    magn:    2.1944    constr:    0.0000
     atom:    6    charge:   12.6283    magn:    2.2286    constr:    0.0000
     atom:    7    charge:   12.6208    magn:    2.1426    constr:    0.0000
     atom:    8    charge:   12.6266    magn:    2.3614    constr:    0.0000
     atom:    9    charge:   12.6276    magn:    2.3544    constr:    0.0000
     atom:   10    charge:   12.6273    magn:    2.3625    constr:    0.0000
     atom:   11    charge:   12.6170    magn:    2.1908    constr:    0.0000
     atom:   12    charge:   12.6168    magn:    2.1914    constr:    0.0000
     atom:   13    charge:   12.6180    magn:    2.1892    constr:    0.0000
     atom:   14    charge:   12.6162    magn:    2.1643    constr:    0.0000
     atom:   15    charge:   12.6267    magn:    2.3686    constr:    0.0000
     atom:   16    charge:   12.6270    magn:    2.2706    constr:    0.0000
     atom:   17    charge:   12.6273    magn:    2.3642    constr:    0.0000
     atom:   18    charge:   12.6164    magn:    2.1886    constr:    0.0000
     atom:   19    charge:   12.6274    magn:    2.3649    constr:    0.0000
     atom:   20    charge:   12.6160    magn:    2.2349    constr:    0.0000
     atom:   21    charge:   12.6209    magn:    2.1424    constr:    0.0000
     atom:   22    charge:   12.6265    magn:    2.3612    constr:    0.0000
     atom:   23    charge:   12.6209    magn:    2.1419    constr:    0.0000
     atom:   24    charge:   12.6184    magn:    2.0615    constr:    0.0000
     atom:   25    charge:   12.6277    magn:    2.3754    constr:    0.0000
     atom:   26    charge:   12.6277    magn:    2.3620    constr:    0.0000
     atom:   27    charge:   12.6168    magn:    2.1902    constr:    0.0000
     atom:   28    charge:   12.6168    magn:    2.1884    constr:    0.0000
     atom:   29    charge:   12.6137    magn:    2.2898    constr:    0.0000
     atom:   30    charge:   12.6116    magn:    2.1066    constr:    0.0000
     atom:   31    charge:   12.6392    magn:    2.3288    constr:    0.0000
     atom:   32    charge:   12.6260    magn:    2.3675    constr:    0.0000
     atom:   33    charge:   12.6272    magn:    2.3607    constr:    0.0000
     atom:   34    charge:   12.6164    magn:    2.1847    constr:    0.0000
     atom:   35    charge:   12.6271    magn:    2.3606    constr:    0.0000
     atom:   36    charge:   12.6158    magn:    2.2124    constr:    0.0000
     atom:   37    charge:   12.6178    magn:    2.1835    constr:    0.0000
     atom:   38    charge:   12.6276    magn:    2.3459    constr:    0.0000
     atom:   39    charge:   12.6177    magn:    2.1945    constr:    0.0000
     atom:   40    charge:   12.6283    magn:    2.2287    constr:    0.0000
     atom:   41    charge:   12.6270    magn:    2.3780    constr:    0.0000
     atom:   42    charge:   12.6282    magn:    2.3621    constr:    0.0000
     atom:   43    charge:   12.6163    magn:    2.1936    constr:    0.0000
     atom:   44    charge:   12.6166    magn:    2.1884    constr:    0.0000
     atom:   45    charge:   12.6191    magn:    2.1886    constr:    0.0000
     atom:   46    charge:   12.6120    magn:    2.1070    constr:    0.0000
     atom:   47    charge:   12.6298    magn:    2.3954    constr:    0.0000
     atom:   48    charge:   12.6259    magn:    2.3677    constr:    0.0000
     atom:   49    charge:   12.6276    magn:    2.3650    constr:    0.0000
     atom:   50    charge:   12.6165    magn:    2.2351    constr:    0.0000
     atom:   51    charge:   12.6274    magn:    2.3607    constr:    0.0000
     atom:   52    charge:   12.6165    magn:    2.1847    constr:    0.0000
     atom:   53    charge:   12.6209    magn:    2.1420    constr:    0.0000
     atom:   54    charge:   12.6179    magn:    2.0613    constr:    0.0000
     atom:   55    charge:   12.6177    magn:    2.1834    constr:    0.0000
     atom:   56    charge:   12.6278    magn:    2.3461    constr:    0.0000
     atom:   57    charge:   12.6276    magn:    2.3544    constr:    0.0000
     atom:   58    charge:   12.6272    magn:    2.3631    constr:    0.0000
     atom:   59    charge:   12.6169    magn:    2.1908    constr:    0.0000
     atom:   60    charge:   12.6169    magn:    2.1900    constr:    0.0000
     atom:   61    charge:   12.6180    magn:    2.1892    constr:    0.0000
     atom:   62    charge:   12.6163    magn:    2.1723    constr:    0.0000
     atom:   63    charge:   12.6266    magn:    2.3690    constr:    0.0000
     atom:   64    charge:   12.6387    magn:    2.3373    constr:    0.0000
     atom:   65    charge:    1.3505    magn:   -0.0011    constr:    0.0000
     atom:   66    charge:    0.4384    magn:    0.0076    constr:    0.0000
     atom:   67    charge:    0.4383    magn:    0.0076    constr:    0.0000
     atom:   68    charge:    0.3538    magn:   -0.0200    constr:    0.0000

     total cpu time spent up to now is     4598.1 secs

     End of self-consistent calculation

 ------ SPIN UP ------------


          k = 0.0000 0.0000 0.0000 (128403 PWs)   bands (ev):

   -92.3119 -92.3009 -92.2960 -92.2932 -92.2905 -92.2904 -92.2862 -92.2825
   -92.2801 -92.2782 -92.2756 -92.2753 -92.2672 -92.2670 -92.2613 -92.2611
   -92.2604 -92.2576 -92.2553 -92.2544 -92.2513 -92.2500 -92.2488 -92.2482
   -92.2444 -92.2440 -92.2379 -92.2349 -92.2347 -92.2321 -92.2258 -92.2178
   -92.2160 -92.1657 -92.1514 -92.1472 -92.1436 -92.1426 -92.1399 -92.1349
   -92.1302 -92.1277 -92.1275 -92.1212 -92.1202 -92.1184 -92.1164 -92.1161
   -92.1138 -92.1138 -92.1128 -92.1119 -92.1089 -92.1077 -92.1061 -92.1038
   -92.0991 -92.0945 -92.0922 -92.0869 -92.0772 -92.0756 -92.0747 -92.0661
   -58.5150 -58.5042 -58.4959 -58.4872 -58.4868 -58.4769 -58.4763 -58.4757
   -58.4716 -58.4693 -58.4660 -58.4652 -58.4624 -58.4617 -58.4571 -58.4564
   -58.4558 -58.4522 -58.4504 -58.4471 -58.4462 -58.4422 -58.4400 -58.4377
   -58.4342 -58.4333 -58.4282 -58.4273 -58.4229 -58.4212 -58.4206 -58.4158
   -58.4151 -58.4130 -58.4072 -58.4037 -58.4010 -58.3975 -58.3959 -58.3884
   -58.3828 -58.3792 -58.3791 -58.3788 -58.3778 -58.3745 -58.3502 -58.3325
   -58.3321 -58.3302 -58.3288 -58.3213 -58.3200 -58.3174 -58.3151 -58.3118
   -58.3068 -58.3066 -58.3060 -58.3027 -58.3000 -58.2987 -58.2982 -58.2964
   -58.2952 -58.2936 -58.2901 -58.2881 -58.2859 -58.2843 -58.2833 -58.2815
   -58.2788 -58.2761 -58.2725 -58.2675 -58.2631 -58.2549 -58.2543 -58.2506
   -58.2484 -58.2464 -58.2455 -58.2423 -58.2399 -58.2392 -58.2372 -58.2362
   -58.2361 -58.2332 -58.2310 -58.2290 -58.2273 -58.2261 -58.2242 -58.2226
   -58.2195 -58.2157 -58.2155 -58.2082 -58.2070 -58.2052 -58.1971 -58.1961
   -58.1946 -58.1942 -58.1935 -58.1886 -58.1876 -58.1839 -58.1838 -58.1820
   -58.1817 -58.1800 -58.1778 -58.1726 -58.1724 -58.1700 -58.1690 -58.1663
   -58.1655 -58.1654 -58.1621 -58.1596 -58.1592 -58.1583 -58.1563 -58.1558
   -58.1525 -58.1518 -58.1490 -58.1468 -58.1451 -58.1408 -58.1372 -58.1357
   -58.1352 -58.1321 -58.1312 -58.1283 -58.1269 -58.1252 -58.1222 -58.1210
   -58.1185 -58.1153 -58.1138 -58.1061 -58.1045 -58.1037 -58.0999 -58.0974
   -58.0966 -58.0906 -58.0861 -58.0854 -58.0852 -58.0842 -58.0825 -58.0800
   -58.0793 -58.0756 -58.0748 -58.0684 -58.0683 -58.0665 -58.0648 -58.0618
   -58.0608 -58.0592 -58.0582 -58.0505 -58.0459 -58.0449 -58.0427 -58.0347
   -58.0335 -58.0254 -58.0227 -58.0223 -58.0215 -58.0211 -58.0195 -58.0185
   -58.0184 -58.0138 -58.0133 -58.0128 -58.0126 -58.0078 -58.0077 -58.0067
   -21.5152 -12.7042 -12.1240 -11.2863 -10.9982 -10.4423 -10.4029 -10.3877
   -10.3750 -10.1574  -9.9137  -9.8309  -9.4898  -9.3972  -9.3927  -9.3061
    -9.1342  -8.9735  -8.9598  -8.8453  -8.8381  -8.7644  -8.7562  -8.7323
    -8.7169  -8.6757  -8.6584  -8.6277  -8.5784  -8.5565  -8.3225  -8.3221
    -8.2823  -8.2671  -8.2170  -8.2099  -8.1957  -8.1929  -8.1928  -8.1890
    -8.1816  -8.1773  -8.1674  -8.1659  -8.1601  -8.1599  -8.1592  -8.1488
    -8.1322  -8.1206  -8.1096  -8.1043  -8.1041  -8.0889  -8.0830  -8.0785
    -8.0461  -7.9922  -7.9778  -7.9693  -7.9546  -7.9245  -7.9061  -7.9029
    -7.8924  -7.8690  -7.8037  -7.6259  -7.5997  -7.5959  -7.5924  -7.5881
    -7.5780  -7.4767  -7.4691  -7.4413  -7.4227  -7.4136  -7.4125  -7.4074
    -7.4061  -7.4055  -7.3926  -7.3883  -7.3829  -7.3721  -7.3680  -7.3666
    -7.3572  -7.3544  -7.3497  -7.3375  -7.3349  -7.3313  -7.3294  -7.3199
    -7.3054  -7.3002  -7.2994  -7.2770  -7.2769  -7.2747  -7.2670  -7.2585
    -7.2563  -7.2430  -7.2317  -7.2295  -7.2131  -7.2102  -7.2072  -7.1835
    -7.1397  -7.1312  -7.0642  -7.0393  -7.0378  -7.0278  -7.0193  -7.0129
    -6.9873  -6.9447  -6.8918  -6.8397  -6.8371  -6.8346  -6.8242  -6.8231
    -6.8211  -6.8155  -6.7973  -6.7857  -6.7686  -6.7536  -6.7529  -6.7459
    -6.7428  -6.7160  -6.7067  -6.7053  -6.7011  -6.6966  -6.6912  -6.6910
    -6.6800  -6.6770  -6.6548  -6.6279  -6.5616  -6.5584  -6.5492  -6.5314
    -6.5313  -6.5306  -6.5264  -6.5226  -6.5185  -6.4886  -6.4813  -6.4516
    -6.4371  -6.4256  -6.3974  -6.3970  -6.3960  -6.3907  -6.3567  -6.3546
    -6.3513  -6.3485  -6.3172  -6.3143  -6.3031  -6.3019  -6.2934  -6.2894
    -6.2701  -6.2698  -6.2603  -6.2549  -6.2523  -6.2504  -6.2410  -6.2326
    -6.2268  -6.2116  -6.1609  -6.1234  -6.1225  -6.0896  -6.0215  -6.0095
    -5.9171  -5.8689  -5.7631  -5.7423  -5.7327  -5.7327  -5.7237  -5.7179
    -5.7169  -5.7143  -5.7057  -5.7013  -5.6767  -5.6635  -5.6400  -5.6358
    -5.6318  -5.6127  -5.6085  -5.5956  -5.5829  -5.5660  -5.5575  -5.5542
    -5.5416  -5.5399  -5.5287  -5.5193  -5.5174  -5.5163  -5.4864  -5.4812
    -5.4777  -5.4609  -5.4451  -5.4202  -5.4181  -5.4156  -5.4096  -5.4079
    -5.4009  -5.3925  -5.3805  -5.3794  -5.3758  -5.3744  -5.3697  -5.3666
    -5.3461  -5.3354  -5.3282  -5.3258  -5.3200  -5.3117  -5.3060  -5.3024
    -5.3005  -5.2970  -5.2952  -5.2936  -5.2922  -5.2916  -5.2814  -5.2763
    -5.2733  -5.2685  -5.2643  -5.2611  -5.2589  -5.2516  -5.2504  -5.2439
    -5.2373  -5.2319  -5.2260  -5.2196  -5.2179  -5.2143  -5.1967  -5.1884
    -5.1857  -5.1850  -5.1823  -5.1781  -5.1715  -5.1635  -5.1618  -5.1575
    -5.1542  -5.1327  -5.1266  -5.1263  -5.1119  -5.0884  -5.0716  -5.0690
    -5.0631  -5.0579  -5.0348  -5.0262  -5.0255  -5.0248  -4.9699  -4.9506
    -4.9216  -4.9108  -4.9052  -4.9037  -4.8995  -4.8905  -4.8904  -4.8821
    -4.8762  -4.8735  -4.8722  -4.8543  -4.8501  -4.8480  -4.8373  -4.8314
    -4.8215  -4.8170  -4.8087  -4.7279  -4.7219  -4.7187  -4.5789  -4.4313
    -4.4205  -4.4034  -4.3882  -4.3642  -4.3445  -4.2954  -4.2928  -4.2845
    -4.2590  -4.2343  -4.2008  -4.1631  -4.1566  -4.1537  -4.1431  -4.1193
    -4.0897  -4.0693  -4.0690  -4.0586  -4.0302  -3.9344  -3.9195  -3.8446
    -3.8335  -3.7687  -3.7580  -3.7468  -3.4980  -3.1284  -3.1119  -3.1089
    -3.1078  -3.0087  -3.0051  -2.8745  -2.4611  -2.2814  -2.1916  -2.1852
    -2.1803  -2.1399  -2.1394

          k = 0.0000 0.2652 0.0000 (128375 PWs)   bands (ev):

   -92.3116 -92.3007 -92.2950 -92.2947 -92.2906 -92.2887 -92.2865 -92.2857
   -92.2803 -92.2786 -92.2749 -92.2720 -92.2701 -92.2659 -92.2626 -92.2612
   -92.2598 -92.2556 -92.2545 -92.2537 -92.2530 -92.2500 -92.2489 -92.2479
   -92.2472 -92.2411 -92.2377 -92.2355 -92.2348 -92.2324 -92.2257 -92.2178
   -92.2161 -92.1647 -92.1540 -92.1464 -92.1449 -92.1417 -92.1375 -92.1357
   -92.1303 -92.1280 -92.1253 -92.1221 -92.1207 -92.1189 -92.1169 -92.1159
   -92.1145 -92.1139 -92.1128 -92.1117 -92.1107 -92.1064 -92.1049 -92.1030
   -92.0996 -92.0957 -92.0911 -92.0874 -92.0779 -92.0759 -92.0728 -92.0669
   -58.5132 -58.5048 -58.4965 -58.4882 -58.4848 -58.4791 -58.4767 -58.4739
   -58.4733 -58.4703 -58.4666 -58.4660 -58.4611 -58.4603 -58.4569 -58.4549
   -58.4535 -58.4524 -58.4500 -58.4489 -58.4446 -58.4435 -58.4393 -58.4370
   -58.4361 -58.4305 -58.4279 -58.4271 -58.4222 -58.4212 -58.4156 -58.4137
   -58.4110 -58.4091 -58.4037 -58.4000 -58.3995 -58.3959 -58.3925 -58.3882
   -58.3855 -58.3808 -58.3801 -58.3737 -58.3694 -58.3652 -58.3527 -58.3451
   -58.3414 -58.3338 -58.3279 -58.3269 -58.3244 -58.3241 -58.3210 -58.3149
   -58.3128 -58.3093 -58.3071 -58.3028 -58.3012 -58.2997 -58.2979 -58.2964
   -58.2950 -58.2939 -58.2921 -58.2916 -58.2887 -58.2862 -58.2831 -58.2820
   -58.2805 -58.2762 -58.2754 -58.2722 -58.2693 -58.2660 -58.2621 -58.2595
   -58.2544 -58.2513 -58.2482 -58.2463 -58.2450 -58.2428 -58.2398 -58.2358
   -58.2307 -58.2289 -58.2263 -58.2250 -58.2231 -58.2208 -58.2189 -58.2175
   -58.2154 -58.2119 -58.2073 -58.2056 -58.2046 -58.2033 -58.2000 -58.1979
   -58.1946 -58.1930 -58.1901 -58.1893 -58.1875 -58.1864 -58.1858 -58.1841
   -58.1829 -58.1803 -58.1787 -58.1782 -58.1741 -58.1722 -58.1694 -58.1685
   -58.1668 -58.1621 -58.1610 -58.1589 -58.1554 -58.1538 -58.1520 -58.1495
   -58.1479 -58.1464 -58.1422 -58.1409 -58.1395 -58.1382 -58.1375 -58.1357
   -58.1326 -58.1295 -58.1283 -58.1254 -58.1238 -58.1221 -58.1203 -58.1160
   -58.1155 -58.1137 -58.1091 -58.1063 -58.1039 -58.1033 -58.0986 -58.0969
   -58.0939 -58.0928 -58.0881 -58.0861 -58.0855 -58.0850 -58.0835 -58.0825
   -58.0797 -58.0759 -58.0728 -58.0686 -58.0678 -58.0664 -58.0638 -58.0604
   -58.0587 -58.0540 -58.0524 -58.0502 -58.0444 -58.0425 -58.0419 -58.0364
   -58.0341 -58.0285 -58.0276 -58.0269 -58.0254 -58.0231 -58.0224 -58.0207
   -58.0202 -58.0192 -58.0179 -58.0162 -58.0131 -58.0119 -58.0092 -58.0078
   -21.5152 -12.7048 -12.0116 -11.2985 -11.1368 -10.8345 -10.4934 -10.3711
   -10.1446 -10.0541  -9.7955  -9.6609  -9.4428  -9.4334  -9.2763  -9.1732
    -9.0943  -9.0449  -9.0042  -8.8524  -8.8161  -8.7959  -8.7166  -8.7006
    -8.6753  -8.6528  -8.6336  -8.6140  -8.5859  -8.5418  -8.4625  -8.3826
    -8.3398  -8.3323  -8.3261  -8.2995  -8.2937  -8.2809  -8.2764  -8.2662
    -8.2369  -8.2270  -8.2157  -8.1998  -8.1938  -8.1802  -8.1628  -8.1513
    -8.1301  -8.1171  -8.1066  -8.0940  -8.0866  -8.0469  -8.0362  -8.0173
    -8.0137  -8.0084  -8.0015  -7.9701  -7.9478  -7.8753  -7.8673  -7.8383
    -7.8314  -7.8124  -7.7881  -7.7603  -7.6972  -7.6499  -7.6188  -7.5764
    -7.5462  -7.5337  -7.5294  -7.4832  -7.4406  -7.4306  -7.4255  -7.4181
    -7.3989  -7.3913  -7.3780  -7.3708  -7.3688  -7.3670  -7.3599  -7.3550
    -7.3445  -7.3389  -7.3319  -7.3216  -7.3129  -7.3008  -7.2898  -7.2862
    -7.2831  -7.2762  -7.2706  -7.2694  -7.2650  -7.2616  -7.2485  -7.2297
    -7.2217  -7.1947  -7.1731  -7.1709  -7.1677  -7.1607  -7.1400  -7.1333
    -7.1272  -7.1210  -7.1014  -7.0941  -7.0740  -7.0249  -6.9962  -6.9870
    -6.9678  -6.9331  -6.9189  -6.9132  -6.8938  -6.8880  -6.8377  -6.8292
    -6.8195  -6.8088  -6.8040  -6.7923  -6.7833  -6.7812  -6.7725  -6.7666
    -6.7630  -6.7484  -6.7314  -6.7223  -6.7185  -6.6998  -6.6822  -6.6768
    -6.6660  -6.6607  -6.6251  -6.5982  -6.5859  -6.5781  -6.5712  -6.5546
    -6.5444  -6.5330  -6.5251  -6.5160  -6.5090  -6.5050  -6.4947  -6.4904
    -6.4774  -6.4745  -6.4691  -6.4608  -6.4404  -6.4206  -6.4057  -6.3829
    -6.3556  -6.3492  -6.3339  -6.3251  -6.3150  -6.2943  -6.2844  -6.2769
    -6.2654  -6.2503  -6.2351  -6.2263  -6.2127  -6.1702  -6.1631  -6.1527
    -6.1255  -6.1063  -6.0749  -6.0556  -6.0450  -6.0250  -5.9630  -5.9066
    -5.8603  -5.8508  -5.8176  -5.8063  -5.7929  -5.7838  -5.7603  -5.7431
    -5.7265  -5.7211  -5.7083  -5.6910  -5.6862  -5.6823  -5.6720  -5.6635
    -5.6523  -5.6400  -5.6274  -5.6063  -5.5996  -5.5808  -5.5741  -5.5543
    -5.5465  -5.5323  -5.5193  -5.5129  -5.5025  -5.4989  -5.4885  -5.4859
    -5.4819  -5.4709  -5.4657  -5.4517  -5.4451  -5.4348  -5.4218  -5.4036
    -5.3962  -5.3862  -5.3845  -5.3761  -5.3671  -5.3597  -5.3576  -5.3549
    -5.3479  -5.3425  -5.3373  -5.3315  -5.3283  -5.3146  -5.3118  -5.3050
    -5.2991  -5.2907  -5.2857  -5.2776  -5.2729  -5.2609  -5.2589  -5.2560
    -5.2520  -5.2472  -5.2432  -5.2386  -5.2348  -5.2308  -5.2252  -5.2201
    -5.2097  -5.2067  -5.1986  -5.1948  -5.1891  -5.1851  -5.1799  -5.1742
    -5.1723  -5.1665  -5.1617  -5.1499  -5.1451  -5.1392  -5.1247  -5.1220
    -5.1183  -5.1026  -5.0890  -5.0760  -5.0530  -5.0400  -5.0368  -5.0234
    -5.0172  -5.0134  -5.0102  -4.9967  -4.9896  -4.9835  -4.9807  -4.9771
    -4.9573  -4.9418  -4.9205  -4.9114  -4.9019  -4.8990  -4.8929  -4.8850
    -4.8718  -4.8671  -4.8605  -4.8542  -4.8460  -4.8334  -4.8125  -4.7826
    -4.7578  -4.7391  -4.7020  -4.6852  -4.6765  -4.5151  -4.4835  -4.4651
    -4.4612  -4.4388  -4.4286  -4.4128  -4.3939  -4.3776  -4.3423  -4.3218
    -4.3051  -4.2950  -4.2850  -4.2741  -4.2621  -4.2543  -4.2406  -4.2244
    -4.1923  -4.1779  -4.1654  -4.1370  -4.1138  -4.0944  -4.0655  -4.0080
    -3.9273  -3.7149  -3.6878  -3.5379  -3.4390  -3.2850  -3.2427  -3.1255
    -3.0598  -2.9678  -2.9020  -2.7947  -2.7384  -2.7027  -2.6320  -2.5412
    -2.3500  -2.2908  -2.2589

          k = 0.0000-0.5303 0.0000 (128388 PWs)   bands (ev):

   -92.3113 -92.3003 -92.2966 -92.2917 -92.2903 -92.2902 -92.2878 -92.2869
   -92.2805 -92.2772 -92.2752 -92.2715 -92.2705 -92.2651 -92.2650 -92.2592
   -92.2588 -92.2567 -92.2560 -92.2509 -92.2509 -92.2501 -92.2501 -92.2492
   -92.2489 -92.2380 -92.2378 -92.2376 -92.2346 -92.2327 -92.2255 -92.2178
   -92.2162 -92.1631 -92.1569 -92.1466 -92.1433 -92.1419 -92.1393 -92.1329
   -92.1307 -92.1273 -92.1250 -92.1223 -92.1207 -92.1198 -92.1171 -92.1157
   -92.1155 -92.1140 -92.1137 -92.1115 -92.1102 -92.1070 -92.1042 -92.1004
   -92.0995 -92.0978 -92.0901 -92.0880 -92.0784 -92.0760 -92.0708 -92.0683
   -58.5101 -58.5066 -58.4975 -58.4881 -58.4809 -58.4802 -58.4800 -58.4758
   -58.4736 -58.4683 -58.4675 -58.4653 -58.4638 -58.4572 -58.4549 -58.4545
   -58.4536 -58.4522 -58.4498 -58.4481 -58.4470 -58.4403 -58.4399 -58.4379
   -58.4365 -58.4290 -58.4274 -58.4252 -58.4245 -58.4206 -58.4104 -58.4092
   -58.4069 -58.4037 -58.3985 -58.3955 -58.3947 -58.3932 -58.3927 -58.3922
   -58.3862 -58.3812 -58.3687 -58.3667 -58.3644 -58.3618 -58.3534 -58.3528
   -58.3484 -58.3450 -58.3366 -58.3362 -58.3347 -58.3314 -58.3281 -58.3259
   -58.3194 -58.3111 -58.3082 -58.3055 -58.3039 -58.2989 -58.2964 -58.2949
   -58.2916 -58.2910 -58.2901 -58.2877 -58.2871 -58.2856 -58.2814 -58.2791
   -58.2770 -58.2756 -58.2746 -58.2730 -58.2689 -58.2682 -58.2637 -58.2629
   -58.2608 -58.2594 -58.2562 -58.2537 -58.2515 -58.2499 -58.2476 -58.2459
   -58.2434 -58.2389 -58.2306 -58.2243 -58.2217 -58.2183 -58.2165 -58.2148
   -58.2118 -58.2099 -58.2059 -58.2045 -58.2009 -58.1970 -58.1961 -58.1910
   -58.1885 -58.1880 -58.1877 -58.1838 -58.1823 -58.1811 -58.1804 -58.1798
   -58.1792 -58.1783 -58.1771 -58.1754 -58.1728 -58.1710 -58.1666 -58.1659
   -58.1642 -58.1627 -58.1611 -58.1605 -58.1582 -58.1559 -58.1553 -58.1524
   -58.1508 -58.1447 -58.1402 -58.1397 -58.1394 -58.1377 -58.1357 -58.1323
   -58.1301 -58.1282 -58.1274 -58.1228 -58.1196 -58.1184 -58.1157 -58.1144
   -58.1127 -58.1099 -58.1063 -58.1049 -58.1039 -58.1025 -58.0997 -58.0958
   -58.0954 -58.0939 -58.0929 -58.0894 -58.0861 -58.0849 -58.0841 -58.0807
   -58.0761 -58.0725 -58.0699 -58.0674 -58.0667 -58.0624 -58.0556 -58.0518
   -58.0507 -58.0492 -58.0474 -58.0467 -58.0426 -58.0422 -58.0411 -58.0396
   -58.0384 -58.0378 -58.0364 -58.0338 -58.0306 -58.0295 -58.0294 -58.0262
   -58.0246 -58.0236 -58.0193 -58.0188 -58.0138 -58.0135 -58.0097 -58.0086
   -21.5152 -12.7054 -11.6970 -11.6817 -11.1630 -10.8786 -10.4771 -10.4670
   -10.2169  -9.9876  -9.6053  -9.5856  -9.3927  -9.3453  -9.1305  -9.0831
    -9.0229  -8.9772  -8.9597  -8.9217  -8.8381  -8.8070  -8.7785  -8.7597
    -8.6406  -8.6174  -8.6008  -8.5457  -8.5328  -8.5254  -8.5195  -8.5095
    -8.4872  -8.4843  -8.4667  -8.4607  -8.4508  -8.3837  -8.3777  -8.3111
    -8.2560  -8.2228  -8.2047  -8.1650  -8.1624  -8.1614  -8.1539  -8.0888
    -8.0808  -8.0726  -8.0704  -8.0555  -8.0520  -8.0383  -8.0335  -8.0288
    -8.0199  -7.9768  -7.9548  -7.9132  -7.9049  -7.8949  -7.8917  -7.8830
    -7.8343  -7.8208  -7.7910  -7.7714  -7.7554  -7.7182  -7.6983  -7.6719
    -7.6580  -7.5681  -7.5566  -7.4726  -7.4481  -7.4189  -7.4175  -7.4032
    -7.3951  -7.3857  -7.3757  -7.3618  -7.3572  -7.3464  -7.3439  -7.3395
    -7.3373  -7.3242  -7.3195  -7.3161  -7.3115  -7.2996  -7.2980  -7.2938
    -7.2857  -7.2551  -7.2483  -7.2061  -7.1848  -7.1816  -7.1779  -7.1663
    -7.1547  -7.1398  -7.1314  -7.1287  -7.1272  -7.1202  -7.1132  -7.1069
    -7.1029  -7.0981  -7.0936  -7.0887  -7.0816  -7.0545  -7.0447  -7.0356
    -7.0164  -7.0041  -6.9658  -6.9047  -6.8805  -6.8465  -6.8341  -6.8024
    -6.8002  -6.7923  -6.7893  -6.7832  -6.7803  -6.7703  -6.7664  -6.7619
    -6.7572  -6.7466  -6.7403  -6.7376  -6.7322  -6.7305  -6.7276  -6.7051
    -6.7014  -6.6903  -6.6772  -6.6749  -6.6656  -6.6317  -6.6262  -6.6234
    -6.6130  -6.6007  -6.5903  -6.5714  -6.5678  -6.5633  -6.5476  -6.5258
    -6.4987  -6.4935  -6.4865  -6.4529  -6.4369  -6.4347  -6.4312  -6.3572
    -6.3225  -6.3120  -6.2879  -6.2846  -6.2820  -6.2719  -6.2612  -6.2543
    -6.2402  -6.2259  -6.1918  -6.1821  -6.1389  -6.0545  -6.0040  -5.9946
    -5.9812  -5.9702  -5.9437  -5.9395  -5.9354  -5.9273  -5.9014  -5.8921
    -5.8702  -5.8320  -5.8259  -5.8246  -5.8086  -5.8053  -5.8006  -5.7937
    -5.7805  -5.7763  -5.7636  -5.7607  -5.7561  -5.7482  -5.7287  -5.6694
    -5.6536  -5.6523  -5.6458  -5.6169  -5.6141  -5.6107  -5.6021  -5.5967
    -5.5688  -5.5575  -5.5223  -5.5069  -5.4986  -5.4971  -5.4915  -5.4869
    -5.4843  -5.4790  -5.4715  -5.4671  -5.4591  -5.4555  -5.4492  -5.4464
    -5.4418  -5.4356  -5.4326  -5.4267  -5.4205  -5.4083  -5.3680  -5.3668
    -5.3524  -5.3387  -5.3150  -5.3119  -5.3095  -5.3040  -5.3005  -5.2974
    -5.2931  -5.2804  -5.2772  -5.2741  -5.2696  -5.2643  -5.2599  -5.2581
    -5.2515  -5.2432  -5.2427  -5.2368  -5.2254  -5.2155  -5.2078  -5.1926
    -5.1912  -5.1846  -5.1782  -5.1690  -5.1408  -5.1400  -5.1278  -5.1235
    -5.1209  -5.1167  -5.0966  -5.0926  -5.0833  -5.0796  -5.0737  -5.0422
    -5.0376  -5.0328  -5.0307  -5.0280  -5.0242  -5.0191  -5.0177  -5.0148
    -5.0124  -5.0081  -5.0039  -4.9959  -4.9910  -4.9888  -4.9849  -4.9817
    -4.9779  -4.9690  -4.9298  -4.9282  -4.9158  -4.8881  -4.8517  -4.8457
    -4.8029  -4.7912  -4.7723  -4.7405  -4.7361  -4.7327  -4.7208  -4.6642
    -4.6202  -4.6065  -4.6014  -4.5871  -4.5814  -4.5769  -4.5631  -4.5228
    -4.5121  -4.5108  -4.5049  -4.4721  -4.4533  -4.4509  -4.4388  -4.4213
    -4.3713  -4.3589  -4.3485  -4.3217  -4.3104  -4.2952  -4.2795  -4.2567
    -4.2476  -4.2338  -4.2142  -4.2115  -4.2063  -4.1991  -4.1886  -4.1750
    -4.0705  -3.9403  -3.8588  -3.8002  -3.7441  -3.5227  -3.2172  -3.1749
    -3.1521  -2.9740  -2.6333  -2.5465  -2.4964  -2.4434  -2.4191  -2.3640
    -2.3424  -2.3089  -2.2851

          k = 0.2500-0.0884 0.0000 (128371 PWs)   bands (ev):

   -92.3116 -92.3007 -92.2950 -92.2947 -92.2905 -92.2888 -92.2865 -92.2857
   -92.2803 -92.2786 -92.2749 -92.2720 -92.2701 -92.2659 -92.2626 -92.2612
   -92.2598 -92.2556 -92.2545 -92.2537 -92.2530 -92.2500 -92.2489 -92.2479
   -92.2472 -92.2411 -92.2377 -92.2355 -92.2349 -92.2323 -92.2257 -92.2178
   -92.2161 -92.1647 -92.1540 -92.1464 -92.1449 -92.1417 -92.1375 -92.1357
   -92.1302 -92.1280 -92.1253 -92.1221 -92.1206 -92.1189 -92.1169 -92.1159
   -92.1145 -92.1139 -92.1128 -92.1117 -92.1107 -92.1064 -92.1049 -92.1030
   -92.0996 -92.0957 -92.0911 -92.0874 -92.0779 -92.0759 -92.0728 -92.0669
   -58.5132 -58.5048 -58.4965 -58.4882 -58.4848 -58.4790 -58.4769 -58.4739
   -58.4734 -58.4703 -58.4666 -58.4660 -58.4611 -58.4603 -58.4569 -58.4549
   -58.4535 -58.4523 -58.4500 -58.4489 -58.4446 -58.4435 -58.4393 -58.4370
   -58.4361 -58.4305 -58.4279 -58.4270 -58.4222 -58.4212 -58.4156 -58.4137
   -58.4110 -58.4091 -58.4037 -58.4000 -58.3995 -58.3959 -58.3925 -58.3882
   -58.3855 -58.3808 -58.3801 -58.3737 -58.3694 -58.3652 -58.3527 -58.3451
   -58.3414 -58.3339 -58.3279 -58.3269 -58.3244 -58.3241 -58.3210 -58.3149
   -58.3128 -58.3093 -58.3071 -58.3028 -58.3012 -58.2997 -58.2979 -58.2964
   -58.2950 -58.2939 -58.2921 -58.2916 -58.2887 -58.2862 -58.2831 -58.2820
   -58.2805 -58.2762 -58.2754 -58.2722 -58.2693 -58.2660 -58.2621 -58.2596
   -58.2544 -58.2514 -58.2482 -58.2463 -58.2450 -58.2428 -58.2398 -58.2358
   -58.2307 -58.2289 -58.2263 -58.2250 -58.2231 -58.2208 -58.2189 -58.2175
   -58.2154 -58.2119 -58.2073 -58.2056 -58.2046 -58.2033 -58.2000 -58.1979
   -58.1946 -58.1930 -58.1901 -58.1893 -58.1875 -58.1864 -58.1858 -58.1841
   -58.1829 -58.1803 -58.1787 -58.1782 -58.1741 -58.1722 -58.1694 -58.1685
   -58.1668 -58.1621 -58.1610 -58.1589 -58.1554 -58.1538 -58.1520 -58.1495
   -58.1479 -58.1464 -58.1422 -58.1409 -58.1395 -58.1382 -58.1375 -58.1357
   -58.1326 -58.1295 -58.1283 -58.1254 -58.1238 -58.1221 -58.1203 -58.1160
   -58.1155 -58.1137 -58.1091 -58.1063 -58.1039 -58.1033 -58.0986 -58.0969
   -58.0939 -58.0928 -58.0881 -58.0861 -58.0855 -58.0850 -58.0835 -58.0825
   -58.0797 -58.0759 -58.0728 -58.0686 -58.0678 -58.0664 -58.0638 -58.0604
   -58.0587 -58.0540 -58.0525 -58.0502 -58.0444 -58.0425 -58.0419 -58.0364
   -58.0341 -58.0285 -58.0276 -58.0269 -58.0254 -58.0231 -58.0224 -58.0207
   -58.0202 -58.0192 -58.0179 -58.0162 -58.0131 -58.0119 -58.0092 -58.0078
   -21.5152 -12.7048 -12.0116 -11.2985 -11.1368 -10.8345 -10.4934 -10.3711
   -10.1446 -10.0541  -9.7955  -9.6609  -9.4428  -9.4333  -9.2763  -9.1731
    -9.0943  -9.0448  -9.0043  -8.8524  -8.8161  -8.7959  -8.7166  -8.7006
    -8.6753  -8.6528  -8.6337  -8.6140  -8.5859  -8.5418  -8.4625  -8.3826
    -8.3398  -8.3323  -8.3261  -8.2996  -8.2937  -8.2809  -8.2764  -8.2662
    -8.2369  -8.2269  -8.2156  -8.1998  -8.1938  -8.1801  -8.1628  -8.1513
    -8.1301  -8.1171  -8.1066  -8.0939  -8.0866  -8.0470  -8.0362  -8.0173
    -8.0137  -8.0084  -8.0015  -7.9701  -7.9478  -7.8753  -7.8673  -7.8384
    -7.8314  -7.8124  -7.7882  -7.7603  -7.6972  -7.6499  -7.6188  -7.5764
    -7.5462  -7.5337  -7.5294  -7.4831  -7.4406  -7.4306  -7.4256  -7.4181
    -7.3989  -7.3913  -7.3779  -7.3708  -7.3688  -7.3670  -7.3599  -7.3550
    -7.3445  -7.3390  -7.3319  -7.3216  -7.3129  -7.3008  -7.2898  -7.2862
    -7.2831  -7.2762  -7.2706  -7.2694  -7.2650  -7.2617  -7.2485  -7.2297
    -7.2217  -7.1947  -7.1731  -7.1708  -7.1678  -7.1607  -7.1400  -7.1332
    -7.1272  -7.1210  -7.1014  -7.0941  -7.0740  -7.0249  -6.9962  -6.9870
    -6.9678  -6.9331  -6.9189  -6.9132  -6.8938  -6.8880  -6.8377  -6.8291
    -6.8195  -6.8088  -6.8040  -6.7923  -6.7833  -6.7812  -6.7725  -6.7666
    -6.7630  -6.7484  -6.7314  -6.7223  -6.7184  -6.6998  -6.6822  -6.6768
    -6.6660  -6.6606  -6.6251  -6.5982  -6.5859  -6.5781  -6.5712  -6.5546
    -6.5444  -6.5330  -6.5250  -6.5160  -6.5091  -6.5049  -6.4947  -6.4904
    -6.4774  -6.4745  -6.4691  -6.4608  -6.4404  -6.4206  -6.4057  -6.3829
    -6.3556  -6.3493  -6.3340  -6.3250  -6.3150  -6.2943  -6.2844  -6.2769
    -6.2654  -6.2503  -6.2351  -6.2263  -6.2127  -6.1702  -6.1631  -6.1527
    -6.1255  -6.1063  -6.0749  -6.0556  -6.0450  -6.0250  -5.9630  -5.9066
    -5.8603  -5.8508  -5.8176  -5.8064  -5.7930  -5.7838  -5.7603  -5.7431
    -5.7265  -5.7211  -5.7083  -5.6911  -5.6861  -5.6823  -5.6720  -5.6635
    -5.6523  -5.6400  -5.6274  -5.6063  -5.5996  -5.5808  -5.5740  -5.5543
    -5.5466  -5.5322  -5.5193  -5.5129  -5.5025  -5.4989  -5.4885  -5.4859
    -5.4820  -5.4709  -5.4657  -5.4517  -5.4451  -5.4348  -5.4219  -5.4036
    -5.3962  -5.3862  -5.3845  -5.3761  -5.3671  -5.3597  -5.3576  -5.3549
    -5.3479  -5.3425  -5.3373  -5.3315  -5.3282  -5.3146  -5.3118  -5.3050
    -5.2991  -5.2906  -5.2857  -5.2776  -5.2729  -5.2609  -5.2589  -5.2560
    -5.2520  -5.2472  -5.2432  -5.2386  -5.2348  -5.2308  -5.2253  -5.2201
    -5.2097  -5.2067  -5.1986  -5.1948  -5.1891  -5.1851  -5.1799  -5.1742
    -5.1723  -5.1665  -5.1618  -5.1499  -5.1451  -5.1392  -5.1247  -5.1221
    -5.1183  -5.1026  -5.0890  -5.0760  -5.0530  -5.0400  -5.0368  -5.0234
    -5.0172  -5.0134  -5.0102  -4.9967  -4.9896  -4.9835  -4.9807  -4.9771
    -4.9573  -4.9418  -4.9205  -4.9114  -4.9019  -4.8990  -4.8929  -4.8850
    -4.8718  -4.8671  -4.8606  -4.8542  -4.8460  -4.8334  -4.8125  -4.7826
    -4.7577  -4.7391  -4.7020  -4.6851  -4.6765  -4.5151  -4.4835  -4.4651
    -4.4612  -4.4388  -4.4286  -4.4128  -4.3939  -4.3776  -4.3423  -4.3218
    -4.3052  -4.2950  -4.2849  -4.2741  -4.2620  -4.2543  -4.2406  -4.2244
    -4.1923  -4.1779  -4.1654  -4.1370  -4.1138  -4.0944  -4.0655  -4.0081
    -3.9273  -3.7150  -3.6878  -3.5379  -3.4391  -3.2850  -3.2427  -3.1254
    -3.0598  -2.9678  -2.9020  -2.7947  -2.7384  -2.7026  -2.6320  -2.5412
    -2.3485  -2.2896  -2.2585

          k = 0.2500 0.1768 0.0000 (128340 PWs)   bands (ev):

   -92.3114 -92.3002 -92.2953 -92.2938 -92.2919 -92.2878 -92.2872 -92.2853
   -92.2799 -92.2799 -92.2777 -92.2729 -92.2690 -92.2614 -92.2613 -92.2611
   -92.2590 -92.2567 -92.2563 -92.2562 -92.2512 -92.2506 -92.2497 -92.2492
   -92.2450 -92.2397 -92.2374 -92.2369 -92.2350 -92.2325 -92.2255 -92.2178
   -92.2162 -92.1639 -92.1530 -92.1497 -92.1467 -92.1395 -92.1379 -92.1346
   -92.1300 -92.1283 -92.1226 -92.1212 -92.1210 -92.1201 -92.1172 -92.1155
   -92.1154 -92.1130 -92.1126 -92.1123 -92.1112 -92.1069 -92.1052 -92.1043
   -92.1001 -92.0938 -92.0905 -92.0875 -92.0788 -92.0742 -92.0735 -92.0674
   -58.5125 -58.5045 -58.4962 -58.4879 -58.4850 -58.4816 -58.4749 -58.4735
   -58.4720 -58.4684 -58.4669 -58.4660 -58.4660 -58.4607 -58.4565 -58.4543
   -58.4526 -58.4517 -58.4498 -58.4473 -58.4460 -58.4428 -58.4409 -58.4394
   -58.4331 -58.4306 -58.4275 -58.4255 -58.4234 -58.4203 -58.4109 -58.4106
   -58.4104 -58.4032 -58.3999 -58.3959 -58.3939 -58.3925 -58.3918 -58.3844
   -58.3776 -58.3741 -58.3739 -58.3720 -58.3707 -58.3685 -58.3547 -58.3453
   -58.3428 -58.3401 -58.3376 -58.3324 -58.3315 -58.3303 -58.3254 -58.3221
   -58.3174 -58.3158 -58.3154 -58.3131 -58.3108 -58.3037 -58.3010 -58.2964
   -58.2961 -58.2917 -58.2913 -58.2902 -58.2900 -58.2888 -58.2842 -58.2841
   -58.2801 -58.2774 -58.2766 -58.2741 -58.2691 -58.2660 -58.2611 -58.2599
   -58.2570 -58.2535 -58.2471 -58.2468 -58.2442 -58.2422 -58.2396 -58.2379
   -58.2359 -58.2326 -58.2272 -58.2250 -58.2226 -58.2219 -58.2198 -58.2141
   -58.2109 -58.2068 -58.2057 -58.2031 -58.2018 -58.2005 -58.1993 -58.1990
   -58.1976 -58.1957 -58.1946 -58.1902 -58.1895 -58.1875 -58.1864 -58.1837
   -58.1818 -58.1806 -58.1765 -58.1731 -58.1723 -58.1675 -58.1646 -58.1646
   -58.1631 -58.1615 -58.1588 -58.1579 -58.1578 -58.1538 -58.1525 -58.1499
   -58.1474 -58.1438 -58.1405 -58.1398 -58.1388 -58.1353 -58.1310 -58.1306
   -58.1279 -58.1251 -58.1245 -58.1196 -58.1192 -58.1169 -58.1167 -58.1136
   -58.1112 -58.1096 -58.1087 -58.1083 -58.1073 -58.1031 -58.1022 -58.1014
   -58.0988 -58.0907 -58.0893 -58.0872 -58.0860 -58.0850 -58.0801 -58.0769
   -58.0725 -58.0708 -58.0706 -58.0687 -58.0666 -58.0636 -58.0621 -58.0584
   -58.0578 -58.0565 -58.0498 -58.0496 -58.0464 -58.0453 -58.0422 -58.0378
   -58.0346 -58.0293 -58.0288 -58.0277 -58.0275 -58.0263 -58.0260 -58.0248
   -58.0237 -58.0232 -58.0215 -58.0187 -58.0184 -58.0147 -58.0128 -58.0102
   -21.5152 -12.7055 -11.9745 -11.2733 -11.0403 -10.7682 -10.7358 -10.5836
   -10.2228  -9.8256  -9.7905  -9.6874  -9.5597  -9.4409  -9.1983  -9.1102
    -9.0996  -8.9671  -8.8389  -8.8055  -8.7264  -8.7235  -8.7141  -8.6779
    -8.6522  -8.6051  -8.6002  -8.5975  -8.5819  -8.5013  -8.4974  -8.4673
    -8.3913  -8.3739  -8.3631  -8.3315  -8.3116  -8.2828  -8.2728  -8.2605
    -8.2387  -8.2246  -8.2130  -8.2055  -8.2024  -8.2010  -8.1969  -8.1950
    -8.1897  -8.1566  -8.1423  -8.1159  -8.1086  -8.0855  -8.0740  -8.0443
    -8.0314  -8.0062  -7.9821  -7.9757  -7.8976  -7.8605  -7.8500  -7.8078
    -7.7947  -7.7389  -7.7371  -7.7274  -7.7209  -7.6931  -7.6824  -7.6399
    -7.5661  -7.5416  -7.5204  -7.4823  -7.4561  -7.4428  -7.4345  -7.4322
    -7.4246  -7.4242  -7.4208  -7.4159  -7.4126  -7.4116  -7.3958  -7.3945
    -7.3867  -7.3826  -7.3602  -7.3401  -7.3153  -7.2904  -7.2807  -7.2790
    -7.2638  -7.2473  -7.2249  -7.2212  -7.2152  -7.2131  -7.2036  -7.1936
    -7.1882  -7.1772  -7.1599  -7.1549  -7.1311  -7.1105  -7.1083  -7.0721
    -7.0662  -7.0587  -7.0518  -7.0351  -7.0242  -7.0149  -7.0021  -6.9990
    -6.9895  -6.9874  -6.9792  -6.9764  -6.9710  -6.9583  -6.8948  -6.8918
    -6.8821  -6.8718  -6.8136  -6.8125  -6.8021  -6.7957  -6.7900  -6.7857
    -6.7785  -6.7574  -6.7383  -6.7173  -6.7162  -6.7110  -6.6935  -6.6820
    -6.6698  -6.6553  -6.6536  -6.6424  -6.6376  -6.6320  -6.6100  -6.6042
    -6.5674  -6.5511  -6.5381  -6.5269  -6.5228  -6.5085  -6.5022  -6.4783
    -6.4752  -6.4500  -6.4284  -6.4032  -6.4025  -6.3990  -6.3953  -6.3872
    -6.3837  -6.3792  -6.3732  -6.3650  -6.3647  -6.3577  -6.3557  -6.3519
    -6.3171  -6.3085  -6.2663  -6.2419  -6.2217  -6.1263  -6.0994  -6.0728
    -6.0487  -6.0268  -6.0211  -6.0145  -5.9620  -5.9326  -5.9098  -5.8912
    -5.8681  -5.8382  -5.8328  -5.8061  -5.8036  -5.7819  -5.7811  -5.7519
    -5.7237  -5.7184  -5.7091  -5.7058  -5.6940  -5.6778  -5.6602  -5.6421
    -5.6305  -5.6292  -5.6168  -5.6021  -5.5998  -5.5891  -5.5877  -5.5783
    -5.5601  -5.5541  -5.5453  -5.5395  -5.5168  -5.5162  -5.4952  -5.4814
    -5.4686  -5.4592  -5.4433  -5.4409  -5.4392  -5.4281  -5.4214  -5.4211
    -5.4064  -5.4063  -5.3919  -5.3690  -5.3665  -5.3549  -5.3529  -5.3520
    -5.3431  -5.3371  -5.3362  -5.3305  -5.3214  -5.3127  -5.2890  -5.2871
    -5.2832  -5.2793  -5.2691  -5.2610  -5.2546  -5.2442  -5.2416  -5.2246
    -5.2209  -5.2183  -5.2092  -5.2017  -5.1964  -5.1920  -5.1844  -5.1822
    -5.1793  -5.1524  -5.1429  -5.1392  -5.1387  -5.1325  -5.1323  -5.1262
    -5.1211  -5.1205  -5.1144  -5.1121  -5.1074  -5.0966  -5.0888  -5.0852
    -5.0816  -5.0752  -5.0599  -5.0577  -5.0439  -5.0435  -5.0365  -5.0363
    -5.0269  -5.0240  -5.0166  -5.0029  -4.9997  -4.9860  -4.9803  -4.9683
    -4.9643  -4.9476  -4.9374  -4.9263  -4.9124  -4.8828  -4.8802  -4.8563
    -4.8494  -4.8348  -4.8291  -4.8186  -4.8060  -4.7982  -4.7456  -4.7324
    -4.7303  -4.7051  -4.7015  -4.6844  -4.6781  -4.5380  -4.5209  -4.4804
    -4.4629  -4.4433  -4.4251  -4.3706  -4.3618  -4.3445  -4.3189  -4.2998
    -4.2815  -4.2668  -4.2595  -4.2560  -4.2528  -4.2466  -4.2430  -4.2342
    -4.1698  -4.1482  -4.0762  -4.0612  -4.0356  -4.0148  -3.9537  -3.9361
    -3.8560  -3.7509  -3.7193  -3.5845  -3.4229  -3.3244  -3.2957  -3.2789
    -3.2307  -3.1869  -3.1532  -3.1489  -3.1112  -3.0803  -2.9780  -2.8504
    -2.7784  -2.5397  -2.5101

          k = 0.2500-0.6187 0.0000 (128424 PWs)   bands (ev):

   -92.3111 -92.2995 -92.2968 -92.2923 -92.2909 -92.2888 -92.2876 -92.2865
   -92.2820 -92.2802 -92.2776 -92.2699 -92.2656 -92.2646 -92.2634 -92.2610
   -92.2585 -92.2572 -92.2563 -92.2540 -92.2537 -92.2500 -92.2492 -92.2472
   -92.2455 -92.2397 -92.2377 -92.2370 -92.2348 -92.2330 -92.2254 -92.2178
   -92.2163 -92.1623 -92.1559 -92.1507 -92.1460 -92.1392 -92.1365 -92.1333
   -92.1303 -92.1275 -92.1243 -92.1225 -92.1210 -92.1203 -92.1177 -92.1155
   -92.1144 -92.1137 -92.1127 -92.1114 -92.1107 -92.1075 -92.1061 -92.1030
   -92.0995 -92.0946 -92.0903 -92.0876 -92.0792 -92.0746 -92.0711 -92.0688
   -58.5094 -58.5060 -58.4976 -58.4888 -58.4830 -58.4800 -58.4769 -58.4746
   -58.4736 -58.4697 -58.4685 -58.4665 -58.4626 -58.4583 -58.4540 -58.4535
   -58.4526 -58.4511 -58.4503 -58.4487 -58.4474 -58.4426 -58.4420 -58.4363
   -58.4331 -58.4291 -58.4285 -58.4250 -58.4238 -58.4200 -58.4095 -58.4055
   -58.4005 -58.3970 -58.3928 -58.3909 -58.3892 -58.3867 -58.3863 -58.3856
   -58.3805 -58.3776 -58.3725 -58.3691 -58.3621 -58.3616 -58.3565 -58.3543
   -58.3508 -58.3500 -58.3480 -58.3461 -58.3403 -58.3333 -58.3317 -58.3281
   -58.3246 -58.3212 -58.3163 -58.3106 -58.3075 -58.3052 -58.3027 -58.3000
   -58.2986 -58.2943 -58.2927 -58.2889 -58.2858 -58.2838 -58.2805 -58.2795
   -58.2772 -58.2758 -58.2725 -58.2711 -58.2705 -58.2694 -58.2672 -58.2651
   -58.2598 -58.2582 -58.2563 -58.2553 -58.2523 -58.2470 -58.2448 -58.2416
   -58.2403 -58.2381 -58.2355 -58.2323 -58.2269 -58.2228 -58.2163 -58.2151
   -58.2112 -58.2078 -58.2061 -58.2044 -58.2004 -58.1978 -58.1948 -58.1920
   -58.1894 -58.1889 -58.1861 -58.1836 -58.1830 -58.1822 -58.1802 -58.1787
   -58.1776 -58.1751 -58.1740 -58.1726 -58.1691 -58.1678 -58.1649 -58.1636
   -58.1620 -58.1604 -58.1585 -58.1568 -58.1551 -58.1529 -58.1523 -58.1506
   -58.1489 -58.1442 -58.1434 -58.1409 -58.1364 -58.1358 -58.1297 -58.1289
   -58.1265 -58.1240 -58.1216 -58.1194 -58.1183 -58.1166 -58.1153 -58.1134
   -58.1115 -58.1096 -58.1070 -58.1056 -58.1049 -58.1008 -58.0999 -58.0989
   -58.0951 -58.0934 -58.0907 -58.0875 -58.0842 -58.0829 -58.0799 -58.0750
   -58.0727 -58.0692 -58.0678 -58.0653 -58.0630 -58.0601 -58.0552 -58.0523
   -58.0510 -58.0494 -58.0474 -58.0470 -58.0445 -58.0430 -58.0422 -58.0404
   -58.0392 -58.0381 -58.0366 -58.0354 -58.0345 -58.0337 -58.0309 -58.0288
   -58.0266 -58.0254 -58.0248 -58.0226 -58.0197 -58.0177 -58.0156 -58.0117
   -21.5152 -12.7059 -11.7290 -11.4585 -11.2415 -10.9791 -10.7566 -10.2747
   -10.2192  -9.9603  -9.7879  -9.6805  -9.2531  -9.1600  -9.0373  -9.0164
    -8.9863  -8.9559  -8.9108  -8.8766  -8.8555  -8.7548  -8.7043  -8.6931
    -8.6876  -8.6698  -8.6245  -8.5708  -8.5543  -8.5389  -8.5245  -8.5093
    -8.5012  -8.4685  -8.4626  -8.4186  -8.3898  -8.3761  -8.3667  -8.3620
    -8.3368  -8.3060  -8.2796  -8.2672  -8.2500  -8.2305  -8.1864  -8.1721
    -8.1253  -8.1234  -8.0813  -8.0566  -8.0472  -8.0094  -7.9984  -7.9793
    -7.9434  -7.9218  -7.9153  -7.8975  -7.8820  -7.8716  -7.8610  -7.8273
    -7.8194  -7.7805  -7.7725  -7.7603  -7.7316  -7.7205  -7.7147  -7.6980
    -7.6553  -7.6182  -7.6151  -7.5325  -7.5127  -7.4649  -7.4564  -7.4474
    -7.4300  -7.4250  -7.4145  -7.4129  -7.4017  -7.3816  -7.3566  -7.3296
    -7.3085  -7.2934  -7.2842  -7.2808  -7.2722  -7.2553  -7.2392  -7.2214
    -7.2185  -7.2147  -7.2028  -7.2004  -7.1974  -7.1942  -7.1924  -7.1808
    -7.1624  -7.1518  -7.1453  -7.1279  -7.1172  -7.1074  -7.0911  -7.0837
    -7.0759  -7.0654  -7.0632  -7.0470  -7.0354  -7.0201  -7.0153  -6.9826
    -6.9776  -6.9685  -6.9619  -6.9587  -6.9477  -6.9347  -6.9303  -6.9199
    -6.9067  -6.9001  -6.8907  -6.8858  -6.8764  -6.8617  -6.8546  -6.8437
    -6.8348  -6.8143  -6.8032  -6.7790  -6.7664  -6.7220  -6.6790  -6.6578
    -6.6552  -6.6458  -6.6405  -6.6265  -6.6160  -6.6108  -6.6061  -6.6004
    -6.5849  -6.5794  -6.5767  -6.5607  -6.5575  -6.5520  -6.5431  -6.5228
    -6.5071  -6.5021  -6.4863  -6.4765  -6.4694  -6.4372  -6.4258  -6.3892
    -6.3636  -6.3432  -6.3182  -6.2980  -6.2758  -6.2693  -6.2521  -6.2248
    -6.1884  -6.1520  -6.1361  -6.1190  -6.0870  -6.0670  -6.0562  -6.0222
    -6.0080  -5.9923  -5.9674  -5.9488  -5.9346  -5.9080  -5.8967  -5.8878
    -5.8739  -5.8559  -5.8475  -5.8422  -5.8392  -5.8268  -5.8108  -5.7948
    -5.7578  -5.7500  -5.7415  -5.7160  -5.7126  -5.6860  -5.6802  -5.6632
    -5.6505  -5.6415  -5.6316  -5.6269  -5.6162  -5.6060  -5.5978  -5.5899
    -5.5727  -5.5529  -5.5486  -5.5355  -5.5255  -5.5216  -5.4993  -5.4869
    -5.4836  -5.4772  -5.4700  -5.4663  -5.4622  -5.4531  -5.4394  -5.4362
    -5.4267  -5.4227  -5.4058  -5.3977  -5.3904  -5.3742  -5.3565  -5.3510
    -5.3405  -5.3291  -5.3215  -5.3133  -5.3060  -5.3047  -5.2939  -5.2869
    -5.2839  -5.2784  -5.2753  -5.2530  -5.2484  -5.2392  -5.2350  -5.2316
    -5.2240  -5.2168  -5.2097  -5.1968  -5.1871  -5.1789  -5.1742  -5.1705
    -5.1660  -5.1560  -5.1470  -5.1438  -5.1384  -5.1364  -5.1266  -5.1139
    -5.1102  -5.1050  -5.0925  -5.0837  -5.0782  -5.0748  -5.0698  -5.0686
    -5.0588  -5.0523  -5.0479  -5.0340  -5.0323  -5.0269  -5.0192  -5.0183
    -5.0037  -4.9867  -4.9749  -4.9660  -4.9568  -4.9446  -4.9387  -4.9182
    -4.9115  -4.9055  -4.8869  -4.8682  -4.8376  -4.8204  -4.8155  -4.7795
    -4.7614  -4.7602  -4.7445  -4.7129  -4.6962  -4.6797  -4.6635  -4.6350
    -4.6226  -4.6127  -4.6071  -4.5947  -4.5703  -4.5402  -4.5238  -4.5167
    -4.5003  -4.4808  -4.4579  -4.4430  -4.4294  -4.4096  -4.3911  -4.3872
    -4.3720  -4.3590  -4.3213  -4.3129  -4.3011  -4.2927  -4.2830  -4.2640
    -4.2604  -4.2375  -4.2171  -4.2017  -4.1810  -4.1606  -4.1495  -4.0850
    -4.0533  -3.9377  -3.8972  -3.6888  -3.6551  -3.5579  -3.5173  -3.3880
    -3.3502  -3.3209  -3.2084  -3.0516  -2.9438  -2.8231  -2.6218  -2.5912
    -2.5088  -2.4780  -2.4045

          k = 0.2500-0.3536 0.0000 (128397 PWs)   bands (ev):

   -92.3113 -92.3003 -92.2961 -92.2931 -92.2915 -92.2878 -92.2863 -92.2861
   -92.2835 -92.2805 -92.2726 -92.2693 -92.2679 -92.2661 -92.2659 -92.2620
   -92.2594 -92.2556 -92.2551 -92.2540 -92.2513 -92.2502 -92.2490 -92.2488
   -92.2439 -92.2430 -92.2372 -92.2359 -92.2347 -92.2328 -92.2256 -92.2178
   -92.2162 -92.1634 -92.1551 -92.1507 -92.1424 -92.1398 -92.1380 -92.1341
   -92.1302 -92.1274 -92.1258 -92.1241 -92.1204 -92.1201 -92.1173 -92.1152
   -92.1147 -92.1136 -92.1124 -92.1112 -92.1095 -92.1082 -92.1059 -92.1001
   -92.0991 -92.0974 -92.0909 -92.0875 -92.0787 -92.0752 -92.0716 -92.0680
   -58.5105 -58.5059 -58.4975 -58.4894 -58.4821 -58.4797 -58.4762 -58.4750
   -58.4744 -58.4708 -58.4702 -58.4660 -58.4583 -58.4559 -58.4551 -58.4546
   -58.4542 -58.4528 -58.4515 -58.4490 -58.4447 -58.4438 -58.4408 -58.4352
   -58.4328 -58.4312 -58.4289 -58.4264 -58.4223 -58.4207 -58.4104 -58.4093
   -58.4073 -58.4024 -58.4018 -58.3986 -58.3952 -58.3883 -58.3871 -58.3867
   -58.3833 -58.3820 -58.3810 -58.3718 -58.3696 -58.3670 -58.3614 -58.3497
   -58.3383 -58.3374 -58.3326 -58.3315 -58.3287 -58.3248 -58.3201 -58.3181
   -58.3164 -58.3138 -58.3116 -58.3109 -58.3056 -58.3020 -58.3015 -58.3000
   -58.2978 -58.2965 -58.2948 -58.2931 -58.2915 -58.2901 -58.2874 -58.2850
   -58.2811 -58.2792 -58.2765 -58.2726 -58.2689 -58.2665 -58.2621 -58.2570
   -58.2540 -58.2521 -58.2516 -58.2484 -58.2451 -58.2438 -58.2412 -58.2376
   -58.2367 -58.2313 -58.2299 -58.2279 -58.2231 -58.2221 -58.2190 -58.2157
   -58.2130 -58.2108 -58.2093 -58.2070 -58.2055 -58.2013 -58.1985 -58.1978
   -58.1917 -58.1865 -58.1864 -58.1862 -58.1846 -58.1830 -58.1821 -58.1796
   -58.1788 -58.1781 -58.1762 -58.1747 -58.1734 -58.1717 -58.1704 -58.1700
   -58.1654 -58.1638 -58.1600 -58.1583 -58.1575 -58.1559 -58.1548 -58.1507
   -58.1487 -58.1473 -58.1390 -58.1383 -58.1369 -58.1323 -58.1320 -58.1308
   -58.1285 -58.1275 -58.1232 -58.1213 -58.1196 -58.1166 -58.1162 -58.1109
   -58.1104 -58.1090 -58.1057 -58.1052 -58.1028 -58.1021 -58.1016 -58.1002
   -58.0973 -58.0921 -58.0917 -58.0893 -58.0886 -58.0854 -58.0828 -58.0822
   -58.0796 -58.0727 -58.0701 -58.0683 -58.0666 -58.0630 -58.0628 -58.0593
   -58.0559 -58.0518 -58.0492 -58.0487 -58.0438 -58.0412 -58.0404 -58.0375
   -58.0373 -58.0305 -58.0299 -58.0284 -58.0276 -58.0265 -58.0250 -58.0246
   -58.0234 -58.0229 -58.0221 -58.0180 -58.0170 -58.0157 -58.0152 -58.0101
   -21.5152 -12.7053 -11.8289 -11.4087 -11.1742 -11.0792 -10.7395 -10.2230
   -10.0028  -9.7340  -9.6799  -9.6672  -9.5870  -9.3893  -9.3772  -9.0799
    -8.9987  -8.8300  -8.8191  -8.8078  -8.7902  -8.7779  -8.7608  -8.7355
    -8.7260  -8.7044  -8.6567  -8.6052  -8.5941  -8.5665  -8.5439  -8.5347
    -8.5013  -8.4505  -8.4103  -8.3662  -8.3548  -8.3440  -8.3232  -8.3156
    -8.2984  -8.2826  -8.2814  -8.2544  -8.2279  -8.2020  -8.1814  -8.1688
    -8.1220  -8.1158  -8.1078  -8.0839  -8.0631  -8.0438  -7.9848  -7.9663
    -7.9273  -7.9013  -7.8978  -7.8734  -7.8632  -7.8621  -7.8541  -7.8470
    -7.8443  -7.8074  -7.7962  -7.7908  -7.7395  -7.7303  -7.6720  -7.6355
    -7.5559  -7.5439  -7.5362  -7.5194  -7.4873  -7.4529  -7.4496  -7.4220
    -7.4145  -7.3885  -7.3855  -7.3808  -7.3717  -7.3589  -7.3552  -7.3440
    -7.3402  -7.3322  -7.3210  -7.3128  -7.3055  -7.3024  -7.2890  -7.2802
    -7.2705  -7.2563  -7.2443  -7.2159  -7.2050  -7.2040  -7.1920  -7.1868
    -7.1799  -7.1762  -7.1703  -7.1635  -7.1533  -7.1229  -7.1001  -7.0651
    -7.0537  -7.0470  -7.0414  -7.0380  -7.0290  -7.0234  -7.0180  -7.0133
    -7.0008  -6.9969  -6.9805  -6.9764  -6.9415  -6.9311  -6.9265  -6.9180
    -6.8693  -6.8482  -6.8369  -6.8176  -6.7722  -6.7676  -6.7581  -6.7383
    -6.7237  -6.7021  -6.6993  -6.6922  -6.6869  -6.6857  -6.6810  -6.6800
    -6.6779  -6.6733  -6.6680  -6.6651  -6.6583  -6.6483  -6.6427  -6.6327
    -6.6267  -6.6181  -6.6132  -6.6050  -6.5723  -6.5688  -6.5576  -6.5277
    -6.5015  -6.4818  -6.4794  -6.4284  -6.4162  -6.3914  -6.3737  -6.3676
    -6.3340  -6.3172  -6.2932  -6.2914  -6.2841  -6.2660  -6.2387  -6.2222
    -6.1955  -6.1310  -6.1104  -6.0981  -6.0937  -6.0691  -6.0479  -6.0415
    -6.0318  -5.9935  -5.9702  -5.9578  -5.9504  -5.9424  -5.9218  -5.9133
    -5.9058  -5.9056  -5.9042  -5.8903  -5.8645  -5.8350  -5.8246  -5.7845
    -5.7668  -5.7486  -5.7416  -5.7308  -5.7066  -5.6792  -5.6775  -5.6718
    -5.6572  -5.6524  -5.6491  -5.6362  -5.6304  -5.6226  -5.6129  -5.5825
    -5.5588  -5.5411  -5.5324  -5.5299  -5.5212  -5.5014  -5.4994  -5.4959
    -5.4618  -5.4567  -5.4431  -5.4351  -5.4311  -5.4216  -5.4166  -5.4072
    -5.3958  -5.3821  -5.3790  -5.3710  -5.3704  -5.3564  -5.3400  -5.3326
    -5.3263  -5.3236  -5.3219  -5.3085  -5.3068  -5.3011  -5.2974  -5.2889
    -5.2851  -5.2750  -5.2736  -5.2723  -5.2649  -5.2584  -5.2503  -5.2419
    -5.2399  -5.2379  -5.2291  -5.2236  -5.2195  -5.2142  -5.2069  -5.2030
    -5.1940  -5.1926  -5.1863  -5.1841  -5.1772  -5.1768  -5.1700  -5.1577
    -5.1568  -5.1548  -5.1482  -5.1367  -5.1318  -5.1158  -5.1036  -5.0974
    -5.0930  -5.0893  -5.0885  -5.0810  -5.0795  -5.0658  -5.0460  -5.0433
    -5.0388  -5.0234  -4.9983  -4.9934  -4.9768  -4.9701  -4.9665  -4.9567
    -4.9527  -4.9259  -4.9191  -4.8734  -4.8496  -4.8448  -4.8324  -4.8233
    -4.8121  -4.8078  -4.8062  -4.7942  -4.7779  -4.7579  -4.7535  -4.7476
[...]

   -89.5539 -89.5509 -89.3630 -89.3619 -89.3144 -89.3065 -89.3060 -89.2977
   -89.2839 -89.2838 -89.2753 -89.2742 -89.2667 -89.2646 -89.2605 -89.2587
   -89.2540 -89.2537 -89.2514 -89.2507 -89.2468 -89.2442 -89.2426 -89.2375
   -89.2370 -89.2359 -89.2353 -89.2334 -89.2326 -89.2280 -89.2275 -89.2237
   -89.2233 -89.2166 -89.2139 -89.2116 -89.2081 -89.2001 -89.1928 -89.1908
   -89.1890 -89.1888 -89.1880 -89.1878 -89.1835 -89.1813 -89.1795 -89.1716
   -89.1695 -89.1675 -89.1670 -89.1666 -89.1650 -89.1641 -89.1625 -89.1602
   -89.1563 -89.1563 -89.1539 -89.1476 -89.1455 -89.1429 -89.1416 -89.1378
   -55.8797 -55.8637 -55.6697 -55.6624 -55.6115 -55.5966 -55.5842 -55.5784
   -55.5701 -55.5668 -55.5560 -55.5530 -55.5519 -55.5502 -55.5488 -55.5472
   -55.5411 -55.5399 -55.5386 -55.5374 -55.5347 -55.5304 -55.5260 -55.5242
   -55.5239 -55.5203 -55.5201 -55.5188 -55.5139 -55.5092 -55.5061 -55.5006
   -55.4990 -55.4923 -55.4918 -55.4892 -55.4879 -55.4817 -55.4784 -55.4777
   -55.4763 -55.4694 -55.4657 -55.4654 -55.4643 -55.4633 -55.4619 -55.4586
   -55.4563 -55.4515 -55.4498 -55.4476 -55.4434 -55.4420 -55.4418 -55.4389
   -55.4365 -55.4355 -55.4354 -55.4333 -55.4320 -55.4304 -55.4290 -55.4267
   -55.4181 -55.4133 -55.4063 -55.4032 -55.4027 -55.3980 -55.3961 -55.3940
   -55.3885 -55.3836 -55.3831 -55.3760 -55.3727 -55.3684 -55.3683 -55.3598
   -55.3594 -55.3545 -55.3504 -55.3493 -55.3472 -55.3447 -55.3416 -55.3412
   -55.3396 -55.3388 -55.3343 -55.3339 -55.3312 -55.3297 -55.3281 -55.3196
   -55.3190 -55.3168 -55.3163 -55.3129 -55.3110 -55.3096 -55.3071 -55.3042
   -55.2979 -55.2948 -55.2942 -55.2922 -55.2911 -55.2911 -55.2897 -55.2857
   -55.2812 -55.2795 -55.2791 -55.2775 -55.2753 -55.2732 -55.2714 -55.2681
   -55.2677 -55.2676 -55.2675 -55.2645 -55.2637 -55.2636 -55.2576 -55.2561
   -55.2546 -55.2543 -55.2520 -55.2507 -55.2473 -55.2442 -55.2407 -55.2368
   -55.2348 -55.2319 -55.2318 -55.2301 -55.2300 -55.2281 -55.2276 -55.2258
   -55.2255 -55.2239 -55.2229 -55.2225 -55.2224 -55.2193 -55.2181 -55.2175
   -55.2146 -55.2123 -55.2095 -55.2089 -55.2079 -55.2058 -55.2055 -55.2035
   -55.2022 -55.1997 -55.1996 -55.1982 -55.1982 -55.1973 -55.1971 -55.1962
   -55.1954 -55.1946 -55.1933 -55.1920 -55.1919 -55.1901 -55.1871 -55.1850
   -55.1849 -55.1831 -55.1814 -55.1809 -55.1775 -55.1772 -55.1770 -55.1752
   -55.1723 -55.1723 -55.1718 -55.1703 -55.1692 -55.1662 -55.1640 -55.1639
   -21.4736 -12.5465 -11.4085 -11.2482 -10.9677 -10.6700 -10.6617 -10.2657
    -9.9416  -9.4719  -9.4534  -9.0741  -8.7370  -8.6625  -8.6565  -8.6009
    -8.3513  -8.2424  -7.9801  -7.8177  -7.8088  -7.8053  -7.7873  -7.7733
    -7.7431  -7.6917  -7.6852  -7.6782  -7.6764  -7.5929  -7.4379  -7.2623
    -7.2610  -7.2486  -7.2434  -7.2000  -7.1392  -7.0357  -6.9678  -6.7888
    -6.7728  -6.7546  -6.7402  -6.7347  -6.6876  -6.6850  -6.6573  -6.6503
    -6.6311  -6.6112  -6.5646  -6.4919  -6.4918  -6.4756  -6.4706  -6.4353
    -6.3893  -6.2281  -6.2117  -6.2051  -6.2033  -6.1947  -6.1522  -5.9810
    -5.9359  -5.9245  -5.8951  -5.8810  -5.8743  -5.7892  -5.7656  -5.7106
    -5.6977  -5.6956  -5.6792  -5.6776  -5.6747  -5.6657  -5.6620  -5.6617
    -5.6419  -5.5959  -5.5775  -5.5758  -5.5640  -5.5599  -5.5572  -5.5568
    -5.5513  -5.5385  -5.5377  -5.4757  -5.4457  -5.3565  -5.3366  -5.3236
    -5.3192  -5.2232  -5.2112  -5.2088  -5.2005  -5.1820  -5.1707  -5.1663
    -5.1558  -5.1540  -5.1397  -5.1347  -5.1343  -5.1248  -5.1210  -5.1169
    -5.1027  -5.0982  -5.0950  -5.0807  -5.0757  -5.0671  -5.0652  -5.0623
    -5.0595  -5.0520  -5.0484  -5.0386  -5.0356  -5.0106  -5.0077  -5.0019
    -4.9761  -4.9709  -4.9632  -4.9607  -4.9557  -4.9474  -4.9466  -4.9425
    -4.9386  -4.9364  -4.9310  -4.9249  -4.8907  -4.8720  -4.8490  -4.7623
    -4.7402  -4.6936  -4.6908  -4.6891  -4.6872  -4.6691  -4.6532  -4.6338
    -4.6227  -4.6156  -4.5893  -4.5628  -4.5224  -4.5125  -4.4978  -4.4840
    -4.4796  -4.4744  -4.4483  -4.4472  -4.4394  -4.4298  -4.3853  -4.3735
    -4.2806  -4.2598  -4.2439  -4.2429  -4.2146  -4.1991  -4.1938  -4.1740
    -4.1698  -4.1593  -4.1567  -4.1499  -4.1140  -4.1056  -4.0920  -4.0619
    -4.0481  -4.0480  -4.0383  -4.0269  -3.9953  -3.8253  -3.7611  -3.7552
    -3.7083  -3.6522  -3.6476  -3.5925  -3.5319  -3.4236  -3.4092  -3.3907
    -3.3790  -3.3705  -3.3277  -3.3141  -3.2860  -3.2552  -3.2416  -3.2200
    -3.2120  -3.2011  -3.1868  -3.1400  -3.1300  -3.1212  -3.1061  -3.0930
    -3.0845  -3.0524  -3.0341  -3.0103  -2.9856  -2.9556  -2.9502  -2.9163
    -2.9139  -2.9044  -2.8912  -2.8846  -2.8750  -2.8711  -2.8616  -2.8523
    -2.8482  -2.8451  -2.8419  -2.8239  -2.7893  -2.7850  -2.7822  -2.7378
    -2.7186  -2.7171  -2.7073  -2.6706  -2.6537  -2.6479  -2.6146  -2.5933
    -2.5823  -2.5628  -2.5363  -2.5330  -2.4867  -2.4858  -2.4639  -2.4517
    -2.4475  -2.4421  -2.4417  -2.4358  -2.4277  -2.4229  -2.4174  -2.4111
    -2.3930  -2.3890  -2.3868  -2.3805  -2.3749  -2.3676  -2.3656  -2.3616
    -2.3496  -2.3225  -2.3180  -2.3104  -2.2984  -2.2970  -2.2948  -2.2895
    -2.2829  -2.2805  -2.2765  -2.2591  -2.2552  -2.2535  -2.2396  -2.2358
    -2.2295  -2.2234  -2.2138  -2.2045  -2.1972  -2.1964  -2.1926  -2.1925
    -2.1896  -2.1879  -2.1660  -2.1574  -2.1499  -2.1442  -2.0949  -2.0695
    -2.0671  -2.0665  -2.0568  -2.0422  -2.0381  -2.0376  -2.0202  -2.0139
    -2.0094  -2.0084  -2.0028  -2.0023  -1.9998  -1.9992  -1.9945  -1.9895
    -1.9884  -1.9844  -1.9686  -1.9634  -1.9596  -1.9444  -1.9392  -1.9372
    -1.9314  -1.9255  -1.9208  -1.9193  -1.9063  -1.9044  -1.8938  -1.8884
    -1.8866  -1.8503  -1.8150  -1.8126  -1.8113  -1.8072  -1.8042  -1.7898
    -1.6431  -1.6176  -1.6105  -1.5810  -1.4635  -1.4095  -1.3784  -1.3766
    -1.3568  -1.3326  -1.3221  -1.3155  -1.2871  -1.2834  -1.2733  -1.2505
    -1.2340  -1.0595  -1.0313

     the Fermi energy is    -4.1288 ev

!    total energy              =  -21096.11200678 Ry
     estimated scf accuracy    <          5.9E-11 Ry
     smearing contrib. (-TS)   =       0.00096245 Ry
     internal energy E=F+TS    =  -21096.11296923 Ry

     The total energy is F=E-TS. E is the sum of the following terms:
     one-electron contribution = -745483.60384650 Ry
     hartree contribution      =  372580.82668656 Ry
     xc contribution           =   -2235.82422809 Ry
     ewald contribution        =  358917.33111523 Ry
     Dispersion Correction     =      -1.40176488 Ry
     one-center paw contrib.   =   -4873.44093155 Ry

     total magnetization       =   161.32 Bohr mag/cell
     absolute magnetization    =   167.96 Bohr mag/cell

     convergence has been achieved in  13 iterations

     negative rho (up, down):  1.183E-02 1.628E-02

     Forces acting on atoms (cartesian axes, Ry/au):

     atom    1 type  1   force =     0.00044670    0.00000584    0.00989004
     atom    2 type  1   force =    -0.00113879    0.00158960   -0.00555796
     atom    3 type  1   force =    -0.00008270    0.00010853    0.01006958
     atom    4 type  1   force =    -0.00010077    0.00021122   -0.01090959
     atom    5 type  1   force =     0.00000189   -0.00000566   -0.00003551
     atom    6 type  1   force =    -0.00003134    0.00000089   -0.00006713
     atom    7 type  1   force =     0.00001297   -0.00000166   -0.00005703
     atom    8 type  1   force =     0.00000187    0.00003907   -0.00004512
     atom    9 type  1   force =    -0.00005006   -0.00003740    0.01011600
     atom   10 type  1   force =    -0.00017532   -0.00014843    0.00907732
     atom   11 type  1   force =     0.00016708   -0.00011547   -0.01109703
     atom   12 type  1   force =    -0.00040506   -0.00021154   -0.01017110
     atom   13 type  1   force =     0.00000055    0.00000267   -0.00009004
     atom   14 type  1   force =     0.00000884    0.00000813   -0.00008861
     atom   15 type  1   force =     0.00015330    0.00004041   -0.00005350
     atom   16 type  1   force =     0.00006352    0.00004529   -0.00003033
     atom   17 type  1   force =     0.00011015   -0.00013498    0.01002729
     atom   18 type  1   force =     0.00020084   -0.00013807   -0.01092223
     atom   19 type  1   force =    -0.00000588    0.00005058    0.01019916
     atom   20 type  1   force =    -0.00005575   -0.00014199   -0.00643297
     atom   21 type  1   force =     0.00000201    0.00001033   -0.00006008
     atom   22 type  1   force =     0.00004089   -0.00001068   -0.00005154
     atom   23 type  1   force =    -0.00001041    0.00001008   -0.00005413
     atom   24 type  1   force =    -0.00005199    0.00005487    0.00023045
     atom   25 type  1   force =     0.00002860   -0.00002540    0.00817582
     atom   26 type  1   force =     0.00004467   -0.00023297    0.00988190
     atom   27 type  1   force =    -0.00000905   -0.00011372   -0.01110354
     atom   28 type  1   force =     0.00026757   -0.00022588   -0.01042309
     atom   29 type  1   force =     0.00000054   -0.00000035    0.00000663
     atom   30 type  1   force =     0.00000580   -0.00001774   -0.00005770
     atom   31 type  1   force =    -0.00012882   -0.00009089   -0.00004549
     atom   32 type  1   force =    -0.00008940   -0.00013754   -0.00003855
     atom   33 type  1   force =    -0.00026034   -0.00006129    0.00978401
     atom   34 type  1   force =     0.00028946   -0.00011309   -0.01092755
     atom   35 type  1   force =     0.00016627    0.00043116    0.00993335
     atom   36 type  1   force =     0.00102587   -0.00148518   -0.00555756
     atom   37 type  1   force =    -0.00000414    0.00000553   -0.00005479
     atom   38 type  1   force =     0.00001221   -0.00002511   -0.00004203
     atom   39 type  1   force =    -0.00000450    0.00000063   -0.00003698
     atom   40 type  1   force =    -0.00001149   -0.00002861   -0.00007778
     atom   41 type  1   force =     0.00004878    0.00009231    0.00722039
     atom   42 type  1   force =    -0.00020956    0.00013849    0.00986069
     atom   43 type  1   force =     0.00006754    0.00014158   -0.00966504
     atom   44 type  1   force =    -0.00016979    0.00032200   -0.01040617
     atom   45 type  1   force =     0.00000359    0.00000388   -0.00004933
     atom   46 type  1   force =    -0.00001440    0.00001169   -0.00005457
     atom   47 type  1   force =    -0.00006805   -0.00004214   -0.00007950
     atom   48 type  1   force =    -0.00015395   -0.00003953   -0.00003672
     atom   49 type  1   force =     0.00009525   -0.00004930    0.01024507
     atom   50 type  1   force =    -0.00008821   -0.00009793   -0.00640228
     atom   51 type  1   force =    -0.00015516   -0.00020746    0.00974052
     atom   52 type  1   force =     0.00000789    0.00035682   -0.01092493
     atom   53 type  1   force =     0.00000406   -0.00001212   -0.00005447
     atom   54 type  1   force =     0.00003611   -0.00006514    0.00023134
     atom   55 type  1   force =     0.00000589   -0.00000609   -0.00005863
     atom   56 type  1   force =    -0.00001762    0.00001928   -0.00003528
     atom   57 type  1   force =    -0.00008024   -0.00002506    0.01012139
     atom   58 type  1   force =     0.00006845    0.00001020    0.00902704
     atom   59 type  1   force =    -0.00004510    0.00022335   -0.01108297
     atom   60 type  1   force =     0.00006191   -0.00006041   -0.01098472
     atom   61 type  1   force =     0.00000427   -0.00000138   -0.00008753
     atom   62 type  1   force =    -0.00001247   -0.00000835   -0.00008169
     atom   63 type  1   force =     0.00009340    0.00013208   -0.00005620
     atom   64 type  1   force =     0.00011846    0.00008352   -0.00004259
     atom   65 type  2   force =    -0.00004231   -0.00003114   -0.00011606
     atom   66 type  3   force =     0.00000378   -0.00000698   -0.00001827
     atom   67 type  3   force =    -0.00000424    0.00000529   -0.00005735
     atom   68 type  3   force =     0.00000595    0.00000136   -0.00009826

     Total force =     0.000646     Total SCF correction =     0.000031
     Energy error            =      5.1E-07
     Gradient error          =      2.3E-04

     bfgs converged in   9 scf cycles and   8 bfgs steps
     (criteria: energy <  7.3E-07 Ry, force <  3.9E-04 Ry/Bohr)

     End of BFGS Geometry Optimization

     Final energy   =  -21096.1120067846 Ry

     File ./Fe_NH2_H_paper_480c_ESM_std.bfgs deleted, as requested
Begin final coordinates

ATOMIC_POSITIONS (angstrom)
Fe            1.6549129530        1.1702001330        0.0000000000    0   0   0
Fe            0.0000000000        0.0000000000        2.0269842320    0   0   0
Fe            4.9647388580        3.5106003990        0.0000000000    0   0   0
Fe            3.3098259060        2.3404002660        2.0269842320    0   0   0
Fe            1.6502802555        1.1683368069        4.0231670290
Fe            3.3076328620        9.3740761619        6.0143079442
Fe            4.9615323047        3.5168770644        4.0128156922
Fe            3.3080278966        2.3312607876        6.0015976452
Fe            2.4823638580        3.5106003990        0.0000000000    0   0   0
Fe            4.1372879530        1.1702001330        0.0000000000    0   0   0
Fe            0.8274509060        2.3404002660        2.0269842320    0   0   0
Fe            2.4823750000        0.0000000000        2.0269842320    0   0   0
Fe            2.4826141034        3.5096858285        4.0281706113
Fe            4.1307572405        1.1656523822        4.0198134323
Fe            0.8184197729        2.3458206834        5.9921840653
Fe            2.4817182455       -0.0002708917        6.0050208172
Fe            6.6196629530        1.1702001330        0.0000000000    0   0   0
Fe            4.9647500000        0.0000000000        2.0269842320    0   0   0
Fe            9.9294888580        3.5106003990        0.0000000000    0   0   0
Fe            8.2745759060        2.3404002660        2.0269842320    0   0   0
Fe            6.6245271961        1.1650551148        4.0128610096
Fe            4.9553957063        0.0013488912        6.0013099613
Fe            9.9322928323        3.5033623474        4.0113193299
Fe            8.2843316213        2.3265361596        6.0876029321
Fe            7.4471138580        3.5106003990        0.0000000000    0   0   0
Fe            9.1020379530        1.1702001330        0.0000000000    0   0   0
Fe            5.7922009060        2.3404002660        2.0269842320    0   0   0
Fe            7.4471250000        0.0000000000        2.0269842320    0   0   0
Fe            7.4468609840        3.5102338681        4.0445338801
Fe            9.0942265591        1.1791716414        4.0546999269
Fe            5.7482153824        2.3092760607        5.9333741640
Fe           10.7610277753        9.3747883338        5.9924779944
Fe            3.3098147640        5.8510006640        0.0000000000    0   0   0
Fe            1.6549018110        4.6808005310        2.0269842320    0   0   0
Fe            6.6196406700        8.1914009300        0.0000000000    0   0   0
Fe            4.9647277170        7.0212007970        2.0269842320    0   0   0
Fe            3.3149955985        5.8536845521        4.0275417563
Fe           11.5874331476        4.6816905965        5.9961481528
Fe            6.6161993881        8.1879683914        4.0231825931
Fe            4.9753854860        7.0155635651        6.0143037415
Fe            4.1372656700        8.1914009300        0.0000000000    0   0   0
Fe            5.7921897640        5.8510006640        0.0000000000    0   0   0
Fe            2.4823527170        7.0212007970        2.0269842320    0   0   0
Fe            4.1372768110        4.6808005310        2.0269842320    0   0   0
Fe            4.1355386329        8.1906012049        4.0254462546
Fe            5.7978940902        5.8408941415        4.0546824161
Fe           12.4010916525        7.0137343720        6.0154018093
Fe            4.1509959554        4.6804393432        5.9925514148
Fe            8.2745647640        5.8510006640        0.0000000000    0   0   0
Fe            6.6196518110        4.6808005310        2.0269842320    0   0   0
Fe           11.5843906700        8.1914009300        0.0000000000    0   0   0
Fe            9.9294777170        7.0212007970        2.0269842320    0   0   0
Fe            8.2687497392        5.8560246240        4.0112405180
Fe            6.6102279284        4.6939345401        6.0872758506
Fe           11.5884682634        8.1957035965        4.0276093322
Fe            9.9312572435        7.0237207723        5.9965578758
Fe            9.1020156700        8.1914009300        0.0000000000    0   0   0
Fe           10.7569397640        5.8510006640        0.0000000000    0   0   0
Fe            7.4471027170        7.0212007970        2.0269842320    0   0   0
Fe            9.1020268110        4.6808005310        2.0269842320    0   0   0
Fe            9.1012744621        8.1920481309        4.0282188280
Fe           10.7630809634        5.8554190766        4.0174139818
Fe            7.4490655820        7.0108298699        5.9923492461
Fe            9.1473751628        4.7128624094        5.9331438956
N             7.4470873932        3.5103369974        7.4740477965
H             8.1097166015        3.9794584247        8.1066729858
H             6.7848381988        3.0418863701        8.1076126308
H             4.5441953669        8.4795965906        6.9408934869
End final coordinates



     Writing output data file ./Fe_NH2_H_paper_480c_ESM_std.save/

     init_run     :     30.30s CPU     31.54s WALL (       1 calls)
     electrons    :  17454.73s CPU  17780.83s WALL (       9 calls)
     update_pot   :     46.15s CPU     46.38s WALL (       8 calls)
     forces       :    160.76s CPU    163.31s WALL (       9 calls)

     Called by init_run:
     wfcinit      :     20.15s CPU     21.15s WALL (       1 calls)
     potinit      :      2.83s CPU      2.93s WALL (       1 calls)
     hinit0       :      5.18s CPU      5.21s WALL (       1 calls)

     Called by electrons:
     c_bands      :  15597.84s CPU  15861.46s WALL (     191 calls)
     sum_band     :    912.96s CPU    951.90s WALL (     191 calls)
     v_of_rho     :    160.74s CPU    162.95s WALL (     192 calls)
     newd         :     33.67s CPU     34.08s WALL (     192 calls)
     PAW_pot      :     37.75s CPU     38.08s WALL (     200 calls)
     mix_rho      :    667.06s CPU    679.51s WALL (     191 calls)

     Called by c_bands:
     init_us_2    :     80.90s CPU     86.37s WALL (    1200 calls)
     cegterg      :  13623.09s CPU  13804.86s WALL (     574 calls)

     Called by *egterg:
     cdiaghg      :   3440.65s CPU   3463.90s WALL (    4193 calls)
     h_psi        :   4344.13s CPU   4411.39s WALL (    4244 calls)
     s_psi        :   1131.22s CPU   1138.41s WALL (    4244 calls)
     g_psi        :     21.73s CPU     22.09s WALL (    3667 calls)

     Called by h_psi:
     h_psi:calbec :   1246.43s CPU   1254.65s WALL (    4244 calls)
     vloc_psi     :   1930.49s CPU   1952.11s WALL (    4244 calls)
     add_vuspsi   :   1131.04s CPU   1138.28s WALL (    4244 calls)

     General routines
     calbec       :   1781.20s CPU   1792.52s WALL (    4949 calls)
     fft          :    107.45s CPU    108.72s WALL (    4941 calls)
     ffts         :    297.87s CPU    300.53s WALL (  113602 calls)
     fftw         :   2096.81s CPU   2120.78s WALL ( 2331121 calls)
     interpolate  :     12.67s CPU     12.82s WALL (     384 calls)
     davcio       :      0.74s CPU     94.24s WALL (    4946 calls)

     Parallel routines
     fft_scatt_xy :    290.71s CPU    293.87s WALL ( 2449664 calls)
     fft_scatt_yz :   1162.38s CPU   1175.82s WALL ( 2449664 calls)

     PWSCF        :      4h55m CPU      5h 1m WALL


   This run was terminated on:  22:36:53   8Jul2022            

=------------------------------------------------------------------------------=
   JOB DONE.
=------------------------------------------------------------------------------=
