

     Program PHONON v.7.1 starts on 20Sep2022 at  2:34:58 

     This program is part of the open-source Quantum ESPRESSO suite
     for quantum simulation of materials; please cite
         "P. Giannozzi et al., J. Phys.:Condens. Matter 21 395502 (2009);
         "P. Giannozzi et al., J. Phys.:Condens. Matter 29 465901 (2017);
         "P. Giannozzi et al., J. Chem. Phys. 152 154105 (2020);
          URL http://www.quantum-espresso.org", 
     in publications or presentations arising from this work. More details at
     http://www.quantum-espresso.org/quote

     Serial multi-threaded version, running on    1 processor cores

     Program PHONON v.7.1 starts on 20Sep2022 at  2:34:58 

     This program is part of the open-source Quantum ESPRESSO suite
     for quantum simulation of materials; please cite
         "P. Giannozzi et al., J. Phys.:Condens. Matter 21 395502 (2009);
         "P. Giannozzi et al., J. Phys.:Condens. Matter 29 465901 (2017);
         "P. Giannozzi et al., J. Chem. Phys. 152 154105 (2020);
          URL http://www.quantum-espresso.org", 
     in publications or presentations arising from this work. More details at
     http://www.quantum-espresso.org/quote

     Serial multi-threaded version, running on    1 processor cores

     Program PHONON v.7.1 starts on 20Sep2022 at  2:34:58 

     This program is part of the open-source Quantum ESPRESSO suite
     for quantum simulation of materials; please cite
         "P. Giannozzi et al., J. Phys.:Condens. Matter 21 395502 (2009);
         "P. Giannozzi et al., J. Phys.:Condens. Matter 29 465901 (2017);
         "P. Giannozzi et al., J. Chem. Phys. 152 154105 (2020);
          URL http://www.quantum-espresso.org", 
     in publications or presentations arising from this work. More details at
     http://www.quantum-espresso.org/quote

     Serial multi-threaded version, running on    1 processor cores

     Program PHONON v.7.1 starts on 20Sep2022 at  2:34:58 

     This program is part of the open-source Quantum ESPRESSO suite
     for quantum simulation of materials; please cite
         "P. Giannozzi et al., J. Phys.:Condens. Matter 21 395502 (2009);
         "P. Giannozzi et al., J. Phys.:Condens. Matter 29 465901 (2017);
         "P. Giannozzi et al., J. Chem. Phys. 152 154105 (2020);
          URL http://www.quantum-espresso.org", 
     in publications or presentations arising from this work. More details at
     http://www.quantum-espresso.org/quote

     Serial multi-threaded version, running on    1 processor cores

     Program PHONON v.7.1 starts on 20Sep2022 at  2:34:58 

     This program is part of the open-source Quantum ESPRESSO suite
     for quantum simulation of materials; please cite
         "P. Giannozzi et al., J. Phys.:Condens. Matter 21 395502 (2009);
         "P. Giannozzi et al., J. Phys.:Condens. Matter 29 465901 (2017);
         "P. Giannozzi et al., J. Chem. Phys. 152 154105 (2020);
          URL http://www.quantum-espresso.org", 
     in publications or presentations arising from this work. More details at
     http://www.quantum-espresso.org/quote

     Serial multi-threaded version, running on    1 processor cores

     Program PHONON v.7.1 starts on 20Sep2022 at  2:34:58 

     This program is part of the open-source Quantum ESPRESSO suite
     for quantum simulation of materials; please cite
         "P. Giannozzi et al., J. Phys.:Condens. Matter 21 395502 (2009);
         "P. Giannozzi et al., J. Phys.:Condens. Matter 29 465901 (2017);
         "P. Giannozzi et al., J. Chem. Phys. 152 154105 (2020);
          URL http://www.quantum-espresso.org", 
     in publications or presentations arising from this work. More details at
     http://www.quantum-espresso.org/quote

     Serial multi-threaded version, running on    1 processor cores

     Program PHONON v.7.1 starts on 20Sep2022 at  2:34:58 

     This program is part of the open-source Quantum ESPRESSO suite
     for quantum simulation of materials; please cite
         "P. Giannozzi et al., J. Phys.:Condens. Matter 21 395502 (2009);
         "P. Giannozzi et al., J. Phys.:Condens. Matter 29 465901 (2017);
         "P. Giannozzi et al., J. Chem. Phys. 152 154105 (2020);
          URL http://www.quantum-espresso.org", 
     in publications or presentations arising from this work. More details at
     http://www.quantum-espresso.org/quote

     Serial multi-threaded version, running on    1 processor cores
     Program PHONON v.7.1 starts on 20Sep2022 at  2:34:58 

     This program is part of the open-source Quantum ESPRESSO suite
     for quantum simulation of materials; please cite
         "P. Giannozzi et al., J. Phys.:Condens. Matter 21 395502 (2009);
         "P. Giannozzi et al., J. Phys.:Condens. Matter 29 465901 (2017);
         "P. Giannozzi et al., J. Chem. Phys. 152 154105 (2020);
          URL http://www.quantum-espresso.org", 
     in publications or presentations arising from this work. More details at
     http://www.quantum-espresso.org/quote

     248769 MiB available memory on the printing compute node when the environment starts
 
     248769 MiB available memory on the printing compute node when the environment starts
 
     248769 MiB available memory on the printing compute node when the environment starts
 
     248769 MiB available memory on the printing compute node when the environment starts
 
     248769 MiB available memory on the printing compute node when the environment starts
 
     248769 MiB available memory on the printing compute node when the environment starts
 
     248769 MiB available memory on the printing compute node when the environment starts
 
     Serial multi-threaded version, running on    1 processor cores
     248769 MiB available memory on the printing compute node when the environment starts
 
     Waiting for input...
     Waiting for input...
     Waiting for input...
     Waiting for input...
     Waiting for input...
     Waiting for input...
     Waiting for input...
     Waiting for input...

     Program PHONON v.7.1 starts on 20Sep2022 at  2:34:58 

     This program is part of the open-source Quantum ESPRESSO suite
     for quantum simulation of materials; please cite
         "P. Giannozzi et al., J. Phys.:Condens. Matter 21 395502 (2009);
         "P. Giannozzi et al., J. Phys.:Condens. Matter 29 465901 (2017);
         "P. Giannozzi et al., J. Chem. Phys. 152 154105 (2020);
          URL http://www.quantum-espresso.org", 
     in publications or presentations arising from this work. More details at
     http://www.quantum-espresso.org/quote

     Serial multi-threaded version, running on    1 processor cores
     248733 MiB available memory on the printing compute node when the environment starts
 
     Waiting for input...

     Program PHONON v.7.1 starts on 20Sep2022 at  2:34:58 

     This program is part of the open-source Quantum ESPRESSO suite
     for quantum simulation of materials; please cite
         "P. Giannozzi et al., J. Phys.:Condens. Matter 21 395502 (2009);
         "P. Giannozzi et al., J. Phys.:Condens. Matter 29 465901 (2017);
         "P. Giannozzi et al., J. Chem. Phys. 152 154105 (2020);
          URL http://www.quantum-espresso.org", 
     in publications or presentations arising from this work. More details at
     http://www.quantum-espresso.org/quote

     Serial multi-threaded version, running on    1 processor cores
     248673 MiB available memory on the printing compute node when the environment starts
 
     Waiting for input...
     Reading input from standard input
     Reading input from standard input
     Reading input from standard input
     Reading input from standard input
     Reading input from standard input
     Reading input from standard input
     Reading input from standard input
     Reading input from standard input
     Reading input from standard input
     Reading input from standard input


     Reading xml data from directory:

     ./Fe_NH2_paper_480c_ESM_std.save/

     Reading xml data from directory:

     ./Fe_NH2_paper_480c_ESM_std.save/

     Reading xml data from directory:

     ./Fe_NH2_paper_480c_ESM_std.save/

     Reading xml data from directory:

     ./Fe_NH2_paper_480c_ESM_std.save/

     Reading xml data from directory:

     ./Fe_NH2_paper_480c_ESM_std.save/

     Reading xml data from directory:

     ./Fe_NH2_paper_480c_ESM_std.save/
     Reading xml data from directory:

     ./Fe_NH2_paper_480c_ESM_std.save/

     Program PHONON v.7.1 starts on 20Sep2022 at  2:34:58 

     This program is part of the open-source Quantum ESPRESSO suite
     for quantum simulation of materials; please cite
         "P. Giannozzi et al., J. Phys.:Condens. Matter 21 395502 (2009);
         "P. Giannozzi et al., J. Phys.:Condens. Matter 29 465901 (2017);
         "P. Giannozzi et al., J. Chem. Phys. 152 154105 (2020);
          URL http://www.quantum-espresso.org", 
     in publications or presentations arising from this work. More details at
     http://www.quantum-espresso.org/quote

     Serial multi-threaded version, running on    1 processor cores
     248632 MiB available memory on the printing compute node when the environment starts
 
     Waiting for input...
     Reading input from standard input


 %%%%%%%%%%%%%%%%%%%%%%%%%%%%%%%%%%%%%%%%%%%%%%%%%%%%%%%%%%%%%%%%%%%%%%%%%%%%%%
     Error in routine  read_namelists (1):
      bad line in namelist &inputph: "65 66 67" (error could be in the previous line)
 %%%%%%%%%%%%%%%%%%%%%%%%%%%%%%%%%%%%%%%%%%%%%%%%%%%%%%%%%%%%%%%%%%%%%%%%%%%%%%

     stopping ...

 %%%%%%%%%%%%%%%%%%%%%%%%%%%%%%%%%%%%%%%%%%%%%%%%%%%%%%%%%%%%%%%%%%%%%%%%%%%%%%
     Error in routine  read_namelists (1):
      bad line in namelist &inputph: "                                                                       amass(2)=14.0067" (error could be in the previous line)
 %%%%%%%%%%%%%%%%%%%%%%%%%%%%%%%%%%%%%%%%%%%%%%%%%%%%%%%%%%%%%%%%%%%%%%%%%%%%%%

     stopping ...
 %%%%%%%%%%%%%%%%%%%%%%%%%%%%%%%%%%%%%%%%%%%%%%%%%%%%%%%%%%%%%%%%%%%%%%%%%%%%%%
     Error in routine  read_namelists (2):
      could not find namelist &inputph
 %%%%%%%%%%%%%%%%%%%%%%%%%%%%%%%%%%%%%%%%%%%%%%%%%%%%%%%%%%%%%%%%%%%%%%%%%%%%%%

     stopping ...

     Reading xml data from directory:

     ./Fe_NH2_paper_480c_ESM_std.save/

     Program PHONON v.7.1 starts on 20Sep2022 at  2:34:58 

     This program is part of the open-source Quantum ESPRESSO suite
     for quantum simulation of materials; please cite
         "P. Giannozzi et al., J. Phys.:Condens. Matter 21 395502 (2009);
         "P. Giannozzi et al., J. Phys.:Condens. Matter 29 465901 (2017);
         "P. Giannozzi et al., J. Chem. Phys. 152 154105 (2020);
          URL http://www.quantum-espresso.org", 
     in publications or presentations arising from this work. More details at
     http://www.quantum-espresso.org/quote

     Serial multi-threaded version, running on    1 processor cores
     248619 MiB available memory on the printing compute node when the environment starts
 
     Waiting for input...
     Reading input from standard input

     Reading xml data from directory:

     ./Fe_NH2_paper_480c_ESM_std.save/

     Program PHONON v.7.1 starts on 20Sep2022 at  2:34:58 

     This program is part of the open-source Quantum ESPRESSO suite
     for quantum simulation of materials; please cite
         "P. Giannozzi et al., J. Phys.:Condens. Matter 21 395502 (2009);
         "P. Giannozzi et al., J. Phys.:Condens. Matter 29 465901 (2017);
         "P. Giannozzi et al., J. Chem. Phys. 152 154105 (2020);
          URL http://www.quantum-espresso.org", 
     in publications or presentations arising from this work. More details at
     http://www.quantum-espresso.org/quote

     Serial multi-threaded version, running on    1 processor cores
     248608 MiB available memory on the printing compute node when the environment starts
 
     Waiting for input...
     Reading input from standard input


     Reading xml data from directory:

     ./Fe_NH2_paper_480c_ESM_std.save/
     Program PHONON v.7.1 starts on 20Sep2022 at  2:34:58 

     This program is part of the open-source Quantum ESPRESSO suite
     for quantum simulation of materials; please cite
         "P. Giannozzi et al., J. Phys.:Condens. Matter 21 395502 (2009);
         "P. Giannozzi et al., J. Phys.:Condens. Matter 29 465901 (2017);
         "P. Giannozzi et al., J. Chem. Phys. 152 154105 (2020);
          URL http://www.quantum-espresso.org", 
     in publications or presentations arising from this work. More details at
     http://www.quantum-espresso.org/quote

     Serial multi-threaded version, running on    1 processor cores
     248596 MiB available memory on the printing compute node when the environment starts
 
     Waiting for input...
     Reading input from standard input

     Reading xml data from directory:

     ./Fe_NH2_paper_480c_ESM_std.save/

     Program PHONON v.7.1 starts on 20Sep2022 at  2:34:58 

     This program is part of the open-source Quantum ESPRESSO suite
     for quantum simulation of materials; please cite
         "P. Giannozzi et al., J. Phys.:Condens. Matter 21 395502 (2009);
         "P. Giannozzi et al., J. Phys.:Condens. Matter 29 465901 (2017);
         "P. Giannozzi et al., J. Chem. Phys. 152 154105 (2020);
          URL http://www.quantum-espresso.org", 
     in publications or presentations arising from this work. More details at
     http://www.quantum-espresso.org/quote

     Serial multi-threaded version, running on    1 processor cores
     248581 MiB available memory on the printing compute node when the environment starts
 
     Waiting for input...
     Reading input from standard input

     Reading xml data from directory:

     ./Fe_NH2_paper_480c_ESM_std.save/


     Program PHONON v.7.1 starts on 20Sep2022 at  2:34:58 

     This program is part of the open-source Quantum ESPRESSO suite
     for quantum simulation of materials; please cite
         "P. Giannozzi et al., J. Phys.:Condens. Matter 21 395502 (2009);
         "P. Giannozzi et al., J. Phys.:Condens. Matter 29 465901 (2017);
         "P. Giannozzi et al., J. Chem. Phys. 152 154105 (2020);
          URL http://www.quantum-espresso.org", 
     in publications or presentations arising from this work. More details at
     http://www.quantum-espresso.org/quote

     Serial multi-threaded version, running on    1 processor cores
     248534 MiB available memory on the printing compute node when the environment starts
 
     Waiting for input...
     Program PHONON v.7.1 starts on 20Sep2022 at  2:34:58 

     This program is part of the open-source Quantum ESPRESSO suite
     for quantum simulation of materials; please cite
         "P. Giannozzi et al., J. Phys.:Condens. Matter 21 395502 (2009);
         "P. Giannozzi et al., J. Phys.:Condens. Matter 29 465901 (2017);
         "P. Giannozzi et al., J. Chem. Phys. 152 154105 (2020);
          URL http://www.quantum-espresso.org", 
     in publications or presentations arising from this work. More details at
     http://www.quantum-espresso.org/quote

     Serial multi-threaded version, running on    1 processor cores
     248534 MiB available memory on the printing compute node when the environment starts
 
     Reading input from standard input
     Waiting for input...

     Reading xml data from directory:

     ./Fe_NH2_paper_480c_ESM_std.save/
     Reading input from standard input

     Reading xml data from directory:

     ./Fe_NH2_paper_480c_ESM_std.save/

     Program PHONON v.7.1 starts on 20Sep2022 at  2:34:58 

     This program is part of the open-source Quantum ESPRESSO suite
     for quantum simulation of materials; please cite
         "P. Giannozzi et al., J. Phys.:Condens. Matter 21 395502 (2009);
         "P. Giannozzi et al., J. Phys.:Condens. Matter 29 465901 (2017);
         "P. Giannozzi et al., J. Chem. Phys. 152 154105 (2020);
          URL http://www.quantum-espresso.org", 
     in publications or presentations arising from this work. More details at
     http://www.quantum-espresso.org/quote

     Serial multi-threaded version, running on    1 processor cores
     248451 MiB available memory on the printing compute node when the environment starts
 
     Waiting for input...
     Reading input from standard input

     Reading xml data from directory:

     ./Fe_NH2_paper_480c_ESM_std.save/

     Program PHONON v.7.1 starts on 20Sep2022 at  2:34:58 

     This program is part of the open-source Quantum ESPRESSO suite
     for quantum simulation of materials; please cite
         "P. Giannozzi et al., J. Phys.:Condens. Matter 21 395502 (2009);
         "P. Giannozzi et al., J. Phys.:Condens. Matter 29 465901 (2017);
         "P. Giannozzi et al., J. Chem. Phys. 152 154105 (2020);
          URL http://www.quantum-espresso.org", 
     in publications or presentations arising from this work. More details at
     http://www.quantum-espresso.org/quote

     Serial multi-threaded version, running on    1 processor cores
     248424 MiB available memory on the printing compute node when the environment starts
 
     Waiting for input...
     Reading input from standard input

     Reading xml data from directory:

     ./Fe_NH2_paper_480c_ESM_std.save/

     Program PHONON v.7.1 starts on 20Sep2022 at  2:34:58 

     This program is part of the open-source Quantum ESPRESSO suite
     for quantum simulation of materials; please cite
         "P. Giannozzi et al., J. Phys.:Condens. Matter 21 395502 (2009);
         "P. Giannozzi et al., J. Phys.:Condens. Matter 29 465901 (2017);
         "P. Giannozzi et al., J. Chem. Phys. 152 154105 (2020);
          URL http://www.quantum-espresso.org", 
     in publications or presentations arising from this work. More details at
     http://www.quantum-espresso.org/quote

     Serial multi-threaded version, running on    1 processor cores
     248389 MiB available memory on the printing compute node when the environment starts
 
     Waiting for input...
     Reading input from standard input

     Reading xml data from directory:

     ./Fe_NH2_paper_480c_ESM_std.save/

     Program PHONON v.7.1 starts on 20Sep2022 at  2:34:58 

     This program is part of the open-source Quantum ESPRESSO suite
     for quantum simulation of materials; please cite
         "P. Giannozzi et al., J. Phys.:Condens. Matter 21 395502 (2009);
         "P. Giannozzi et al., J. Phys.:Condens. Matter 29 465901 (2017);
         "P. Giannozzi et al., J. Chem. Phys. 152 154105 (2020);
          URL http://www.quantum-espresso.org", 
     in publications or presentations arising from this work. More details at
     http://www.quantum-espresso.org/quote

     Serial multi-threaded version, running on    1 processor cores
     248294 MiB available memory on the printing compute node when the environment starts
 
     Waiting for input...
     Reading input from standard input

     Reading xml data from directory:

     ./Fe_NH2_paper_480c_ESM_std.save/

     Program PHONON v.7.1 starts on 20Sep2022 at  2:34:58 

     This program is part of the open-source Quantum ESPRESSO suite
     for quantum simulation of materials; please cite
         "P. Giannozzi et al., J. Phys.:Condens. Matter 21 395502 (2009);
         "P. Giannozzi et al., J. Phys.:Condens. Matter 29 465901 (2017);
         "P. Giannozzi et al., J. Chem. Phys. 152 154105 (2020);
          URL http://www.quantum-espresso.org", 
     in publications or presentations arising from this work. More details at
     http://www.quantum-espresso.org/quote

     Serial multi-threaded version, running on    1 processor cores
     248290 MiB available memory on the printing compute node when the environment starts
 
     Waiting for input...
     Reading input from standard input

     Reading xml data from directory:

     ./Fe_NH2_paper_480c_ESM_std.save/

     Program PHONON v.7.1 starts on 20Sep2022 at  2:34:58 

     This program is part of the open-source Quantum ESPRESSO suite
     for quantum simulation of materials; please cite
         "P. Giannozzi et al., J. Phys.:Condens. Matter 21 395502 (2009);
         "P. Giannozzi et al., J. Phys.:Condens. Matter 29 465901 (2017);
         "P. Giannozzi et al., J. Chem. Phys. 152 154105 (2020);
          URL http://www.quantum-espresso.org", 
     in publications or presentations arising from this work. More details at
     http://www.quantum-espresso.org/quote

     Serial multi-threaded version, running on    1 processor cores
     248261 MiB available memory on the printing compute node when the environment starts
 
     Waiting for input...
     Reading input from standard input

     Reading xml data from directory:

     ./Fe_NH2_paper_480c_ESM_std.save/

     Program PHONON v.7.1 starts on 20Sep2022 at  2:34:58 

     This program is part of the open-source Quantum ESPRESSO suite
     for quantum simulation of materials; please cite
         "P. Giannozzi et al., J. Phys.:Condens. Matter 21 395502 (2009);
         "P. Giannozzi et al., J. Phys.:Condens. Matter 29 465901 (2017);
         "P. Giannozzi et al., J. Chem. Phys. 152 154105 (2020);
          URL http://www.quantum-espresso.org", 
     in publications or presentations arising from this work. More details at
     http://www.quantum-espresso.org/quote

     Serial multi-threaded version, running on    1 processor cores
     248256 MiB available memory on the printing compute node when the environment starts

     Program PHONON v.7.1 starts on 20Sep2022 at  2:34:58 

     This program is part of the open-source Quantum ESPRESSO suite
     for quantum simulation of materials; please cite
         "P. Giannozzi et al., J. Phys.:Condens. Matter 21 395502 (2009);
         "P. Giannozzi et al., J. Phys.:Condens. Matter 29 465901 (2017);
         "P. Giannozzi et al., J. Chem. Phys. 152 154105 (2020);
          URL http://www.quantum-espresso.org", 
     in publications or presentations arising from this work. More details at
     http://www.quantum-espresso.org/quote

     Serial multi-threaded version, running on    1 processor cores
 
     248256 MiB available memory on the printing compute node when the environment starts
     Waiting for input...
 
     Reading input from standard input
     Waiting for input...

     Reading xml data from directory:

     ./Fe_NH2_paper_480c_ESM_std.save/
     Reading input from standard input

     Reading xml data from directory:

     ./Fe_NH2_paper_480c_ESM_std.save/


     Program PHONON v.7.1 starts on 20Sep2022 at  2:34:58 

     This program is part of the open-source Quantum ESPRESSO suite
     for quantum simulation of materials; please cite
         "P. Giannozzi et al., J. Phys.:Condens. Matter 21 395502 (2009);
         "P. Giannozzi et al., J. Phys.:Condens. Matter 29 465901 (2017);
         "P. Giannozzi et al., J. Chem. Phys. 152 154105 (2020);
          URL http://www.quantum-espresso.org", 
     in publications or presentations arising from this work. More details at
     http://www.quantum-espresso.org/quote

     Serial multi-threaded version, running on    1 processor cores

     Program PHONON v.7.1 starts on 20Sep2022 at  2:34:58 

     This program is part of the open-source Quantum ESPRESSO suite
     for quantum simulation of materials; please cite
         "P. Giannozzi et al., J. Phys.:Condens. Matter 21 395502 (2009);
         "P. Giannozzi et al., J. Phys.:Condens. Matter 29 465901 (2017);
         "P. Giannozzi et al., J. Chem. Phys. 152 154105 (2020);
          URL http://www.quantum-espresso.org", 
     in publications or presentations arising from this work. More details at
     http://www.quantum-espresso.org/quote

     Serial multi-threaded version, running on    1 processor cores
     248237 MiB available memory on the printing compute node when the environment starts
 
     Waiting for input...

     Program PHONON v.7.1 starts on 20Sep2022 at  2:34:58 

     This program is part of the open-source Quantum ESPRESSO suite
     for quantum simulation of materials; please cite
         "P. Giannozzi et al., J. Phys.:Condens. Matter 21 395502 (2009);
         "P. Giannozzi et al., J. Phys.:Condens. Matter 29 465901 (2017);
         "P. Giannozzi et al., J. Chem. Phys. 152 154105 (2020);
          URL http://www.quantum-espresso.org", 
     in publications or presentations arising from this work. More details at
     http://www.quantum-espresso.org/quote

     Serial multi-threaded version, running on    1 processor cores
     248236 MiB available memory on the printing compute node when the environment starts
 
     248236 MiB available memory on the printing compute node when the environment starts
 
     Program PHONON v.7.1 starts on 20Sep2022 at  2:34:58 

     This program is part of the open-source Quantum ESPRESSO suite
     Waiting for input...
     Waiting for input...
     for quantum simulation of materials; please cite
         "P. Giannozzi et al., J. Phys.:Condens. Matter 21 395502 (2009);
     Reading input from standard input
         "P. Giannozzi et al., J. Phys.:Condens. Matter 29 465901 (2017);
         "P. Giannozzi et al., J. Chem. Phys. 152 154105 (2020);
          URL http://www.quantum-espresso.org", 
     in publications or presentations arising from this work. More details at
     http://www.quantum-espresso.org/quote

     Serial multi-threaded version, running on    1 processor cores
     248234 MiB available memory on the printing compute node when the environment starts
 
     Waiting for input...
     Reading input from standard input

     Reading xml data from directory:

     ./Fe_NH2_paper_480c_ESM_std.save/
     Reading input from standard input
     Reading input from standard input


     Reading xml data from directory:

     ./Fe_NH2_paper_480c_ESM_std.save/
     Reading xml data from directory:

     ./Fe_NH2_paper_480c_ESM_std.save/

 %%%%%%%%%%%%%%%%%%%%%%%%%%%%%%%%%%%%%%%%%%%%%%%%%%%%%%%%%%%%%%%%%%%%%%%%%%%%%%
     Error in routine  read_namelists (2):

      could not find namelist &inputph
 %%%%%%%%%%%%%%%%%%%%%%%%%%%%%%%%%%%%%%%%%%%%%%%%%%%%%%%%%%%%%%%%%%%%%%%%%%%%%%

     stopping ...

     Program PHONON v.7.1 starts on 20Sep2022 at  2:34:58 

     This program is part of the open-source Quantum ESPRESSO suite
     for quantum simulation of materials; please cite
         "P. Giannozzi et al., J. Phys.:Condens. Matter 21 395502 (2009);
         "P. Giannozzi et al., J. Phys.:Condens. Matter 29 465901 (2017);
         "P. Giannozzi et al., J. Chem. Phys. 152 154105 (2020);
          URL http://www.quantum-espresso.org", 
     in publications or presentations arising from this work. More details at
     http://www.quantum-espresso.org/quote

     Serial multi-threaded version, running on    1 processor cores
     248182 MiB available memory on the printing compute node when the environment starts
 
     Waiting for input...


     Program PHONON v.7.1 starts on 20Sep2022 at  2:34:58 

     This program is part of the open-source Quantum ESPRESSO suite
     for quantum simulation of materials; please cite
         "P. Giannozzi et al., J. Phys.:Condens. Matter 21 395502 (2009);
         "P. Giannozzi et al., J. Phys.:Condens. Matter 29 465901 (2017);
         "P. Giannozzi et al., J. Chem. Phys. 152 154105 (2020);
          URL http://www.quantum-espresso.org", 
     in publications or presentations arising from this work. More details at
     http://www.quantum-espresso.org/quote

     Serial multi-threaded version, running on    1 processor cores
     Program PHONON v.7.1 starts on 20Sep2022 at  2:34:58 

     This program is part of the open-source Quantum ESPRESSO suite
     for quantum simulation of materials; please cite
         "P. Giannozzi et al., J. Phys.:Condens. Matter 21 395502 (2009);
         "P. Giannozzi et al., J. Phys.:Condens. Matter 29 465901 (2017);
         "P. Giannozzi et al., J. Chem. Phys. 152 154105 (2020);
          URL http://www.quantum-espresso.org", 
     in publications or presentations arising from this work. More details at
     http://www.quantum-espresso.org/quote

     Serial multi-threaded version, running on    1 processor cores
     Program PHONON v.7.1 starts on 20Sep2022 at  2:34:58 

     This program is part of the open-source Quantum ESPRESSO suite
     for quantum simulation of materials; please cite
         "P. Giannozzi et al., J. Phys.:Condens. Matter 21 395502 (2009);
         "P. Giannozzi et al., J. Phys.:Condens. Matter 29 465901 (2017);
         "P. Giannozzi et al., J. Chem. Phys. 152 154105 (2020);
          URL http://www.quantum-espresso.org", 
     in publications or presentations arising from this work. More details at
     http://www.quantum-espresso.org/quote

     Serial multi-threaded version, running on    1 processor cores

     Program PHONON v.7.1 starts on 20Sep2022 at  2:34:58 

     This program is part of the open-source Quantum ESPRESSO suite
     for quantum simulation of materials; please cite
         "P. Giannozzi et al., J. Phys.:Condens. Matter 21 395502 (2009);
         "P. Giannozzi et al., J. Phys.:Condens. Matter 29 465901 (2017);
         "P. Giannozzi et al., J. Chem. Phys. 152 154105 (2020);
          URL http://www.quantum-espresso.org", 
     in publications or presentations arising from this work. More details at
     http://www.quantum-espresso.org/quote

     Serial multi-threaded version, running on    1 processor cores
     248646 MiB available memory on the printing compute node when the environment starts
 
     248646 MiB available memory on the printing compute node when the environment starts
 
     248646 MiB available memory on the printing compute node when the environment starts
 
     248646 MiB available memory on the printing compute node when the environment starts
 
     Waiting for input...
     Waiting for input...
     Waiting for input...
     Waiting for input...
     Message from routine qes_read:control_variablesType:
     fcp: wrong number of occurrences
     Message from routine qes_read:control_variablesType:
     rism: wrong number of occurrences
     Message from routine qes_read:control_variablesType:
     fcp: wrong number of occurrences
     Message from routine qes_read:control_variablesType:
     rism: wrong number of occurrences
     Message from routine qexsd_readschema :
     Message from routine qes_read:control_variablesType:
     fcp: wrong number of occurrences
     Message from routine qes_read:control_variablesType:
     rism: wrong number of occurrences
     input info not found or not readable in xml file

     Program PHONON v.7.1 starts on 20Sep2022 at  2:34:58 

     This program is part of the open-source Quantum ESPRESSO suite
     for quantum simulation of materials; please cite
         "P. Giannozzi et al., J. Phys.:Condens. Matter 21 395502 (2009);
         "P. Giannozzi et al., J. Phys.:Condens. Matter 29 465901 (2017);
         "P. Giannozzi et al., J. Chem. Phys. 152 154105 (2020);
          URL http://www.quantum-espresso.org", 
     in publications or presentations arising from this work. More details at
     http://www.quantum-espresso.org/quote

     Serial multi-threaded version, running on    1 processor cores
     247951 MiB available memory on the printing compute node when the environment starts
 
     Message from routine qes_read:control_variablesType:
     fcp: wrong number of occurrences
     Message from routine qes_read:control_variablesType:
     rism: wrong number of occurrences
     Message from routine qes_read:control_variablesType:
     fcp: wrong number of occurrences
     Message from routine qes_read:control_variablesType:
     rism: wrong number of occurrences
     Waiting for input...
     Message from routine qexsd_readschema :
     Message from routine qes_read:control_variablesType:
     fcp: wrong number of occurrences
     Message from routine qes_read:control_variablesType:
     rism: wrong number of occurrences
     input info not found or not readable in xml file
     Message from routine qes_read:control_variablesType:
     fcp: wrong number of occurrences
     Message from routine qes_read:control_variablesType:
     rism: wrong number of occurrences
     Message from routine qes_read:control_variablesType:
     fcp: wrong number of occurrences
     Message from routine qes_read:control_variablesType:
     rism: wrong number of occurrences
     Message from routine qexsd_readschema :
     input info not found or not readable in xml file
     Message from routine qexsd_readschema :
     input info not found or not readable in xml file
     Message from routine qexsd_readschema :
     input info not found or not readable in xml file
     Message from routine qexsd_readschema :
     input info not found or not readable in xml file
     Message from routine qexsd_readschema :
     input info not found or not readable in xml file
     Message from routine qexsd_readschema :
     Message from routine qes_read:control_variablesType:
     fcp: wrong number of occurrences
     Message from routine qes_read:control_variablesType:
     rism: wrong number of occurrences
     input info not found or not readable in xml file
     Message from routine qes_read:control_variablesType:
     fcp: wrong number of occurrences
     Message from routine qes_read:control_variablesType:
     rism: wrong number of occurrences
     Message from routine qes_read:control_variablesType:
     Message from routine qexsd_readschema :
     input info not found or not readable in xml file
     fcp: wrong number of occurrences
     Message from routine qes_read:control_variablesType:
     Message from routine qexsd_readschema :
     input info not found or not readable in xml file
     rism: wrong number of occurrences

     Message from routine qexsd_readschema :
     input info not found or not readable in xml file

     Program PHONON v.7.1 starts on 20Sep2022 at  2:34:58 

     This program is part of the open-source Quantum ESPRESSO suite
     for quantum simulation of materials; please cite
         "P. Giannozzi et al., J. Phys.:Condens. Matter 21 395502 (2009);
         "P. Giannozzi et al., J. Phys.:Condens. Matter 29 465901 (2017);
         "P. Giannozzi et al., J. Chem. Phys. 152 154105 (2020);
          URL http://www.quantum-espresso.org", 
     in publications or presentations arising from this work. More details at
     http://www.quantum-espresso.org/quote

     Serial multi-threaded version, running on    1 processor cores
     Program PHONON v.7.1 starts on 20Sep2022 at  2:34:58 

     This program is part of the open-source Quantum ESPRESSO suite
     247935 MiB available memory on the printing compute node when the environment starts
 
     for quantum simulation of materials; please cite
         "P. Giannozzi et al., J. Phys.:Condens. Matter 21 395502 (2009);
         "P. Giannozzi et al., J. Phys.:Condens. Matter 29 465901 (2017);
         "P. Giannozzi et al., J. Chem. Phys. 152 154105 (2020);
          URL http://www.quantum-espresso.org", 
     in publications or presentations arising from this work. More details at
     http://www.quantum-espresso.org/quote

     Serial multi-threaded version, running on    1 processor cores
     Waiting for input...
     247930 MiB available memory on the printing compute node when the environment starts
 
     Waiting for input...

     Program PHONON v.7.1 starts on 20Sep2022 at  2:34:58 

     This program is part of the open-source Quantum ESPRESSO suite
     for quantum simulation of materials; please cite
         "P. Giannozzi et al., J. Phys.:Condens. Matter 21 395502 (2009);
         "P. Giannozzi et al., J. Phys.:Condens. Matter 29 465901 (2017);
         "P. Giannozzi et al., J. Chem. Phys. 152 154105 (2020);
          URL http://www.quantum-espresso.org", 
     in publications or presentations arising from this work. More details at
     http://www.quantum-espresso.org/quote

     Serial multi-threaded version, running on    1 processor cores
     Message from routine qes_read:control_variablesType:
     fcp: wrong number of occurrences
     Message from routine qes_read:control_variablesType:
     rism: wrong number of occurrences
     248436 MiB available memory on the printing compute node when the environment starts
 
     Waiting for input...
     Reading input from standard input
     Reading input from standard input
     Message from routine qexsd_readschema :
     input info not found or not readable in xml file
     Reading input from standard input

     Reading input from standard input
     Reading xml data from directory:

     ./Fe_NH2_paper_480c_ESM_std.save/
     Reading input from standard input

     Program PHONON v.7.1 starts on 20Sep2022 at  2:34:58 

     This program is part of the open-source Quantum ESPRESSO suite
     for quantum simulation of materials; please cite
         "P. Giannozzi et al., J. Phys.:Condens. Matter 21 395502 (2009);
         "P. Giannozzi et al., J. Phys.:Condens. Matter 29 465901 (2017);
         "P. Giannozzi et al., J. Chem. Phys. 152 154105 (2020);
          URL http://www.quantum-espresso.org", 
     in publications or presentations arising from this work. More details at
     http://www.quantum-espresso.org/quote

     Reading input from standard input
     Message from routine qes_read:control_variablesType:
     fcp: wrong number of occurrences
     Message from routine qes_read:control_variablesType:
     rism: wrong number of occurrences
     Serial multi-threaded version, running on    1 processor cores
     247883 MiB available memory on the printing compute node when the environment starts
 
     Reading input from standard input
     Waiting for input...

     Reading xml data from directory:

     ./Fe_NH2_paper_480c_ESM_std.save/

 %%%%%%%%%%%%%%%%%%%%%%%%%%%%%%%%%%%%%%%%%%%%%%%%%%%%%%%%%%%%%%%%%%%%%%%%%%%%%%
     Error in routine  read_namelists (2):
      could not find namelist &inputph
 %%%%%%%%%%%%%%%%%%%%%%%%%%%%%%%%%%%%%%%%%%%%%%%%%%%%%%%%%%%%%%%%%%%%%%%%%%%%%%

     stopping ...

 %%%%%%%%%%%%%%%%%%%%%%%%%%%%%%%%%%%%%%%%%%%%%%%%%%%%%%%%%%%%%%%%%%%%%%%%%%%%%%
     Error in routine  read_namelists (2):
      could not find namelist &inputph
     Message from routine qexsd_readschema :
     input info not found or not readable in xml file
 %%%%%%%%%%%%%%%%%%%%%%%%%%%%%%%%%%%%%%%%%%%%%%%%%%%%%%%%%%%%%%%%%%%%%%%%%%%%%%

     stopping ...


 %%%%%%%%%%%%%%%%%%%%%%%%%%%%%%%%%%%%%%%%%%%%%%%%%%%%%%%%%%%%%%%%%%%%%%%%%%%%%%
     Error in routine  read_namelists (2):
      could not find namelist &inputph
 %%%%%%%%%%%%%%%%%%%%%%%%%%%%%%%%%%%%%%%%%%%%%%%%%%%%%%%%%%%%%%%%%%%%%%%%%%%%%%

     stopping ...

 %%%%%%%%%%%%%%%%%%%%%%%%%%%%%%%%%%%%%%%%%%%%%%%%%%%%%%%%%%%%%%%%%%%%%%%%%%%%%%
 %%%%%%%%%%%%%%%%%%%%%%%%%%%%%%%%%%%%%%%%%%%%%%%%%%%%%%%%%%%%%%%%%%%%%%%%%%%%%%
     Error in routine  read_namelists (2):
     Error in routine  read_namelists (2):
      could not find namelist &inputph
 %%%%%%%%%%%%%%%%%%%%%%%%%%%%%%%%%%%%%%%%%%%%%%%%%%%%%%%%%%%%%%%%%%%%%%%%%%%%%%
      could not find namelist &inputph

 %%%%%%%%%%%%%%%%%%%%%%%%%%%%%%%%%%%%%%%%%%%%%%%%%%%%%%%%%%%%%%%%%%%%%%%%%%%%%%
     stopping ...

     stopping ...

     Program PHONON v.7.1 starts on 20Sep2022 at  2:34:58 

     This program is part of the open-source Quantum ESPRESSO suite
     for quantum simulation of materials; please cite
         "P. Giannozzi et al., J. Phys.:Condens. Matter 21 395502 (2009);
         "P. Giannozzi et al., J. Phys.:Condens. Matter 29 465901 (2017);
         "P. Giannozzi et al., J. Chem. Phys. 152 154105 (2020);
          URL http://www.quantum-espresso.org", 
     in publications or presentations arising from this work. More details at
     http://www.quantum-espresso.org/quote

     Serial multi-threaded version, running on    1 processor cores
     Message from routine qes_read:control_variablesType:
     fcp: wrong number of occurrences
     Message from routine qes_read:control_variablesType:
     rism: wrong number of occurrences

     Program PHONON v.7.1 starts on 20Sep2022 at  2:34:58 

     This program is part of the open-source Quantum ESPRESSO suite
     for quantum simulation of materials; please cite
         "P. Giannozzi et al., J. Phys.:Condens. Matter 21 395502 (2009);
         "P. Giannozzi et al., J. Phys.:Condens. Matter 29 465901 (2017);
         "P. Giannozzi et al., J. Chem. Phys. 152 154105 (2020);
          URL http://www.quantum-espresso.org", 
     in publications or presentations arising from this work. More details at
     http://www.quantum-espresso.org/quote

     Serial multi-threaded version, running on    1 processor cores

     Program PHONON v.7.1 starts on 20Sep2022 at  2:34:58 

     This program is part of the open-source Quantum ESPRESSO suite
     for quantum simulation of materials; please cite
         "P. Giannozzi et al., J. Phys.:Condens. Matter 21 395502 (2009);
         "P. Giannozzi et al., J. Phys.:Condens. Matter 29 465901 (2017);
         "P. Giannozzi et al., J. Chem. Phys. 152 154105 (2020);
          URL http://www.quantum-espresso.org", 
     in publications or presentations arising from this work. More details at
     http://www.quantum-espresso.org/quote

     Serial multi-threaded version, running on    1 processor cores

     Program PHONON v.7.1 starts on 20Sep2022 at  2:34:58 

     This program is part of the open-source Quantum ESPRESSO suite
     for quantum simulation of materials; please cite
         "P. Giannozzi et al., J. Phys.:Condens. Matter 21 395502 (2009);
         "P. Giannozzi et al., J. Phys.:Condens. Matter 29 465901 (2017);
         "P. Giannozzi et al., J. Chem. Phys. 152 154105 (2020);
          URL http://www.quantum-espresso.org", 
     in publications or presentations arising from this work. More details at
     http://www.quantum-espresso.org/quote

     Serial multi-threaded version, running on    1 processor cores
     Reading input from standard input
     Reading input from standard input

     Program PHONON v.7.1 starts on 20Sep2022 at  2:34:58 

     This program is part of the open-source Quantum ESPRESSO suite
     for quantum simulation of materials; please cite
         "P. Giannozzi et al., J. Phys.:Condens. Matter 21 395502 (2009);
         "P. Giannozzi et al., J. Phys.:Condens. Matter 29 465901 (2017);
         "P. Giannozzi et al., J. Chem. Phys. 152 154105 (2020);
          URL http://www.quantum-espresso.org", 
     in publications or presentations arising from this work. More details at
     http://www.quantum-espresso.org/quote

     Serial multi-threaded version, running on    1 processor cores


     Program PHONON v.7.1 starts on 20Sep2022 at  2:34:58 

     This program is part of the open-source Quantum ESPRESSO suite
     for quantum simulation of materials; please cite
         "P. Giannozzi et al., J. Phys.:Condens. Matter 21 395502 (2009);
         "P. Giannozzi et al., J. Phys.:Condens. Matter 29 465901 (2017);
         "P. Giannozzi et al., J. Chem. Phys. 152 154105 (2020);
          URL http://www.quantum-espresso.org", 
     in publications or presentations arising from this work. More details at
     http://www.quantum-espresso.org/quote

     Serial multi-threaded version, running on    1 processor cores
     Program PHONON v.7.1 starts on 20Sep2022 at  2:34:58 

     248339 MiB available memory on the printing compute node when the environment starts
 
     248339 MiB available memory on the printing compute node when the environment starts
 
     This program is part of the open-source Quantum ESPRESSO suite
     for quantum simulation of materials; please cite
     Waiting for input...
     Waiting for input...
         "P. Giannozzi et al., J. Phys.:Condens. Matter 21 395502 (2009);
         "P. Giannozzi et al., J. Phys.:Condens. Matter 29 465901 (2017);
         "P. Giannozzi et al., J. Chem. Phys. 152 154105 (2020);
          URL http://www.quantum-espresso.org", 
     in publications or presentations arising from this work. More details at

     Reading xml data from directory:

     ./Fe_NH2_paper_480c_ESM_std.save/

     Reading xml data from directory:

     ./Fe_NH2_paper_480c_ESM_std.save/
     http://www.quantum-espresso.org/quote

     Serial multi-threaded version, running on    1 processor cores
     248330 MiB available memory on the printing compute node when the environment starts
 
     Waiting for input...
     Reading input from standard input
     Reading input from standard input

     Reading xml data from directory:

     ./Fe_NH2_paper_480c_ESM_std.save/
     Reading input from standard input

 %%%%%%%%%%%%%%%%%%%%%%%%%%%%%%%%%%%%%%%%%%%%%%%%%%%%%%%%%%%%%%%%%%%%%%%%%%%%%%
     Error in routine  read_namelists (1):
      bad line in namelist &inputph: "                                                     amass(1)=55.845" (error could be in the previous line)
 %%%%%%%%%%%%%%%%%%%%%%%%%%%%%%%%%%%%%%%%%%%%%%%%%%%%%%%%%%%%%%%%%%%%%%%%%%%%%%

     stopping ...

 %%%%%%%%%%%%%%%%%%%%%%%%%%%%%%%%%%%%%%%%%%%%%%%%%%%%%%%%%%%%%%%%%%%%%%%%%%%%%%
     Error in routine  read_namelists (2):
      could not find namelist &inputph
 %%%%%%%%%%%%%%%%%%%%%%%%%%%%%%%%%%%%%%%%%%%%%%%%%%%%%%%%%%%%%%%%%%%%%%%%%%%%%%

     stopping ...


     Program PHONON v.7.1 starts on 20Sep2022 at  2:34:58 

     This program is part of the open-source Quantum ESPRESSO suite
     for quantum simulation of materials; please cite
         "P. Giannozzi et al., J. Phys.:Condens. Matter 21 395502 (2009);
         "P. Giannozzi et al., J. Phys.:Condens. Matter 29 465901 (2017);
         "P. Giannozzi et al., J. Chem. Phys. 152 154105 (2020);
          URL http://www.quantum-espresso.org", 
     in publications or presentations arising from this work. More details at
     http://www.quantum-espresso.org/quote

     Serial multi-threaded version, running on    1 processor cores
     Program PHONON v.7.1 starts on 20Sep2022 at  2:34:58 

     248290 MiB available memory on the printing compute node when the environment starts
 
     This program is part of the open-source Quantum ESPRESSO suite
     for quantum simulation of materials; please cite
         "P. Giannozzi et al., J. Phys.:Condens. Matter 21 395502 (2009);
         "P. Giannozzi et al., J. Phys.:Condens. Matter 29 465901 (2017);
         "P. Giannozzi et al., J. Chem. Phys. 152 154105 (2020);
          URL http://www.quantum-espresso.org", 
     in publications or presentations arising from this work. More details at
     http://www.quantum-espresso.org/quote

     Serial multi-threaded version, running on    1 processor cores
     Waiting for input...
     248311 MiB available memory on the printing compute node when the environment starts
 
     Waiting for input...
     Reading input from standard input
     Reading input from standard input


     Reading xml data from directory:

     ./Fe_NH2_paper_480c_ESM_std.save/
     Reading xml data from directory:

     ./Fe_NH2_paper_480c_ESM_std.save/

     Program PHONON v.7.1 starts on 20Sep2022 at  2:34:58 

     This program is part of the open-source Quantum ESPRESSO suite
     for quantum simulation of materials; please cite
         "P. Giannozzi et al., J. Phys.:Condens. Matter 21 395502 (2009);
         "P. Giannozzi et al., J. Phys.:Condens. Matter 29 465901 (2017);
         "P. Giannozzi et al., J. Chem. Phys. 152 154105 (2020);
          URL http://www.quantum-espresso.org", 
     in publications or presentations arising from this work. More details at
     http://www.quantum-espresso.org/quote

     Serial multi-threaded version, running on    1 processor cores

     Program PHONON v.7.1 starts on 20Sep2022 at  2:34:58 

     This program is part of the open-source Quantum ESPRESSO suite
     for quantum simulation of materials; please cite
         "P. Giannozzi et al., J. Phys.:Condens. Matter 21 395502 (2009);
         "P. Giannozzi et al., J. Phys.:Condens. Matter 29 465901 (2017);
         "P. Giannozzi et al., J. Chem. Phys. 152 154105 (2020);
          URL http://www.quantum-espresso.org", 
     in publications or presentations arising from this work. More details at
     http://www.quantum-espresso.org/quote

     Serial multi-threaded version, running on    1 processor cores

     247850 MiB available memory on the printing compute node when the environment starts
 
     247850 MiB available memory on the printing compute node when the environment starts
 
     Program PHONON v.7.1 starts on 20Sep2022 at  2:34:58 
     247850 MiB available memory on the printing compute node when the environment starts
 
     247850 MiB available memory on the printing compute node when the environment starts
 
     247850 MiB available memory on the printing compute node when the environment starts
 
     247850 MiB available memory on the printing compute node when the environment starts
 

     This program is part of the open-source Quantum ESPRESSO suite
     for quantum simulation of materials; please cite
         "P. Giannozzi et al., J. Phys.:Condens. Matter 21 395502 (2009);
         "P. Giannozzi et al., J. Phys.:Condens. Matter 29 465901 (2017);
         "P. Giannozzi et al., J. Chem. Phys. 152 154105 (2020);
     Waiting for input...
     Reading input from standard input
          URL http://www.quantum-espresso.org", 
     Waiting for input...
     Waiting for input...
     Waiting for input...
     Waiting for input...
     Waiting for input...
     in publications or presentations arising from this work. More details at
     http://www.quantum-espresso.org/quote

     Serial multi-threaded version, running on    1 processor cores
     247848 MiB available memory on the printing compute node when the environment starts
 

     Program PHONON v.7.1 starts on 20Sep2022 at  2:34:58 

     This program is part of the open-source Quantum ESPRESSO suite
     for quantum simulation of materials; please cite
         "P. Giannozzi et al., J. Phys.:Condens. Matter 21 395502 (2009);
         "P. Giannozzi et al., J. Phys.:Condens. Matter 29 465901 (2017);
         "P. Giannozzi et al., J. Chem. Phys. 152 154105 (2020);
          URL http://www.quantum-espresso.org", 
     in publications or presentations arising from this work. More details at
     http://www.quantum-espresso.org/quote

     Serial multi-threaded version, running on    1 processor cores
     Waiting for input...
     247885 MiB available memory on the printing compute node when the environment starts
 

     Reading xml data from directory:

     ./Fe_NH2_paper_480c_ESM_std.save/

     Waiting for input...
     Message from routine qexsd_readschema :
     input info not found or not readable in xml file

     Program PHONON v.7.1 starts on 20Sep2022 at  2:34:58 

     This program is part of the open-source Quantum ESPRESSO suite
     for quantum simulation of materials; please cite
         "P. Giannozzi et al., J. Phys.:Condens. Matter 21 395502 (2009);
         "P. Giannozzi et al., J. Phys.:Condens. Matter 29 465901 (2017);
         "P. Giannozzi et al., J. Chem. Phys. 152 154105 (2020);
          URL http://www.quantum-espresso.org", 
     in publications or presentations arising from this work. More details at
     http://www.quantum-espresso.org/quote

     Serial multi-threaded version, running on    1 processor cores
     Program PHONON v.7.1 starts on 20Sep2022 at  2:34:58 
     247873 MiB available memory on the printing compute node when the environment starts
 

     This program is part of the open-source Quantum ESPRESSO suite
     for quantum simulation of materials; please cite
         "P. Giannozzi et al., J. Phys.:Condens. Matter 21 395502 (2009);
         "P. Giannozzi et al., J. Phys.:Condens. Matter 29 465901 (2017);
         "P. Giannozzi et al., J. Chem. Phys. 152 154105 (2020);
     Waiting for input...
          URL http://www.quantum-espresso.org", 
     in publications or presentations arising from this work. More details at
     http://www.quantum-espresso.org/quote

     Serial multi-threaded version, running on    1 processor cores
     247867 MiB available memory on the printing compute node when the environment starts
 
     Waiting for input...

     Program PHONON v.7.1 starts on 20Sep2022 at  2:34:58 

     This program is part of the open-source Quantum ESPRESSO suite
     for quantum simulation of materials; please cite
         "P. Giannozzi et al., J. Phys.:Condens. Matter 21 395502 (2009);
         "P. Giannozzi et al., J. Phys.:Condens. Matter 29 465901 (2017);
         "P. Giannozzi et al., J. Chem. Phys. 152 154105 (2020);
          URL http://www.quantum-espresso.org", 
     in publications or presentations arising from this work. More details at
     http://www.quantum-espresso.org/quote

     Serial multi-threaded version, running on    1 processor cores


     Program PHONON v.7.1 starts on 20Sep2022 at  2:34:58 

     This program is part of the open-source Quantum ESPRESSO suite
     for quantum simulation of materials; please cite
         "P. Giannozzi et al., J. Phys.:Condens. Matter 21 395502 (2009);
         "P. Giannozzi et al., J. Phys.:Condens. Matter 29 465901 (2017);
         "P. Giannozzi et al., J. Chem. Phys. 152 154105 (2020);
          URL http://www.quantum-espresso.org", 
     in publications or presentations arising from this work. More details at
     http://www.quantum-espresso.org/quote

     Serial multi-threaded version, running on    1 processor cores
     247804 MiB available memory on the printing compute node when the environment starts
 
     247803 MiB available memory on the printing compute node when the environment starts
 
     Program PHONON v.7.1 starts on 20Sep2022 at  2:34:58 

     This program is part of the open-source Quantum ESPRESSO suite
     for quantum simulation of materials; please cite
         "P. Giannozzi et al., J. Phys.:Condens. Matter 21 395502 (2009);
         "P. Giannozzi et al., J. Phys.:Condens. Matter 29 465901 (2017);
         "P. Giannozzi et al., J. Chem. Phys. 152 154105 (2020);
          URL http://www.quantum-espresso.org", 
     in publications or presentations arising from this work. More details at
     Waiting for input...
     http://www.quantum-espresso.org/quote
     Waiting for input...

     Serial multi-threaded version, running on    1 processor cores
     247800 MiB available memory on the printing compute node when the environment starts
 
     Waiting for input...
     Reading input from standard input
     Reading input from standard input
     Reading input from standard input
     Reading input from standard input
     Reading input from standard input
     Reading input from standard input
     Reading input from standard input
     Reading input from standard input
     Reading input from standard input
     Reading input from standard input
     Reading input from standard input

     Reading xml data from directory:

     ./Fe_NH2_paper_480c_ESM_std.save/

     Reading xml data from directory:

     ./Fe_NH2_paper_480c_ESM_std.save/

     Reading input from standard input
     Reading input from standard input

     Reading xml data from directory:

     ./Fe_NH2_paper_480c_ESM_std.save/

     Reading xml data from directory:

     ./Fe_NH2_paper_480c_ESM_std.save/

     Reading xml data from directory:

     ./Fe_NH2_paper_480c_ESM_std.save/

     Reading xml data from directory:

     ./Fe_NH2_paper_480c_ESM_std.save/

     Reading xml data from directory:

     ./Fe_NH2_paper_480c_ESM_std.save/

     Reading xml data from directory:

     ./Fe_NH2_paper_480c_ESM_std.save/

     Reading xml data from directory:

     ./Fe_NH2_paper_480c_ESM_std.save/

     Reading xml data from directory:

     ./Fe_NH2_paper_480c_ESM_std.save/

     Reading xml data from directory:

     ./Fe_NH2_paper_480c_ESM_std.save/

     Reading xml data from directory:

     ./Fe_NH2_paper_480c_ESM_std.save/
     Reading xml data from directory:

     ./Fe_NH2_paper_480c_ESM_std.save/

     Program PHONON v.7.1 starts on 20Sep2022 at  2:34:58 

     This program is part of the open-source Quantum ESPRESSO suite
     for quantum simulation of materials; please cite
         "P. Giannozzi et al., J. Phys.:Condens. Matter 21 395502 (2009);
         "P. Giannozzi et al., J. Phys.:Condens. Matter 29 465901 (2017);
         "P. Giannozzi et al., J. Chem. Phys. 152 154105 (2020);
          URL http://www.quantum-espresso.org", 
     in publications or presentations arising from this work. More details at
     http://www.quantum-espresso.org/quote

     Serial multi-threaded version, running on    1 processor cores
     247720 MiB available memory on the printing compute node when the environment starts
 
     Waiting for input...
     Reading input from standard input
     Message from routine qes_read:control_variablesType:
     fcp: wrong number of occurrences
     Message from routine qes_read:control_variablesType:
     rism: wrong number of occurrences

     Program PHONON v.7.1 starts on 20Sep2022 at  2:34:58 


     Reading xml data from directory:

     ./Fe_NH2_paper_480c_ESM_std.save/
     This program is part of the open-source Quantum ESPRESSO suite
     for quantum simulation of materials; please cite
         "P. Giannozzi et al., J. Phys.:Condens. Matter 21 395502 (2009);
         "P. Giannozzi et al., J. Phys.:Condens. Matter 29 465901 (2017);
         "P. Giannozzi et al., J. Chem. Phys. 152 154105 (2020);
          URL http://www.quantum-espresso.org", 
     in publications or presentations arising from this work. More details at
     http://www.quantum-espresso.org/quote

     Serial multi-threaded version, running on    1 processor cores
     247691 MiB available memory on the printing compute node when the environment starts
 
     Waiting for input...
     Reading input from standard input

     Reading xml data from directory:

     Program PHONON v.7.1 starts on 20Sep2022 at  2:34:58 

     This program is part of the open-source Quantum ESPRESSO suite
     for quantum simulation of materials; please cite
         "P. Giannozzi et al., J. Phys.:Condens. Matter 21 395502 (2009);
         "P. Giannozzi et al., J. Phys.:Condens. Matter 29 465901 (2017);
         "P. Giannozzi et al., J. Chem. Phys. 152 154105 (2020);
          URL http://www.quantum-espresso.org", 
     in publications or presentations arising from this work. More details at
     http://www.quantum-espresso.org/quote

     Serial multi-threaded version, running on    1 processor cores

     ./Fe_NH2_paper_480c_ESM_std.save/
     247677 MiB available memory on the printing compute node when the environment starts
 
     Waiting for input...
     Reading input from standard input
     Message from routine qexsd_readschema :

     Reading xml data from directory:

     ./Fe_NH2_paper_480c_ESM_std.save/
     input info not found or not readable in xml file

     Program PHONON v.7.1 starts on 20Sep2022 at  2:34:58 

     This program is part of the open-source Quantum ESPRESSO suite
     for quantum simulation of materials; please cite
         "P. Giannozzi et al., J. Phys.:Condens. Matter 21 395502 (2009);
         "P. Giannozzi et al., J. Phys.:Condens. Matter 29 465901 (2017);
         "P. Giannozzi et al., J. Chem. Phys. 152 154105 (2020);
          URL http://www.quantum-espresso.org", 
     in publications or presentations arising from this work. More details at
     http://www.quantum-espresso.org/quote

     Serial multi-threaded version, running on    1 processor cores

     Program PHONON v.7.1 starts on 20Sep2022 at  2:34:58 
     248216 MiB available memory on the printing compute node when the environment starts
 

     This program is part of the open-source Quantum ESPRESSO suite
     for quantum simulation of materials; please cite
         "P. Giannozzi et al., J. Phys.:Condens. Matter 21 395502 (2009);
         "P. Giannozzi et al., J. Phys.:Condens. Matter 29 465901 (2017);
         "P. Giannozzi et al., J. Chem. Phys. 152 154105 (2020);
          URL http://www.quantum-espresso.org", 
     in publications or presentations arising from this work. More details at
     http://www.quantum-espresso.org/quote

     Serial multi-threaded version, running on    1 processor cores

     248210 MiB available memory on the printing compute node when the environment starts
 
     Program PHONON v.7.1 starts on 20Sep2022 at  2:34:58 

     Waiting for input...
     Waiting for input...
     This program is part of the open-source Quantum ESPRESSO suite
     for quantum simulation of materials; please cite
         "P. Giannozzi et al., J. Phys.:Condens. Matter 21 395502 (2009);
         "P. Giannozzi et al., J. Phys.:Condens. Matter 29 465901 (2017);
         "P. Giannozzi et al., J. Chem. Phys. 152 154105 (2020);
          URL http://www.quantum-espresso.org", 
     in publications or presentations arising from this work. More details at
     http://www.quantum-espresso.org/quote

     Serial multi-threaded version, running on    1 processor cores

     Program PHONON v.7.1 starts on 20Sep2022 at  2:34:58 
     248202 MiB available memory on the printing compute node when the environment starts
 

     This program is part of the open-source Quantum ESPRESSO suite
     for quantum simulation of materials; please cite
         "P. Giannozzi et al., J. Phys.:Condens. Matter 21 395502 (2009);
         "P. Giannozzi et al., J. Phys.:Condens. Matter 29 465901 (2017);
         "P. Giannozzi et al., J. Chem. Phys. 152 154105 (2020);
          URL http://www.quantum-espresso.org", 
     in publications or presentations arising from this work. More details at
     http://www.quantum-espresso.org/quote

     Serial multi-threaded version, running on    1 processor cores
     Reading input from standard input
     Reading input from standard input
     248199 MiB available memory on the printing compute node when the environment starts
 
     Waiting for input...
     Waiting for input...

     Reading xml data from directory:

     ./Fe_NH2_paper_480c_ESM_std.save/

     Reading xml data from directory:
     Reading input from standard input

     ./Fe_NH2_paper_480c_ESM_std.save/

     Program PHONON v.7.1 starts on 20Sep2022 at  2:34:58 
     Reading input from standard input

     Program PHONON v.7.1 starts on 20Sep2022 at  2:34:58 

     This program is part of the open-source Quantum ESPRESSO suite
     for quantum simulation of materials; please cite
         "P. Giannozzi et al., J. Phys.:Condens. Matter 21 395502 (2009);
         "P. Giannozzi et al., J. Phys.:Condens. Matter 29 465901 (2017);
         "P. Giannozzi et al., J. Chem. Phys. 152 154105 (2020);
          URL http://www.quantum-espresso.org", 
     in publications or presentations arising from this work. More details at
     http://www.quantum-espresso.org/quote

     Serial multi-threaded version, running on    1 processor cores

     This program is part of the open-source Quantum ESPRESSO suite
     for quantum simulation of materials; please cite
     248172 MiB available memory on the printing compute node when the environment starts
 
         "P. Giannozzi et al., J. Phys.:Condens. Matter 21 395502 (2009);
     Waiting for input...
         "P. Giannozzi et al., J. Phys.:Condens. Matter 29 465901 (2017);
         "P. Giannozzi et al., J. Chem. Phys. 152 154105 (2020);
          URL http://www.quantum-espresso.org", 
     in publications or presentations arising from this work. More details at
     http://www.quantum-espresso.org/quote

     Serial multi-threaded version, running on    1 processor cores
     248169 MiB available memory on the printing compute node when the environment starts
 
     Waiting for input...

 %%%%%%%%%%%%%%%%%%%%%%%%%%%%%%%%%%%%%%%%%%%%%%%%%%%%%%%%%%%%%%%%%%%%%%%%%%%%%%
     Error in routine  read_namelists (1):
      bad line in namelist &inputph: " &inputph" (error could be in the previous line)
 %%%%%%%%%%%%%%%%%%%%%%%%%%%%%%%%%%%%%%%%%%%%%%%%%%%%%%%%%%%%%%%%%%%%%%%%%%%%%%

     stopping ...
     Reading input from standard input

     Reading xml data from directory:

     ./Fe_NH2_paper_480c_ESM_std.save/
     Reading input from standard input

 %%%%%%%%%%%%%%%%%%%%%%%%%%%%%%%%%%%%%%%%%%%%%%%%%%%%%%%%%%%%%%%%%%%%%%%%%%%%%%
     Error in routine  read_namelists (1):
      bad line in namelist &inputph: "                prefix='Fe_NH2_paper_480c_ESM_std'" (error could be in the previous line)
 %%%%%%%%%%%%%%%%%%%%%%%%%%%%%%%%%%%%%%%%%%%%%%%%%%%%%%%%%%%%%%%%%%%%%%%%%%%%%%

     stopping ...

     Reading xml data from directory:

     ./Fe_NH2_paper_480c_ESM_std.save/
     Message from routine qes_read:control_variablesType:
     fcp: wrong number of occurrences
     Message from routine qes_read:control_variablesType:
     rism: wrong number of occurrences

     Program PHONON v.7.1 starts on 20Sep2022 at  2:34:58 

     This program is part of the open-source Quantum ESPRESSO suite
     for quantum simulation of materials; please cite
         "P. Giannozzi et al., J. Phys.:Condens. Matter 21 395502 (2009);
         "P. Giannozzi et al., J. Phys.:Condens. Matter 29 465901 (2017);
         "P. Giannozzi et al., J. Chem. Phys. 152 154105 (2020);
          URL http://www.quantum-espresso.org", 
     in publications or presentations arising from this work. More details at
     http://www.quantum-espresso.org/quote

     Serial multi-threaded version, running on    1 processor cores
     247597 MiB available memory on the printing compute node when the environment starts
 
     Waiting for input...
     Message from routine qexsd_readschema :
     input info not found or not readable in xml file
     Reading input from standard input

     Reading xml data from directory:

     ./Fe_NH2_paper_480c_ESM_std.save/
     Message from routine qes_read:control_variablesType:
     fcp: wrong number of occurrences
     Message from routine qes_read:control_variablesType:
     rism: wrong number of occurrences
     Message from routine qexsd_readschema :
     input info not found or not readable in xml file

     Program PHONON v.7.1 starts on 20Sep2022 at  2:34:58 

     This program is part of the open-source Quantum ESPRESSO suite
     for quantum simulation of materials; please cite
         "P. Giannozzi et al., J. Phys.:Condens. Matter 21 395502 (2009);
         "P. Giannozzi et al., J. Phys.:Condens. Matter 29 465901 (2017);
         "P. Giannozzi et al., J. Chem. Phys. 152 154105 (2020);
          URL http://www.quantum-espresso.org", 
     in publications or presentations arising from this work. More details at
     http://www.quantum-espresso.org/quote

     Serial multi-threaded version, running on    1 processor cores


     Program PHONON v.7.1 starts on 20Sep2022 at  2:34:58 

     This program is part of the open-source Quantum ESPRESSO suite
     for quantum simulation of materials; please cite
         "P. Giannozzi et al., J. Phys.:Condens. Matter 21 395502 (2009);
         "P. Giannozzi et al., J. Phys.:Condens. Matter 29 465901 (2017);
         "P. Giannozzi et al., J. Chem. Phys. 152 154105 (2020);
          URL http://www.quantum-espresso.org", 
     in publications or presentations arising from this work. More details at
     http://www.quantum-espresso.org/quote

     Serial multi-threaded version, running on    1 processor cores
     247445 MiB available memory on the printing compute node when the environment starts
 
     247445 MiB available memory on the printing compute node when the environment starts
 
     Waiting for input...
     Waiting for input...
     Program PHONON v.7.1 starts on 20Sep2022 at  2:34:58 

     This program is part of the open-source Quantum ESPRESSO suite
     for quantum simulation of materials; please cite
         "P. Giannozzi et al., J. Phys.:Condens. Matter 21 395502 (2009);
         "P. Giannozzi et al., J. Phys.:Condens. Matter 29 465901 (2017);
         "P. Giannozzi et al., J. Chem. Phys. 152 154105 (2020);
          URL http://www.quantum-espresso.org", 
     in publications or presentations arising from this work. More details at
     http://www.quantum-espresso.org/quote

     Serial multi-threaded version, running on    1 processor cores
     247443 MiB available memory on the printing compute node when the environment starts
 
     Waiting for input...
     Reading input from standard input
     Reading input from standard input
     Reading input from standard input


     Reading xml data from directory:

     ./Fe_NH2_paper_480c_ESM_std.save/
     Reading xml data from directory:

     Reading xml data from directory:

     ./Fe_NH2_paper_480c_ESM_std.save/

     ./Fe_NH2_paper_480c_ESM_std.save/

     Program PHONON v.7.1 starts on 20Sep2022 at  2:34:58 

     This program is part of the open-source Quantum ESPRESSO suite
     for quantum simulation of materials; please cite
         "P. Giannozzi et al., J. Phys.:Condens. Matter 21 395502 (2009);
         "P. Giannozzi et al., J. Phys.:Condens. Matter 29 465901 (2017);
         "P. Giannozzi et al., J. Chem. Phys. 152 154105 (2020);
          URL http://www.quantum-espresso.org", 
     in publications or presentations arising from this work. More details at
     http://www.quantum-espresso.org/quote

     Serial multi-threaded version, running on    1 processor cores

     Program PHONON v.7.1 starts on 20Sep2022 at  2:34:58 

     This program is part of the open-source Quantum ESPRESSO suite
     for quantum simulation of materials; please cite
         "P. Giannozzi et al., J. Phys.:Condens. Matter 21 395502 (2009);
         "P. Giannozzi et al., J. Phys.:Condens. Matter 29 465901 (2017);
         "P. Giannozzi et al., J. Chem. Phys. 152 154105 (2020);
          URL http://www.quantum-espresso.org", 
     in publications or presentations arising from this work. More details at
     http://www.quantum-espresso.org/quote

     Serial multi-threaded version, running on    1 processor cores

     247392 MiB available memory on the printing compute node when the environment starts
 
     Waiting for input...
     247390 MiB available memory on the printing compute node when the environment starts
 
     Program PHONON v.7.1 starts on 20Sep2022 at  2:34:58 

     Program PHONON v.7.1 starts on 20Sep2022 at  2:34:58 

     This program is part of the open-source Quantum ESPRESSO suite
     for quantum simulation of materials; please cite
         "P. Giannozzi et al., J. Phys.:Condens. Matter 21 395502 (2009);
         "P. Giannozzi et al., J. Phys.:Condens. Matter 29 465901 (2017);
         "P. Giannozzi et al., J. Chem. Phys. 152 154105 (2020);
          URL http://www.quantum-espresso.org", 
     in publications or presentations arising from this work. More details at
     http://www.quantum-espresso.org/quote

     Serial multi-threaded version, running on    1 processor cores
     Reading input from standard input

     247386 MiB available memory on the printing compute node when the environment starts
 
     This program is part of the open-source Quantum ESPRESSO suite
     for quantum simulation of materials; please cite
         "P. Giannozzi et al., J. Phys.:Condens. Matter 21 395502 (2009);
         "P. Giannozzi et al., J. Phys.:Condens. Matter 29 465901 (2017);
         "P. Giannozzi et al., J. Chem. Phys. 152 154105 (2020);
          URL http://www.quantum-espresso.org", 
     Waiting for input...
     Waiting for input...
     in publications or presentations arising from this work. More details at

     Program PHONON v.7.1 starts on 20Sep2022 at  2:34:58 

     This program is part of the open-source Quantum ESPRESSO suite
     for quantum simulation of materials; please cite
         "P. Giannozzi et al., J. Phys.:Condens. Matter 21 395502 (2009);
         "P. Giannozzi et al., J. Phys.:Condens. Matter 29 465901 (2017);
         "P. Giannozzi et al., J. Chem. Phys. 152 154105 (2020);
          URL http://www.quantum-espresso.org", 
     in publications or presentations arising from this work. More details at
     http://www.quantum-espresso.org/quote

     Serial multi-threaded version, running on    1 processor cores
     http://www.quantum-espresso.org/quote

     Program PHONON v.7.1 starts on 20Sep2022 at  2:34:58 

     This program is part of the open-source Quantum ESPRESSO suite
     for quantum simulation of materials; please cite
         "P. Giannozzi et al., J. Phys.:Condens. Matter 21 395502 (2009);
         "P. Giannozzi et al., J. Phys.:Condens. Matter 29 465901 (2017);
         "P. Giannozzi et al., J. Chem. Phys. 152 154105 (2020);
          URL http://www.quantum-espresso.org", 
     in publications or presentations arising from this work. More details at
     http://www.quantum-espresso.org/quote


     Reading xml data from directory:

     ./Fe_NH2_paper_480c_ESM_std.save/
     Serial multi-threaded version, running on    1 processor cores

     Serial multi-threaded version, running on    1 processor cores
     Reading input from standard input

     Program PHONON v.7.1 starts on 20Sep2022 at  2:34:58 

     This program is part of the open-source Quantum ESPRESSO suite
     for quantum simulation of materials; please cite
         "P. Giannozzi et al., J. Phys.:Condens. Matter 21 395502 (2009);
         "P. Giannozzi et al., J. Phys.:Condens. Matter 29 465901 (2017);
         "P. Giannozzi et al., J. Chem. Phys. 152 154105 (2020);
          URL http://www.quantum-espresso.org", 
     in publications or presentations arising from this work. More details at
     http://www.quantum-espresso.org/quote

     Serial multi-threaded version, running on    1 processor cores
     247376 MiB available memory on the printing compute node when the environment starts
 

     Program PHONON v.7.1 starts on 20Sep2022 at  2:34:58 

     This program is part of the open-source Quantum ESPRESSO suite
     for quantum simulation of materials; please cite
         "P. Giannozzi et al., J. Phys.:Condens. Matter 21 395502 (2009);
         "P. Giannozzi et al., J. Phys.:Condens. Matter 29 465901 (2017);
         "P. Giannozzi et al., J. Chem. Phys. 152 154105 (2020);
          URL http://www.quantum-espresso.org", 
     in publications or presentations arising from this work. More details at
     http://www.quantum-espresso.org/quote

     Serial multi-threaded version, running on    1 processor cores
     247372 MiB available memory on the printing compute node when the environment starts
     247372 MiB available memory on the printing compute node when the environment starts
 

     Program PHONON v.7.1 starts on 20Sep2022 at  2:34:58 

     This program is part of the open-source Quantum ESPRESSO suite
     for quantum simulation of materials; please cite
         "P. Giannozzi et al., J. Phys.:Condens. Matter 21 395502 (2009);
         "P. Giannozzi et al., J. Phys.:Condens. Matter 29 465901 (2017);
         "P. Giannozzi et al., J. Chem. Phys. 152 154105 (2020);
          URL http://www.quantum-espresso.org", 
     in publications or presentations arising from this work. More details at
     http://www.quantum-espresso.org/quote

     Serial multi-threaded version, running on    1 processor cores
     Reading input from standard input
     Waiting for input...
     247370 MiB available memory on the printing compute node when the environment starts
 
     Waiting for input...
     247370 MiB available memory on the printing compute node when the environment starts
 
     Waiting for input...
     Waiting for input...

     Reading xml data from directory:

     ./Fe_NH2_paper_480c_ESM_std.save/
     247365 MiB available memory on the printing compute node when the environment starts
 

     Reading xml data from directory:

     ./Fe_NH2_paper_480c_ESM_std.save/
     Reading input from standard input
 
     Reading input from standard input
     Waiting for input...
     Reading input from standard input
     Waiting for input...
     Reading input from standard input

 %%%%%%%%%%%%%%%%%%%%%%%%%%%%%%%%%%%%%%%%%%%%%%%%%%%%%%%%%%%%%%%%%%%%%%%%%%%%%%
     Error in routine  read_namelists (1):
      bad line in namelist &inputph: "                                                                                                                                                  " (error could be in the previous line)
 %%%%%%%%%%%%%%%%%%%%%%%%%%%%%%%%%%%%%%%%%%%%%%%%%%%%%%%%%%%%%%%%%%%%%%%%%%%%%%

     stopping ...
     Reading input from standard input
     Reading input from standard input


 %%%%%%%%%%%%%%%%%%%%%%%%%%%%%%%%%%%%%%%%%%%%%%%%%%%%%%%%%%%%%%%%%%%%%%%%%%%%%%
     Error in routine  read_namelists (2):
      could not find namelist &inputph
 %%%%%%%%%%%%%%%%%%%%%%%%%%%%%%%%%%%%%%%%%%%%%%%%%%%%%%%%%%%%%%%%%%%%%%%%%%%%%%

     stopping ...

 %%%%%%%%%%%%%%%%%%%%%%%%%%%%%%%%%%%%%%%%%%%%%%%%%%%%%%%%%%%%%%%%%%%%%%%%%%%%%%
     Error in routine  read_namelists (2):
      could not find namelist &inputph
 %%%%%%%%%%%%%%%%%%%%%%%%%%%%%%%%%%%%%%%%%%%%%%%%%%%%%%%%%%%%%%%%%%%%%%%%%%%%%%

     stopping ...

     Reading xml data from directory:

     ./Fe_NH2_paper_480c_ESM_std.save/

     Reading xml data from directory:

     ./Fe_NH2_paper_480c_ESM_std.save/
 %%%%%%%%%%%%%%%%%%%%%%%%%%%%%%%%%%%%%%%%%%%%%%%%%%%%%%%%%%%%%%%%%%%%%%%%%%%%%%
     Error in routine  read_namelists (2):
      could not find namelist &inputph
 %%%%%%%%%%%%%%%%%%%%%%%%%%%%%%%%%%%%%%%%%%%%%%%%%%%%%%%%%%%%%%%%%%%%%%%%%%%%%%

     stopping ...

     Program PHONON v.7.1 starts on 20Sep2022 at  2:34:58 

     This program is part of the open-source Quantum ESPRESSO suite
     for quantum simulation of materials; please cite
         "P. Giannozzi et al., J. Phys.:Condens. Matter 21 395502 (2009);
         "P. Giannozzi et al., J. Phys.:Condens. Matter 29 465901 (2017);
         "P. Giannozzi et al., J. Chem. Phys. 152 154105 (2020);
          URL http://www.quantum-espresso.org", 
     in publications or presentations arising from this work. More details at
     http://www.quantum-espresso.org/quote

     Serial multi-threaded version, running on    1 processor cores
     248050 MiB available memory on the printing compute node when the environment starts
 
     Waiting for input...
     Reading input from standard input

     Reading xml data from directory:

     ./Fe_NH2_paper_480c_ESM_std.save/

     Program PHONON v.7.1 starts on 20Sep2022 at  2:34:58 

     This program is part of the open-source Quantum ESPRESSO suite
     for quantum simulation of materials; please cite
         "P. Giannozzi et al., J. Phys.:Condens. Matter 21 395502 (2009);
         "P. Giannozzi et al., J. Phys.:Condens. Matter 29 465901 (2017);
         "P. Giannozzi et al., J. Chem. Phys. 152 154105 (2020);
          URL http://www.quantum-espresso.org", 
     in publications or presentations arising from this work. More details at
     http://www.quantum-espresso.org/quote

     Serial multi-threaded version, running on    1 processor cores
     247997 MiB available memory on the printing compute node when the environment starts
 
     Waiting for input...

     Program PHONON v.7.1 starts on 20Sep2022 at  2:34:58 

     This program is part of the open-source Quantum ESPRESSO suite
     for quantum simulation of materials; please cite
         "P. Giannozzi et al., J. Phys.:Condens. Matter 21 395502 (2009);
         "P. Giannozzi et al., J. Phys.:Condens. Matter 29 465901 (2017);
         "P. Giannozzi et al., J. Chem. Phys. 152 154105 (2020);
          URL http://www.quantum-espresso.org", 
     in publications or presentations arising from this work. More details at
     http://www.quantum-espresso.org/quote

     Serial multi-threaded version, running on    1 processor cores

     Program PHONON v.7.1 starts on 20Sep2022 at  2:34:58 

     This program is part of the open-source Quantum ESPRESSO suite
     for quantum simulation of materials; please cite
[...]

     Check: negative core charge=   -0.000039

     Check: negative core charge=   -0.000039

     Check: negative core charge=   -0.000039

     Check: negative core charge=   -0.000039

     Check: negative core charge=   -0.000039

     Check: negative core charge=   -0.000039

     negative rho (up, down):  1.179E-02 1.630E-02

     Check: negative core charge=   -0.000039

     Check: negative core charge=   -0.000039

     Check: negative core charge=   -0.000039

     Check: negative core charge=   -0.000039

     Check: negative core charge=   -0.000039

     Check: negative core charge=   -0.000039

     Check: negative core charge=   -0.000039

     Check: negative core charge=   -0.000039

     Check: negative core charge=   -0.000039

     Check: negative core charge=   -0.000039

     Check: negative core charge=   -0.000039

     Check: negative core charge=   -0.000039

     negative rho (up, down):  1.179E-02 1.630E-02

     Check: negative core charge=   -0.000039

     negative rho (up, down):  1.179E-02 1.630E-02

     Check: negative core charge=   -0.000039

     Check: negative core charge=   -0.000039

     Check: negative core charge=   -0.000039

     Check: negative core charge=   -0.000039

     Check: negative core charge=   -0.000039

     Check: negative core charge=   -0.000039

     Check: negative core charge=   -0.000039

     Check: negative core charge=   -0.000039

     negative rho (up, down):  1.179E-02 1.630E-02

     negative rho (up, down):  1.179E-02 1.630E-02

     Check: negative core charge=   -0.000039

     negative rho (up, down):  1.179E-02 1.630E-02

     Check: negative core charge=   -0.000039

     Check: negative core charge=   -0.000039

     Check: negative core charge=   -0.000039

     Check: negative core charge=   -0.000039

     Check: negative core charge=   -0.000039

     Check: negative core charge=   -0.000039


     negative rho (up, down):  1.179E-02 1.630E-02
     Check: negative core charge=   -0.000039


     Check: negative core charge=   -0.000039
     Check: negative core charge=   -0.000039

     Check: negative core charge=   -0.000039

     negative rho (up, down):  1.179E-02 1.630E-02

     Check: negative core charge=   -0.000039

     Check: negative core charge=   -0.000039

     Check: negative core charge=   -0.000039

     negative rho (up, down):  1.179E-02 1.630E-02

     Check: negative core charge=   -0.000039

     Check: negative core charge=   -0.000039

     Check: negative core charge=   -0.000039

     Check: negative core charge=   -0.000039

     Check: negative core charge=   -0.000039

     Check: negative core charge=   -0.000039

     Check: negative core charge=   -0.000039

     negative rho (up, down):  1.179E-02 1.630E-02

     Check: negative core charge=   -0.000039

     negative rho (up, down):  1.179E-02 1.630E-02


     Check: negative core charge=   -0.000039
     Check: negative core charge=   -0.000039

     Check: negative core charge=   -0.000039

     negative rho (up, down):  1.179E-02 1.630E-02

     negative rho (up, down):  1.179E-02 1.630E-02

     Check: negative core charge=   -0.000039

     negative rho (up, down):  1.179E-02 1.630E-02

     Check: negative core charge=   -0.000039

     Check: negative core charge=   -0.000039

     negative rho (up, down):  1.179E-02 1.630E-02

     Check: negative core charge=   -0.000039

     negative rho (up, down):  1.179E-02 1.630E-02

     Check: negative core charge=   -0.000039

     Check: negative core charge=   -0.000039

     Check: negative core charge=   -0.000039

     negative rho (up, down):  1.179E-02 1.630E-02

     Check: negative core charge=   -0.000039

     Check: negative core charge=   -0.000039

     negative rho (up, down):  1.179E-02 1.630E-02

     Check: negative core charge=   -0.000039

     Check: negative core charge=   -0.000039

     Check: negative core charge=   -0.000039

     Check: negative core charge=   -0.000039

     Check: negative core charge=   -0.000039

     Check: negative core charge=   -0.000039

     negative rho (up, down):  1.179E-02 1.630E-02

     Check: negative core charge=   -0.000039

     Check: negative core charge=   -0.000039


     Check: negative core charge=   -0.000039
     Check: negative core charge=   -0.000039

     Check: negative core charge=   -0.000039

     Check: negative core charge=   -0.000039

     Check: negative core charge=   -0.000039

     Check: negative core charge=   -0.000039

     negative rho (up, down):  1.179E-02 1.630E-02

     negative rho (up, down):  1.179E-02 1.630E-02

     negative rho (up, down):  1.179E-02 1.630E-02

     Check: negative core charge=   -0.000039

     Check: negative core charge=   -0.000039

     negative rho (up, down):  1.179E-02 1.630E-02

     negative rho (up, down):  1.179E-02 1.630E-02

     negative rho (up, down):  1.179E-02 1.630E-02

     negative rho (up, down):  1.179E-02 1.630E-02

     Check: negative core charge=   -0.000039

     Check: negative core charge=   -0.000039

     Check: negative core charge=   -0.000039

     Check: negative core charge=   -0.000039

     Check: negative core charge=   -0.000039

     negative rho (up, down):  1.179E-02 1.630E-02

     negative rho (up, down):  1.179E-02 1.630E-02

     negative rho (up, down):  1.179E-02 1.630E-02

     Check: negative core charge=   -0.000039

     Check: negative core charge=   -0.000039

     Check: negative core charge=   -0.000039

     Check: negative core charge=   -0.000039

     Check: negative core charge=   -0.000039

     Check: negative core charge=   -0.000039

     Check: negative core charge=   -0.000039

     Check: negative core charge=   -0.000039

     Check: negative core charge=   -0.000039

     Check: negative core charge=   -0.000039

     negative rho (up, down):  1.179E-02 1.630E-02

     negative rho (up, down):  1.179E-02 1.630E-02

     Check: negative core charge=   -0.000039

     negative rho (up, down):  1.179E-02 1.630E-02

     negative rho (up, down):  1.179E-02 1.630E-02


     Check: negative core charge=   -0.000039
     negative rho (up, down):  1.179E-02 1.630E-02

     Check: negative core charge=   -0.000039

     Check: negative core charge=   -0.000039

     Check: negative core charge=   -0.000039

     Check: negative core charge=   -0.000039

     negative rho (up, down):  1.179E-02 1.630E-02

     Check: negative core charge=   -0.000039


     Check: negative core charge=   -0.000039
     Check: negative core charge=   -0.000039

     Check: negative core charge=   -0.000039

     negative rho (up, down):  1.179E-02 1.630E-02

     Check: negative core charge=   -0.000039

     Check: negative core charge=   -0.000039

     Check: negative core charge=   -0.000039

     negative rho (up, down):  1.179E-02 1.630E-02

     negative rho (up, down):  1.179E-02 1.630E-02

     Check: negative core charge=   -0.000039

     Check: negative core charge=   -0.000039


     negative rho (up, down):  1.179E-02 1.630E-02
     Check: negative core charge=   -0.000039

     Check: negative core charge=   -0.000039

     Check: negative core charge=   -0.000039


     Check: negative core charge=   -0.000039
     Check: negative core charge=   -0.000039

     Check: negative core charge=   -0.000039

     Check: negative core charge=   -0.000039

     Check: negative core charge=   -0.000039

     negative rho (up, down):  1.179E-02 1.630E-02

     negative rho (up, down):  1.179E-02 1.630E-02

     Check: negative core charge=   -0.000039

     negative rho (up, down):  1.179E-02 1.630E-02

     negative rho (up, down):  1.179E-02 1.630E-02

     negative rho (up, down):  1.179E-02 1.630E-02

     Check: negative core charge=   -0.000039

     negative rho (up, down):  1.179E-02 1.630E-02

     Check: negative core charge=   -0.000039


     Check: negative core charge=   -0.000039
     Check: negative core charge=   -0.000039

     Check: negative core charge=   -0.000039

     Check: negative core charge=   -0.000039



     Check: negative core charge=   -0.000039
     Check: negative core charge=   -0.000039
     Check: negative core charge=   -0.000039

     Check: negative core charge=   -0.000039

     Check: negative core charge=   -0.000039

     Check: negative core charge=   -0.000039

     Check: negative core charge=   -0.000039

     negative rho (up, down):  1.179E-02 1.630E-02

     Check: negative core charge=   -0.000039

     negative rho (up, down):  1.179E-02 1.630E-02

     Check: negative core charge=   -0.000039

     Check: negative core charge=   -0.000039


     Check: negative core charge=   -0.000039
     Check: negative core charge=   -0.000039

     negative rho (up, down):  1.179E-02 1.630E-02

     negative rho (up, down):  1.179E-02 1.630E-02

     Check: negative core charge=   -0.000039

     Check: negative core charge=   -0.000039


     Check: negative core charge=   -0.000039
     Check: negative core charge=   -0.000039

     negative rho (up, down):  1.179E-02 1.630E-02

     negative rho (up, down):  1.179E-02 1.630E-02

     negative rho (up, down):  1.179E-02 1.630E-02

     Check: negative core charge=   -0.000039

     Check: negative core charge=   -0.000039

     negative rho (up, down):  1.179E-02 1.630E-02

     negative rho (up, down):  1.179E-02 1.630E-02

     negative rho (up, down):  1.179E-02 1.630E-02

     negative rho (up, down):  1.179E-02 1.630E-02

     negative rho (up, down):  1.179E-02 1.630E-02

     negative rho (up, down):  1.179E-02 1.630E-02

     negative rho (up, down):  1.179E-02 1.630E-02

     negative rho (up, down):  1.179E-02 1.630E-02

     negative rho (up, down):  1.179E-02 1.630E-02


     negative rho (up, down):  1.179E-02 1.630E-02
     negative rho (up, down):  1.179E-02 1.630E-02

     Check: negative core charge=   -0.000039

     negative rho (up, down):  1.179E-02 1.630E-02

     negative rho (up, down):  1.179E-02 1.630E-02

     negative rho (up, down):  1.179E-02 1.630E-02

     Check: negative core charge=   -0.000039

     Check: negative core charge=   -0.000039

     Check: negative core charge=   -0.000039

     Check: negative core charge=   -0.000039

     Check: negative core charge=   -0.000039

     negative rho (up, down):  1.179E-02 1.630E-02

     negative rho (up, down):  1.179E-02 1.630E-02

     negative rho (up, down):  1.179E-02 1.630E-02

     negative rho (up, down):  1.179E-02 1.630E-02

     negative rho (up, down):  1.179E-02 1.630E-02

     negative rho (up, down):  1.179E-02 1.630E-02

     negative rho (up, down):  1.179E-02 1.630E-02

     negative rho (up, down):  1.179E-02 1.630E-02

     negative rho (up, down):  1.179E-02 1.630E-02

     negative rho (up, down):  1.179E-02 1.630E-02

     negative rho (up, down):  1.179E-02 1.630E-02

     negative rho (up, down):  1.179E-02 1.630E-02

     Check: negative core charge=   -0.000039

     negative rho (up, down):  1.179E-02 1.630E-02

     negative rho (up, down):  1.179E-02 1.630E-02

     negative rho (up, down):  1.179E-02 1.630E-02

     Check: negative core charge=   -0.000039

     negative rho (up, down):  1.179E-02 1.630E-02

     negative rho (up, down):  1.179E-02 1.630E-02

     negative rho (up, down):  1.179E-02 1.630E-02

     negative rho (up, down):  1.179E-02 1.630E-02

     negative rho (up, down):  1.179E-02 1.630E-02

     negative rho (up, down):  1.179E-02 1.630E-02

     negative rho (up, down):  1.179E-02 1.630E-02

     negative rho (up, down):  1.179E-02 1.630E-02

     negative rho (up, down):  1.179E-02 1.630E-02

     negative rho (up, down):  1.179E-02 1.630E-02

     negative rho (up, down):  1.179E-02 1.630E-02

     Check: negative core charge=   -0.000039

     Check: negative core charge=   -0.000039

     negative rho (up, down):  1.179E-02 1.630E-02

     negative rho (up, down):  1.179E-02 1.630E-02


     negative rho (up, down):  1.179E-02 1.630E-02
     negative rho (up, down):  1.179E-02 1.630E-02

     negative rho (up, down):  1.179E-02 1.630E-02

     negative rho (up, down):  1.179E-02 1.630E-02

     Check: negative core charge=   -0.000039

     negative rho (up, down):  1.179E-02 1.630E-02

     Check: negative core charge=   -0.000039


     Check: negative core charge=   -0.000039
     Check: negative core charge=   -0.000039

     Check: negative core charge=   -0.000039

     negative rho (up, down):  1.179E-02 1.630E-02

     Check: negative core charge=   -0.000039

     negative rho (up, down):  1.179E-02 1.630E-02

     negative rho (up, down):  1.179E-02 1.630E-02

     Check: negative core charge=   -0.000039

     Check: negative core charge=   -0.000039

     negative rho (up, down):  1.179E-02 1.630E-02

     Check: negative core charge=   -0.000039

     negative rho (up, down):  1.179E-02 1.630E-02

     negative rho (up, down):  1.179E-02 1.630E-02

     negative rho (up, down):  1.179E-02 1.630E-02

     negative rho (up, down):  1.179E-02 1.630E-02

     negative rho (up, down):  1.179E-02 1.630E-02


     negative rho (up, down):  1.179E-02 1.630E-02
     Check: negative core charge=   -0.000039

     Check: negative core charge=   -0.000039

     Check: negative core charge=   -0.000039

     Check: negative core charge=   -0.000039

     Check: negative core charge=   -0.000039

     Check: negative core charge=   -0.000039


     Check: negative core charge=   -0.000039
     Check: negative core charge=   -0.000039

     Check: negative core charge=   -0.000039

     Check: negative core charge=   -0.000039

     Check: negative core charge=   -0.000039

     negative rho (up, down):  1.179E-02 1.630E-02

     negative rho (up, down):  1.179E-02 1.630E-02

     negative rho (up, down):  1.179E-02 1.630E-02

     negative rho (up, down):  1.179E-02 1.630E-02

     negative rho (up, down):  1.179E-02 1.630E-02

     Check: negative core charge=   -0.000039

     negative rho (up, down):  1.179E-02 1.630E-02

     negative rho (up, down):  1.179E-02 1.630E-02

     negative rho (up, down):  1.179E-02 1.630E-02

     Check: negative core charge=   -0.000039

     negative rho (up, down):  1.179E-02 1.630E-02

     negative rho (up, down):  1.179E-02 1.630E-02

     Check: negative core charge=   -0.000039

     negative rho (up, down):  1.179E-02 1.630E-02

     negative rho (up, down):  1.179E-02 1.630E-02

     Check: negative core charge=   -0.000039

     negative rho (up, down):  1.179E-02 1.630E-02

     Check: negative core charge=   -0.000039

     negative rho (up, down):  1.179E-02 1.630E-02


     Check: negative core charge=   -0.000039
     Check: negative core charge=   -0.000039

     Check: negative core charge=   -0.000039

     Check: negative core charge=   -0.000039

     negative rho (up, down):  1.179E-02 1.630E-02

     negative rho (up, down):  1.179E-02 1.630E-02

     negative rho (up, down):  1.179E-02 1.630E-02

     negative rho (up, down):  1.179E-02 1.630E-02

     negative rho (up, down):  1.179E-02 1.630E-02

     negative rho (up, down):  1.179E-02 1.630E-02

     negative rho (up, down):  1.179E-02 1.630E-02

     negative rho (up, down):  1.179E-02 1.630E-02

     negative rho (up, down):  1.179E-02 1.630E-02

     negative rho (up, down):  1.179E-02 1.630E-02

     negative rho (up, down):  1.179E-02 1.630E-02

     negative rho (up, down):  1.179E-02 1.630E-02

     negative rho (up, down):  1.179E-02 1.630E-02

     negative rho (up, down):  1.179E-02 1.630E-02

     negative rho (up, down):  1.179E-02 1.630E-02

     negative rho (up, down):  1.179E-02 1.630E-02

     negative rho (up, down):  1.179E-02 1.630E-02

     negative rho (up, down):  1.179E-02 1.630E-02

     negative rho (up, down):  1.179E-02 1.630E-02

     negative rho (up, down):  1.179E-02 1.630E-02

     negative rho (up, down):  1.179E-02 1.630E-02

     negative rho (up, down):  1.179E-02 1.630E-02

     negative rho (up, down):  1.179E-02 1.630E-02

     negative rho (up, down):  1.179E-02 1.630E-02

     negative rho (up, down):  1.179E-02 1.630E-02


     negative rho (up, down):  1.179E-02 1.630E-02
     negative rho (up, down):  1.179E-02 1.630E-02

     negative rho (up, down):  1.179E-02 1.630E-02

     negative rho (up, down):  1.179E-02 1.630E-02

     negative rho (up, down):  1.179E-02 1.630E-02

     negative rho (up, down):  1.179E-02 1.630E-02

     negative rho (up, down):  1.179E-02 1.630E-02

     negative rho (up, down):  1.179E-02 1.630E-02

     negative rho (up, down):  1.179E-02 1.630E-02

     negative rho (up, down):  1.179E-02 1.630E-02

     negative rho (up, down):  1.179E-02 1.630E-02

     negative rho (up, down):  1.179E-02 1.630E-02

     negative rho (up, down):  1.179E-02 1.630E-02

     negative rho (up, down):  1.179E-02 1.630E-02


     negative rho (up, down):  1.179E-02 1.630E-02
     negative rho (up, down):  1.179E-02 1.630E-02


     negative rho (up, down):  1.179E-02 1.630E-02
     negative rho (up, down):  1.179E-02 1.630E-02

     negative rho (up, down):  1.179E-02 1.630E-02

     negative rho (up, down):  1.179E-02 1.630E-02

     negative rho (up, down):  1.179E-02 1.630E-02

     negative rho (up, down):  1.179E-02 1.630E-02

     negative rho (up, down):  1.179E-02 1.630E-02

     negative rho (up, down):  1.179E-02 1.630E-02

     negative rho (up, down):  1.179E-02 1.630E-02

     negative rho (up, down):  1.179E-02 1.630E-02

     negative rho (up, down):  1.179E-02 1.630E-02

     negative rho (up, down):  1.179E-02 1.630E-02


     negative rho (up, down):  1.179E-02 1.630E-02
     negative rho (up, down):  1.179E-02 1.630E-02

     negative rho (up, down):  1.179E-02 1.630E-02

     negative rho (up, down):  1.179E-02 1.630E-02

     negative rho (up, down):  1.179E-02 1.630E-02


     negative rho (up, down):  1.179E-02 1.630E-02
     negative rho (up, down):  1.179E-02 1.630E-02

     negative rho (up, down):  1.179E-02 1.630E-02

     negative rho (up, down):  1.179E-02 1.630E-02

     negative rho (up, down):  1.179E-02 1.630E-02

     negative rho (up, down):  1.179E-02 1.630E-02

     negative rho (up, down):  1.179E-02 1.630E-02

     negative rho (up, down):  1.179E-02 1.630E-02

     negative rho (up, down):  1.179E-02 1.630E-02

     negative rho (up, down):  1.179E-02 1.630E-02

     negative rho (up, down):  1.179E-02 1.630E-02

     negative rho (up, down):  1.179E-02 1.630E-02

     negative rho (up, down):  1.179E-02 1.630E-02

     negative rho (up, down):  1.179E-02 1.630E-02

     negative rho (up, down):  1.179E-02 1.630E-02

     negative rho (up, down):  1.179E-02 1.630E-02

     negative rho (up, down):  1.179E-02 1.630E-02

     negative rho (up, down):  1.179E-02 1.630E-02

     negative rho (up, down):  1.179E-02 1.630E-02

     negative rho (up, down):  1.179E-02 1.630E-02

     negative rho (up, down):  1.179E-02 1.630E-02

     negative rho (up, down):  1.179E-02 1.630E-02

     negative rho (up, down):  1.179E-02 1.630E-02

     negative rho (up, down):  1.179E-02 1.630E-02

     negative rho (up, down):  1.179E-02 1.630E-02

     negative rho (up, down):  1.179E-02 1.630E-02

     negative rho (up, down):  1.179E-02 1.630E-02

     negative rho (up, down):  1.179E-02 1.630E-02

     negative rho (up, down):  1.179E-02 1.630E-02

     negative rho (up, down):  1.179E-02 1.630E-02

     negative rho (up, down):  1.179E-02 1.630E-02

     negative rho (up, down):  1.179E-02 1.630E-02

     negative rho (up, down):  1.179E-02 1.630E-02


     negative rho (up, down):  1.179E-02 1.630E-02
     negative rho (up, down):  1.179E-02 1.630E-02

     negative rho (up, down):  1.179E-02 1.630E-02

     negative rho (up, down):  1.179E-02 1.630E-02

     negative rho (up, down):  1.179E-02 1.630E-02

     negative rho (up, down):  1.179E-02 1.630E-02

     negative rho (up, down):  1.179E-02 1.630E-02

     negative rho (up, down):  1.179E-02 1.630E-02
