
     Program PWSCF v.6.7MaX starts on  8Jul2022 at 17:32:48 

     This program is part of the open-source Quantum ESPRESSO suite
     for quantum simulation of materials; please cite
         "P. Giannozzi et al., J. Phys.:Condens. Matter 21 395502 (2009);
         "P. Giannozzi et al., J. Phys.:Condens. Matter 29 465901 (2017);
          URL http://www.quantum-espresso.org", 
     in publications or presentations arising from this work. More details at
     http://www.quantum-espresso.org/quote

     Parallel version (MPI), running on   256 processors

     MPI processes distributed on     2 nodes
     K-points division:     npool     =       8
     R & G space division:  proc/nbgrp/npool/nimage =      32
     Waiting for input...
     Reading input from standard input
Warning: card &CELL ignored
Warning: card / ignored

     Current dimensions of program PWSCF are:
     Max number of different atomic species (ntypx) = 10
     Max number of k-points (npk) =  40000
     Max angular momentum in pseudopotentials (lmaxx) =  3
     file Fe.pbe-spn-kjpaw_psl.0.2.1.UPF: wavefunction(s)  3D renormalized

     IMPORTANT: XC functional enforced from input :
     Exchange-correlation= PBE
                           (   1   4   3   4   0   0   0)
     Any further DFT definition will be discarded
     Please, verify this is what you really want


     -------------------------------------------------
     Parameters for Dispersion (Grimme-D2) Correction:
     -------------------------------------------------
       atom      VdW radius       C_6     

        Fe         2.952        374.666
        N          2.640         42.670
        H          1.892          4.857

     Subspace diagonalization in iterative solution of the eigenvalue problem:
     one sub-group per band group will be used
     scalapack distributed-memory algorithm (size of sub-group:  5*  5 procs)


     Parallelization info
     --------------------
     sticks:   dense  smooth     PW     G-vecs:    dense   smooth      PW
     Min         396     198     52                90796    32100    4368
     Max         397     199     53                90807    32109    4377
     Sum       12685    6351   1677              2905599  1027285  139897



     bravais-lattice index     =            0
     lattice parameter (alat)  =      18.7640  a.u.
     unit-cell volume          =   16360.3161 (a.u.)^3
     number of atoms/cell      =           67
     number of atomic types    =            3
     number of electrons       =      1031.00
     number of Kohn-Sham states=          619
     kinetic-energy cutoff     =      60.0000  Ry
     charge density cutoff     =     480.0000  Ry
     scf convergence threshold =      1.0E-08
     mixing beta               =       0.2000
     number of iterations used =           10  local-TF  mixing
     energy convergence thresh.=      7.3E-07
     force convergence thresh. =      3.9E-04
     Exchange-correlation= PBE
                           (   1   4   3   4   0   0   0)
     nstep                     =           50


     Effective Screening Medium Method
     =================================
     Boundary Conditions: Metal-Slab-Metal
     field strength                   =     0.00 Ry/a.u.
     grid points for fit at edges     =        4 


     celldm(1)=  18.764036  celldm(2)=   0.000000  celldm(3)=   0.000000
     celldm(4)=   0.000000  celldm(5)=   0.000000  celldm(6)=   0.000000

     crystal axes: (cart. coord. in units of alat)
               a(1) = (   1.000000   0.000000   0.000000 )  
               a(2) = (   0.333330   0.942807   0.000000 )  
               a(3) = (   0.000000   0.000000   2.626577 )  

     reciprocal axes: (cart. coord. in units 2 pi/alat)
               b(1) = (  1.000000 -0.353551  0.000000 )  
               b(2) = (  0.000000  1.060663  0.000000 )  
               b(3) = (  0.000000  0.000000  0.380724 )  


     PseudoPot. # 1 for Fe read from file:
     ../../SSSP/Fe.pbe-spn-kjpaw_psl.0.2.1.UPF
     MD5 check sum: e86618425769142926afa95317d90200
     Pseudo is Projector augmented-wave + core cor, Zval = 16.0
     Generated using "atomic" code by A. Dal Corso  v.5.0.99 svn rev. 10869
     Shape of augmentation charge: PSQ
     Using radial grid of 1191 points,  6 beta functions with: 
                l(1) =   0
                l(2) =   0
                l(3) =   1
                l(4) =   1
                l(5) =   2
                l(6) =   2
     Q(r) pseudized with 0 coefficients 


     PseudoPot. # 2 for N  read from file:
     ../../SSSP/N.pbe-n-radius_5.UPF
     MD5 check sum: 16739722b17309cd8fe442a2ace49922
     Pseudo is Ultrasoft + core correction, Zval =  5.0
     Generated using "atomic" code by A. Dal Corso  v.5.1
     Using radial grid of 1085 points,  4 beta functions with: 
                l(1) =   0
                l(2) =   0
                l(3) =   1
                l(4) =   1
     Q(r) pseudized with 0 coefficients 


     PseudoPot. # 3 for H  read from file:
     ../../SSSP/H.pbe-rrkjus_psl.1.0.0.UPF
     MD5 check sum: f52b6d4d1c606e5624b1dc7b2218f220
     Pseudo is Ultrasoft, Zval =  1.0
     Generated using "atomic" code by A. Dal Corso  v.5.1
     Using radial grid of  929 points,  2 beta functions with: 
                l(1) =   0
                l(2) =   0
     Q(r) pseudized with 0 coefficients 


     atomic species   valence    mass     pseudopotential
        Fe            16.00    55.84500     Fe( 1.00)
        N              5.00    14.00700     N ( 1.00)
        H              1.00     1.00800     H ( 1.00)

     Starting magnetic structure 
     atomic species   magnetization
        Fe           0.100
        N            0.100
        H            0.100

     No symmetry found



   Cartesian axes

     site n.     atom                  positions (alat units)
         1           Fe  tau(   1) = (   0.1666663   0.1178509   0.0000000  )
         2           Fe  tau(   2) = (   0.0000000   0.0000000   0.2041376  )
         3           Fe  tau(   3) = (   0.4999989   0.3535526   0.0000000  )
         4           Fe  tau(   4) = (   0.3333326   0.2357017   0.2041376  )
         5           Fe  tau(   5) = (   0.1659520   0.1175810   0.4053421  )
         6           Fe  tau(   6) = (   0.3326483   0.9437822   0.6045480  )
         7           Fe  tau(   7) = (   0.4994773   0.3539991   0.4040113  )
         8           Fe  tau(   8) = (   0.3326212   0.2349085   0.6046659  )
         9           Fe  tau(   9) = (   0.2499989   0.3535526   0.0000000  )
        10           Fe  tau(  10) = (   0.4166663   0.1178509   0.0000000  )
        11           Fe  tau(  11) = (   0.0833326   0.2357017   0.2041376  )
        12           Fe  tau(  12) = (   0.2500000   0.0000000   0.2041376  )
        13           Fe  tau(  13) = (   0.2500038   0.3535555   0.4055726  )
        14           Fe  tau(  14) = (   0.4158438   0.1172672   0.4046832  )
        15           Fe  tau(  15) = (   0.0821558   0.2362200   0.6034882  )
        16           Fe  tau(  16) = (   0.2495789  -0.0002859   0.6056089  )
        17           Fe  tau(  17) = (   0.6666663   0.1178509   0.0000000  )
        18           Fe  tau(  18) = (   0.5000000   0.0000000   0.2041376  )
        19           Fe  tau(  19) = (   0.9999989   0.3535526   0.0000000  )
        20           Fe  tau(  20) = (   0.8333326   0.2357017   0.2041376  )
        21           Fe  tau(  21) = (   0.6669167   0.1172041   0.4040203  )
        22           Fe  tau(  22) = (   0.4990102  -0.0004232   0.6046479  )
        23           Fe  tau(  23) = (   1.0005395   0.3531053   0.4040173  )
        24           Fe  tau(  24) = (   0.8339271   0.2349135   0.6127668  )
        25           Fe  tau(  25) = (   0.7499989   0.3535526   0.0000000  )
        26           Fe  tau(  26) = (   0.9166663   0.1178509   0.0000000  )
        27           Fe  tau(  27) = (   0.5833326   0.2357017   0.2041376  )
        28           Fe  tau(  28) = (   0.7500000   0.0000000   0.2041376  )
        29           Fe  tau(  29) = (   0.7500145   0.3535431   0.4073932  )
        30           Fe  tau(  30) = (   0.9156153   0.1193455   0.4076658  )
        31           Fe  tau(  31) = (   0.5780307   0.2319510   0.5972529  )
        32           Fe  tau(  32) = (   1.0832464   0.9441187   0.6034971  )
        33           Fe  tau(  33) = (   0.3333315   0.5892543   0.0000000  )
        34           Fe  tau(  34) = (   0.1666652   0.4714034   0.2041376  )
        35           Fe  tau(  35) = (   0.6666640   0.8249560   0.0000000  )
        36           Fe  tau(  36) = (   0.4999978   0.7071052   0.2041376  )
        37           Fe  tau(  37) = (   0.3340349   0.5895474   0.4053449  )
        38           Fe  tau(  38) = (   1.1674066   0.4722071   0.6046468  )
        39           Fe  tau(  39) = (   0.6661593   0.8243969   0.4053404  )
        40           Fe  tau(  40) = (   0.5006542   0.7061856   0.6045406  )
        41           Fe  tau(  41) = (   0.4166640   0.8249560   0.0000000  )
        42           Fe  tau(  42) = (   0.5833315   0.5892543   0.0000000  )
        43           Fe  tau(  43) = (   0.2499978   0.7071052   0.2041376  )
        44           Fe  tau(  44) = (   0.4166652   0.4714034   0.2041376  )
        45           Fe  tau(  45) = (   0.4166468   0.8249857   0.4059703  )
        46           Fe  tau(  46) = (   0.5843729   0.5877891   0.4076607  )
        47           Fe  tau(  47) = (   1.2504146   0.7074198   0.6056091  )
        48           Fe  tau(  48) = (   0.4178713   0.4709022   0.6035054  )
        49           Fe  tau(  49) = (   0.8333315   0.5892543   0.0000000  )
        50           Fe  tau(  50) = (   0.6666652   0.4714034   0.2041376  )
        51           Fe  tau(  51) = (   1.1666640   0.8249560   0.0000000  )
        52           Fe  tau(  52) = (   0.9999978   0.7071052   0.2041376  )
        53           Fe  tau(  53) = (   0.8330954   0.5899023   0.4040064  )
        54           Fe  tau(  54) = (   0.6661509   0.4721609   0.6127345  )
        55           Fe  tau(  55) = (   1.1671606   0.8255483   0.4053449  )
        56           Fe  tau(  56) = (   1.0009941   0.7075301   0.6046618  )
        57           Fe  tau(  57) = (   0.9166640   0.8249560   0.0000000  )
        58           Fe  tau(  58) = (   1.0833315   0.5892543   0.0000000  )
        59           Fe  tau(  59) = (   0.7499978   0.7071052   0.2041376  )
        60           Fe  tau(  60) = (   0.9166652   0.4714034   0.2041376  )
        61           Fe  tau(  61) = (   0.9166668   0.8249631   0.4055693  )
        62           Fe  tau(  62) = (   1.0841657   0.5898408   0.4046826  )
        63           Fe  tau(  63) = (   0.7500805   0.7058177   0.6034959  )
        64           Fe  tau(  64) = (   0.9219865   0.4751687   0.5972441  )
        65           N   tau(  65) = (   0.7501233   0.3536228   0.7530313  )
        66           H   tau(  66) = (   0.8171004   0.4010472   0.8162431  )
        67           H   tau(  67) = (   0.6831528   0.3062511   0.8162907  )

     number of k points=    10  Methfessel-Paxton smearing, width (Ry)=  0.0100
                       cart. coord. in units 2pi/alat
        k(    1) = (   0.0000000   0.0000000   0.0000000), wk =   0.0625000
        k(    2) = (   0.0000000   0.2651656   0.0000000), wk =   0.1250000
        k(    3) = (   0.0000000  -0.5303313   0.0000000), wk =   0.0625000
        k(    4) = (   0.2500000  -0.0883878   0.0000000), wk =   0.1250000
        k(    5) = (   0.2500000   0.1767779   0.0000000), wk =   0.1250000
        k(    6) = (   0.2500000  -0.6187190   0.0000000), wk =   0.1250000
        k(    7) = (   0.2500000  -0.3535534   0.0000000), wk =   0.1250000
        k(    8) = (  -0.5000000   0.1767755   0.0000000), wk =   0.0625000
        k(    9) = (  -0.5000000   0.4419412   0.0000000), wk =   0.1250000
        k(   10) = (  -0.5000000  -0.3535558   0.0000000), wk =   0.0625000

     Dense  grid:  2905599 G-vectors     FFT dimensions: ( 135, 135, 360)

     Smooth grid:  1027285 G-vectors     FFT dimensions: (  96,  96, 243)

     Estimated max dynamical RAM per process >     640.95 MB

     Estimated total dynamical RAM >     160.24 GB

     Check: negative core charge=   -0.000039
     Generating pointlists ...
     new r_m :   0.0833 (alat units)  1.5632 (a.u.) for type    1
     new r_m :   0.0427 (alat units)  0.8018 (a.u.) for type    2
     new r_m :   0.0427 (alat units)  0.8018 (a.u.) for type    3

     Initial potential from superposition of free atoms

     starting charge 1030.97192, renormalised to 1031.00000

     negative rho (up, down):  1.340E-02 1.096E-02
     Starting wfcs are  838 randomized atomic wfcs
     Checking if some PAW data can be deallocated... 

     total cpu time spent up to now is       32.1 secs

     Self-consistent Calculation

     iteration #  1     ecut=    60.00 Ry     beta= 0.20
     Davidson diagonalization with overlap
     c_bands:  3 eigenvalues not converged
     c_bands:  1 eigenvalues not converged
     ethr =  1.00E-04,  avg # of iterations = 18.2

     negative rho (up, down):  6.673E-03 5.336E-03

     total cpu time spent up to now is      325.7 secs

     total energy              =  -21094.59032591 Ry
     estimated scf accuracy    <      44.76673810 Ry

     total magnetization       =   133.84 Bohr mag/cell
     absolute magnetization    =   134.18 Bohr mag/cell

     iteration #  2     ecut=    60.00 Ry     beta= 0.20
     Davidson diagonalization with overlap
     ethr =  4.34E-03,  avg # of iterations =  1.0

     negative rho (up, down):  4.013E-03 3.426E-03

     total cpu time spent up to now is      374.1 secs

     total energy              =  -21094.98261446 Ry
     estimated scf accuracy    <      10.36375002 Ry

     total magnetization       =   136.28 Bohr mag/cell
     absolute magnetization    =   136.61 Bohr mag/cell

     iteration #  3     ecut=    60.00 Ry     beta= 0.20
     Davidson diagonalization with overlap
     ethr =  1.01E-03,  avg # of iterations =  1.0

     negative rho (up, down):  1.674E-02 5.114E-02

     total cpu time spent up to now is      420.7 secs

     total energy              =  -21094.25632416 Ry
     estimated scf accuracy    <      10.33344083 Ry

     total magnetization       =   141.89 Bohr mag/cell
     absolute magnetization    =   142.27 Bohr mag/cell

     iteration #  4     ecut=    60.00 Ry     beta= 0.20
     Davidson diagonalization with overlap
     ethr =  1.00E-03,  avg # of iterations =  3.7

     negative rho (up, down):  2.964E-02 1.010E-01

     total cpu time spent up to now is      474.4 secs

     total energy              =  -21093.51589580 Ry
     estimated scf accuracy    <       8.83623776 Ry

     total magnetization       =   154.61 Bohr mag/cell
     absolute magnetization    =   155.50 Bohr mag/cell

     iteration #  5     ecut=    60.00 Ry     beta= 0.20
     Davidson diagonalization with overlap
     ethr =  8.57E-04,  avg # of iterations =  6.3

     negative rho (up, down):  2.833E-03 2.714E-02

     total cpu time spent up to now is      541.9 secs

     total energy              =  -21094.17224892 Ry
     estimated scf accuracy    <       4.26064071 Ry

     total magnetization       =   160.01 Bohr mag/cell
     absolute magnetization    =   161.92 Bohr mag/cell

     iteration #  6     ecut=    60.00 Ry     beta= 0.20
     Davidson diagonalization with overlap
     ethr =  4.13E-04,  avg # of iterations =  5.8

     negative rho (up, down):  3.574E-05 6.825E-03

     total cpu time spent up to now is      608.5 secs

     total energy              =  -21094.38702155 Ry
     estimated scf accuracy    <       1.15322388 Ry

     total magnetization       =   152.33 Bohr mag/cell
     absolute magnetization    =   154.77 Bohr mag/cell

     iteration #  7     ecut=    60.00 Ry     beta= 0.20
     Davidson diagonalization with overlap
     ethr =  1.12E-04,  avg # of iterations = 14.7

     negative rho (up, down):  2.220E-05 4.950E-03

     total cpu time spent up to now is      820.2 secs

     total energy              =  -21094.92197160 Ry
     estimated scf accuracy    <       3.23487126 Ry

     total magnetization       =   149.89 Bohr mag/cell
     absolute magnetization    =   155.45 Bohr mag/cell

     iteration #  8     ecut=    60.00 Ry     beta= 0.20
     Davidson diagonalization with overlap
     ethr =  1.12E-04,  avg # of iterations =  1.1

     negative rho (up, down):  1.088E-05 1.613E-03

     total cpu time spent up to now is      868.1 secs

     total energy              =  -21094.89675695 Ry
     estimated scf accuracy    <       0.51563029 Ry

     total magnetization       =   152.10 Bohr mag/cell
     absolute magnetization    =   156.91 Bohr mag/cell

     iteration #  9     ecut=    60.00 Ry     beta= 0.20
     Davidson diagonalization with overlap
     c_bands:  1 eigenvalues not converged
     ethr =  5.00E-05,  avg # of iterations =  7.0

     negative rho (up, down):  1.727E-04 1.173E-03

     total cpu time spent up to now is      948.2 secs

     total energy              =  -21094.92578262 Ry
     estimated scf accuracy    <       0.34037025 Ry

     total magnetization       =   152.90 Bohr mag/cell
     absolute magnetization    =   157.30 Bohr mag/cell

     iteration # 10     ecut=    60.00 Ry     beta= 0.20
     Davidson diagonalization with overlap
     ethr =  3.30E-05,  avg # of iterations =  5.7

     negative rho (up, down):  1.362E-04 2.028E-03

     total cpu time spent up to now is     1015.3 secs

     total energy              =  -21094.93083704 Ry
     estimated scf accuracy    <       0.44691931 Ry

     total magnetization       =   155.71 Bohr mag/cell
     absolute magnetization    =   160.17 Bohr mag/cell

     iteration # 11     ecut=    60.00 Ry     beta= 0.20
     Davidson diagonalization with overlap
     ethr =  3.30E-05,  avg # of iterations =  1.7

     negative rho (up, down):  1.545E-04 1.720E-03

     total cpu time spent up to now is     1066.9 secs

     total energy              =  -21094.94820177 Ry
     estimated scf accuracy    <       0.22237806 Ry

     total magnetization       =   158.78 Bohr mag/cell
     absolute magnetization    =   163.33 Bohr mag/cell

     iteration # 12     ecut=    60.00 Ry     beta= 0.20
     Davidson diagonalization with overlap
     ethr =  2.16E-05,  avg # of iterations =  4.8

     negative rho (up, down):  2.237E-03 2.844E-03

     total cpu time spent up to now is     1125.4 secs

     total energy              =  -21094.94530052 Ry
     estimated scf accuracy    <       0.27970319 Ry

     total magnetization       =   159.19 Bohr mag/cell
     absolute magnetization    =   163.83 Bohr mag/cell

     iteration # 13     ecut=    60.00 Ry     beta= 0.20
     Davidson diagonalization with overlap
     ethr =  2.16E-05,  avg # of iterations =  6.0

     negative rho (up, down):  4.719E-03 4.692E-03

     total cpu time spent up to now is     1188.7 secs

     total energy              =  -21094.94120110 Ry
     estimated scf accuracy    <       0.53978033 Ry

     total magnetization       =   161.52 Bohr mag/cell
     absolute magnetization    =   166.42 Bohr mag/cell

     iteration # 14     ecut=    60.00 Ry     beta= 0.20
     Davidson diagonalization with overlap
     ethr =  2.16E-05,  avg # of iterations =  2.2

     negative rho (up, down):  6.048E-02 5.745E-02

     total cpu time spent up to now is     1246.0 secs

     total energy              =  -21094.93215605 Ry
     estimated scf accuracy    <       0.18662120 Ry

     total magnetization       =   162.01 Bohr mag/cell
     absolute magnetization    =   166.96 Bohr mag/cell

     iteration # 15     ecut=    60.00 Ry     beta= 0.20
     Davidson diagonalization with overlap
     ethr =  1.81E-05,  avg # of iterations =  4.4

     negative rho (up, down):  6.742E-02 6.337E-02

     total cpu time spent up to now is     1307.5 secs

     total energy              =  -21094.92554407 Ry
     estimated scf accuracy    <       0.09761706 Ry

     total magnetization       =   161.92 Bohr mag/cell
     absolute magnetization    =   166.94 Bohr mag/cell

     iteration # 16     ecut=    60.00 Ry     beta= 0.20
     Davidson diagonalization with overlap
     c_bands:  4 eigenvalues not converged
     c_bands:  4 eigenvalues not converged
     ethr =  9.47E-06,  avg # of iterations = 19.4

     negative rho (up, down):  7.780E-02 7.473E-02

     total cpu time spent up to now is     1426.7 secs

     total energy              =  -21094.91547748 Ry
     estimated scf accuracy    <       0.08143048 Ry

     total magnetization       =   161.47 Bohr mag/cell
     absolute magnetization    =   166.69 Bohr mag/cell

     iteration # 17     ecut=    60.00 Ry     beta= 0.20
     Davidson diagonalization with overlap
     c_bands:  1 eigenvalues not converged
     c_bands:  1 eigenvalues not converged
     ethr =  7.90E-06,  avg # of iterations = 17.3

     negative rho (up, down):  8.941E-02 8.464E-02

     total cpu time spent up to now is     1562.9 secs

     total energy              =  -21094.91677947 Ry
     estimated scf accuracy    <       0.03643362 Ry

     total magnetization       =   160.38 Bohr mag/cell
     absolute magnetization    =   165.84 Bohr mag/cell

     iteration # 18     ecut=    60.00 Ry     beta= 0.20
     Davidson diagonalization with overlap
     c_bands:  2 eigenvalues not converged
     c_bands:  1 eigenvalues not converged
     ethr =  3.53E-06,  avg # of iterations = 18.2

     negative rho (up, down):  8.696E-02 8.327E-02

     total cpu time spent up to now is     1699.1 secs

     total energy              =  -21094.88513563 Ry
     estimated scf accuracy    <       0.02766821 Ry

     total magnetization       =   160.97 Bohr mag/cell
     absolute magnetization    =   166.72 Bohr mag/cell

     iteration # 19     ecut=    60.00 Ry     beta= 0.20
     Davidson diagonalization with overlap
     c_bands:  1 eigenvalues not converged
     c_bands:  2 eigenvalues not converged
     ethr =  2.68E-06,  avg # of iterations = 16.6

     negative rho (up, down):  1.041E-01 1.020E-01

     total cpu time spent up to now is     1866.6 secs

     total energy              =  -21094.87874527 Ry
     estimated scf accuracy    <       0.01449929 Ry

     total magnetization       =   160.89 Bohr mag/cell
     absolute magnetization    =   167.17 Bohr mag/cell

     iteration # 20     ecut=    60.00 Ry     beta= 0.20
     Davidson diagonalization with overlap
     c_bands:  1 eigenvalues not converged
     c_bands:  2 eigenvalues not converged
     c_bands:  1 eigenvalues not converged
     ethr =  1.41E-06,  avg # of iterations = 21.9

     negative rho (up, down):  1.038E-01 1.014E-01

     total cpu time spent up to now is     2106.6 secs

     total energy              =  -21094.88260574 Ry
     estimated scf accuracy    <       0.00689553 Ry

     total magnetization       =   161.19 Bohr mag/cell
     absolute magnetization    =   167.68 Bohr mag/cell

     iteration # 21     ecut=    60.00 Ry     beta= 0.20
     Davidson diagonalization with overlap
     c_bands:  1 eigenvalues not converged
     c_bands:  2 eigenvalues not converged
     ethr =  6.69E-07,  avg # of iterations = 17.1

     negative rho (up, down):  4.957E-02 5.034E-02

     total cpu time spent up to now is     2211.9 secs

     total energy              =  -21094.87797733 Ry
     estimated scf accuracy    <       0.00549494 Ry

     total magnetization       =   161.31 Bohr mag/cell
     absolute magnetization    =   167.82 Bohr mag/cell

     iteration # 22     ecut=    60.00 Ry     beta= 0.20
     Davidson diagonalization with overlap
     c_bands:  1 eigenvalues not converged
     c_bands:  2 eigenvalues not converged
     ethr =  5.33E-07,  avg # of iterations = 11.0

     negative rho (up, down):  3.883E-02 4.055E-02

     total cpu time spent up to now is     2299.8 secs

     total energy              =  -21094.87579067 Ry
     estimated scf accuracy    <       0.00350452 Ry

     total magnetization       =   161.31 Bohr mag/cell
     absolute magnetization    =   167.76 Bohr mag/cell

     iteration # 23     ecut=    60.00 Ry     beta= 0.20
     Davidson diagonalization with overlap
     c_bands:  1 eigenvalues not converged
     ethr =  3.40E-07,  avg # of iterations = 10.7

     negative rho (up, down):  2.350E-02 2.619E-02

     total cpu time spent up to now is     2383.1 secs

     total energy              =  -21094.87828440 Ry
     estimated scf accuracy    <       0.00101367 Ry

     total magnetization       =   161.46 Bohr mag/cell
     absolute magnetization    =   167.92 Bohr mag/cell

     iteration # 24     ecut=    60.00 Ry     beta= 0.20
     Davidson diagonalization with overlap
     ethr =  9.83E-08,  avg # of iterations = 14.7

     negative rho (up, down):  2.062E-02 2.368E-02

     total cpu time spent up to now is     2584.1 secs

     total energy              =  -21094.87928615 Ry
     estimated scf accuracy    <       0.00084719 Ry

     total magnetization       =   161.67 Bohr mag/cell
     absolute magnetization    =   168.17 Bohr mag/cell

     iteration # 25     ecut=    60.00 Ry     beta= 0.20
     Davidson diagonalization with overlap
     ethr =  8.22E-08,  avg # of iterations =  4.1

     negative rho (up, down):  1.752E-02 2.114E-02

     total cpu time spent up to now is     2660.2 secs

     total energy              =  -21094.88014977 Ry
     estimated scf accuracy    <       0.00031240 Ry

     total magnetization       =   161.66 Bohr mag/cell
     absolute magnetization    =   168.16 Bohr mag/cell

     iteration # 26     ecut=    60.00 Ry     beta= 0.20
     Davidson diagonalization with overlap
     ethr =  3.03E-08,  avg # of iterations =  8.0

     negative rho (up, down):  1.415E-02 1.844E-02

     total cpu time spent up to now is     2783.1 secs

     total energy              =  -21094.88207512 Ry
     estimated scf accuracy    <       0.00009731 Ry

     total magnetization       =   161.63 Bohr mag/cell
     absolute magnetization    =   168.15 Bohr mag/cell

     iteration # 27     ecut=    60.00 Ry     beta= 0.20
     Davidson diagonalization with overlap
     ethr =  9.44E-09,  avg # of iterations =  8.2

     negative rho (up, down):  1.254E-02 1.705E-02

     total cpu time spent up to now is     2962.2 secs

     total energy              =  -21094.88305450 Ry
     estimated scf accuracy    <       0.00003726 Ry

     total magnetization       =   161.64 Bohr mag/cell
     absolute magnetization    =   168.13 Bohr mag/cell

     iteration # 28     ecut=    60.00 Ry     beta= 0.20
     Davidson diagonalization with overlap
     ethr =  3.61E-09,  avg # of iterations =  8.7

     negative rho (up, down):  1.211E-02 1.669E-02

     total cpu time spent up to now is     3066.7 secs

     total energy              =  -21094.88374414 Ry
     estimated scf accuracy    <       0.00002217 Ry

     total magnetization       =   161.64 Bohr mag/cell
     absolute magnetization    =   168.12 Bohr mag/cell

     iteration # 29     ecut=    60.00 Ry     beta= 0.20
     Davidson diagonalization with overlap
     ethr =  2.15E-09,  avg # of iterations =  8.2

     negative rho (up, down):  1.201E-02 1.660E-02

     total cpu time spent up to now is     3156.3 secs

     total energy              =  -21094.88413937 Ry
     estimated scf accuracy    <       0.00001726 Ry

     total magnetization       =   161.65 Bohr mag/cell
     absolute magnetization    =   168.13 Bohr mag/cell

     iteration # 30     ecut=    60.00 Ry     beta= 0.20
     Davidson diagonalization with overlap
     ethr =  1.67E-09,  avg # of iterations =  2.4

     negative rho (up, down):  1.185E-02 1.644E-02

     total cpu time spent up to now is     3211.2 secs

     total energy              =  -21094.88437956 Ry
     estimated scf accuracy    <       0.00000782 Ry

     total magnetization       =   161.65 Bohr mag/cell
     absolute magnetization    =   168.14 Bohr mag/cell

     iteration # 31     ecut=    60.00 Ry     beta= 0.20
     Davidson diagonalization with overlap
     ethr =  7.58E-10,  avg # of iterations =  7.9

     negative rho (up, down):  1.182E-02 1.642E-02

     total cpu time spent up to now is     3344.5 secs

     total energy              =  -21094.88436312 Ry
     estimated scf accuracy    <       0.00000173 Ry

     total magnetization       =   161.66 Bohr mag/cell
     absolute magnetization    =   168.15 Bohr mag/cell

     iteration # 32     ecut=    60.00 Ry     beta= 0.20
     Davidson diagonalization with overlap
     ethr =  1.67E-10,  avg # of iterations = 10.2

     negative rho (up, down):  1.183E-02 1.644E-02

     total cpu time spent up to now is     3501.9 secs

     total energy              =  -21094.88443889 Ry
     estimated scf accuracy    <       0.00000111 Ry

     total magnetization       =   161.66 Bohr mag/cell
     absolute magnetization    =   168.15 Bohr mag/cell

     iteration # 33     ecut=    60.00 Ry     beta= 0.20
     Davidson diagonalization with overlap
     c_bands:  1 eigenvalues not converged
     ethr =  1.07E-10,  avg # of iterations =  7.1

     negative rho (up, down):  1.182E-02 1.643E-02

     total cpu time spent up to now is     3668.9 secs

     total energy              =  -21094.88459667 Ry
     estimated scf accuracy    <       0.00000056 Ry

     total magnetization       =   161.67 Bohr mag/cell
     absolute magnetization    =   168.16 Bohr mag/cell

     iteration # 34     ecut=    60.00 Ry     beta= 0.20
     Davidson diagonalization with overlap
     ethr =  5.39E-11,  avg # of iterations =  6.8

     negative rho (up, down):  1.181E-02 1.642E-02

     total cpu time spent up to now is     3753.5 secs

     total energy              =  -21094.88460803 Ry
     estimated scf accuracy    <       0.00000040 Ry

     total magnetization       =   161.67 Bohr mag/cell
     absolute magnetization    =   168.16 Bohr mag/cell

     iteration # 35     ecut=    60.00 Ry     beta= 0.20
     Davidson diagonalization with overlap
     ethr =  3.88E-11,  avg # of iterations =  3.1

     negative rho (up, down):  1.184E-02 1.645E-02

     total cpu time spent up to now is     3810.5 secs

     total energy              =  -21094.88461086 Ry
     estimated scf accuracy    <       0.00000028 Ry

     total magnetization       =   161.67 Bohr mag/cell
     absolute magnetization    =   168.16 Bohr mag/cell

     iteration # 36     ecut=    60.00 Ry     beta= 0.20
     Davidson diagonalization with overlap
     ethr =  2.74E-11,  avg # of iterations =  5.7

     negative rho (up, down):  1.189E-02 1.651E-02

     total cpu time spent up to now is     3872.2 secs

     total energy              =  -21094.88460276 Ry
     estimated scf accuracy    <       0.00000021 Ry

     total magnetization       =   161.67 Bohr mag/cell
     absolute magnetization    =   168.16 Bohr mag/cell

     iteration # 37     ecut=    60.00 Ry     beta= 0.20
     Davidson diagonalization with overlap
     ethr =  2.05E-11,  avg # of iterations =  7.2

     negative rho (up, down):  1.188E-02 1.649E-02

     total cpu time spent up to now is     3941.0 secs

     total energy              =  -21094.88461288 Ry
     estimated scf accuracy    <       0.00000017 Ry

     total magnetization       =   161.68 Bohr mag/cell
     absolute magnetization    =   168.17 Bohr mag/cell

     iteration # 38     ecut=    60.00 Ry     beta= 0.20
     Davidson diagonalization with overlap
     ethr =  1.66E-11,  avg # of iterations =  8.4

     negative rho (up, down):  1.183E-02 1.645E-02

     total cpu time spent up to now is     4017.0 secs

     total energy              =  -21094.88469148 Ry
     estimated scf accuracy    <       0.00000013 Ry

     total magnetization       =   161.68 Bohr mag/cell
     absolute magnetization    =   168.17 Bohr mag/cell

     iteration # 39     ecut=    60.00 Ry     beta= 0.20
     Davidson diagonalization with overlap
     ethr =  1.23E-11,  avg # of iterations =  9.9

     negative rho (up, down):  1.181E-02 1.642E-02

     total cpu time spent up to now is     4221.4 secs

     total energy              =  -21094.88472741 Ry
     estimated scf accuracy    <       0.00000010 Ry

     total magnetization       =   161.68 Bohr mag/cell
     absolute magnetization    =   168.17 Bohr mag/cell

     iteration # 40     ecut=    60.00 Ry     beta= 0.20
     Davidson diagonalization with overlap
     ethr =  9.27E-12,  avg # of iterations =  6.7

     negative rho (up, down):  1.180E-02 1.642E-02

     total cpu time spent up to now is     4289.6 secs

     total energy              =  -21094.88474471 Ry
     estimated scf accuracy    <       0.00000005 Ry

     total magnetization       =   161.68 Bohr mag/cell
     absolute magnetization    =   168.17 Bohr mag/cell

     iteration # 41     ecut=    60.00 Ry     beta= 0.20
     Davidson diagonalization with overlap
     ethr =  4.53E-12,  avg # of iterations =  8.2

     negative rho (up, down):  1.180E-02 1.641E-02

     total cpu time spent up to now is     4408.6 secs

     total energy              =  -21094.88474937 Ry
     estimated scf accuracy    <       0.00000001 Ry

     total magnetization       =   161.68 Bohr mag/cell
     absolute magnetization    =   168.17 Bohr mag/cell

     iteration # 42     ecut=    60.00 Ry     beta= 0.20
     Davidson diagonalization with overlap
     ethr =  1.15E-12,  avg # of iterations = 10.4

     negative rho (up, down):  1.178E-02 1.640E-02

     Magnetic moment per site:
     atom:    1    charge:   13.2732    magn:    2.5015    constr:    0.0000
     atom:    2    charge:   13.2753    magn:    2.3380    constr:    0.0000
     atom:    3    charge:   13.2734    magn:    2.5097    constr:    0.0000
     atom:    4    charge:   13.2778    magn:    2.3114    constr:    0.0000
     atom:    5    charge:   13.2808    magn:    2.2953    constr:    0.0000
     atom:    6    charge:   13.2769    magn:    2.4973    constr:    0.0000
     atom:    7    charge:   13.2866    magn:    2.2579    constr:    0.0000
     atom:    8    charge:   13.2778    magn:    2.4898    constr:    0.0000
     atom:    9    charge:   13.2738    magn:    2.5010    constr:    0.0000
     atom:   10    charge:   13.2735    magn:    2.5053    constr:    0.0000
     atom:   11    charge:   13.2777    magn:    2.3044    constr:    0.0000
     atom:   12    charge:   13.2771    magn:    2.3088    constr:    0.0000
     atom:   13    charge:   13.2812    magn:    2.3090    constr:    0.0000
     atom:   14    charge:   13.2802    magn:    2.2963    constr:    0.0000
     atom:   15    charge:   13.2766    magn:    2.5001    constr:    0.0000
     atom:   16    charge:   13.2779    magn:    2.4969    constr:    0.0000
     atom:   17    charge:   13.2733    magn:    2.5097    constr:    0.0000
     atom:   18    charge:   13.2780    magn:    2.3114    constr:    0.0000
     atom:   19    charge:   13.2733    magn:    2.5097    constr:    0.0000
     atom:   20    charge:   13.2758    magn:    2.3465    constr:    0.0000
     atom:   21    charge:   13.2866    magn:    2.2577    constr:    0.0000
     atom:   22    charge:   13.2778    magn:    2.4897    constr:    0.0000
     atom:   23    charge:   13.2866    magn:    2.2577    constr:    0.0000
     atom:   24    charge:   13.2728    magn:    2.1793    constr:    0.0000
     atom:   25    charge:   13.2728    magn:    2.5120    constr:    0.0000
     atom:   26    charge:   13.2735    magn:    2.5081    constr:    0.0000
     atom:   27    charge:   13.2782    magn:    2.3200    constr:    0.0000
     atom:   28    charge:   13.2777    magn:    2.3045    constr:    0.0000
     atom:   29    charge:   13.2716    magn:    2.4184    constr:    0.0000
     atom:   30    charge:   13.2762    magn:    2.2332    constr:    0.0000
     atom:   31    charge:   13.2908    magn:    2.4665    constr:    0.0000
     atom:   32    charge:   13.2765    magn:    2.5002    constr:    0.0000
     atom:   33    charge:   13.2734    magn:    2.5015    constr:    0.0000
     atom:   34    charge:   13.2780    magn:    2.3115    constr:    0.0000
     atom:   35    charge:   13.2734    magn:    2.5015    constr:    0.0000
     atom:   36    charge:   13.2754    magn:    2.3381    constr:    0.0000
     atom:   37    charge:   13.2809    magn:    2.2954    constr:    0.0000
     atom:   38    charge:   13.2778    magn:    2.4898    constr:    0.0000
     atom:   39    charge:   13.2809    magn:    2.2954    constr:    0.0000
     atom:   40    charge:   13.2769    magn:    2.4973    constr:    0.0000
     atom:   41    charge:   13.2730    magn:    2.5226    constr:    0.0000
     atom:   42    charge:   13.2737    magn:    2.5081    constr:    0.0000
     atom:   43    charge:   13.2771    magn:    2.3089    constr:    0.0000
     atom:   44    charge:   13.2779    magn:    2.3046    constr:    0.0000
     atom:   45    charge:   13.2817    magn:    2.2766    constr:    0.0000
     atom:   46    charge:   13.2762    magn:    2.2335    constr:    0.0000
     atom:   47    charge:   13.2779    magn:    2.4968    constr:    0.0000
     atom:   48    charge:   13.2765    magn:    2.5005    constr:    0.0000
     atom:   49    charge:   13.2734    magn:    2.5097    constr:    0.0000
     atom:   50    charge:   13.2760    magn:    2.3467    constr:    0.0000
     atom:   51    charge:   13.2732    magn:    2.5015    constr:    0.0000
     atom:   52    charge:   13.2778    magn:    2.3114    constr:    0.0000
     atom:   53    charge:   13.2866    magn:    2.2579    constr:    0.0000
     atom:   54    charge:   13.2728    magn:    2.1791    constr:    0.0000
     atom:   55    charge:   13.2808    magn:    2.2953    constr:    0.0000
     atom:   56    charge:   13.2778    magn:    2.4899    constr:    0.0000
     atom:   57    charge:   13.2738    magn:    2.5010    constr:    0.0000
     atom:   58    charge:   13.2735    magn:    2.5053    constr:    0.0000
     atom:   59    charge:   13.2779    magn:    2.3045    constr:    0.0000
     atom:   60    charge:   13.2782    magn:    2.3200    constr:    0.0000
     atom:   61    charge:   13.2812    magn:    2.3089    constr:    0.0000
     atom:   62    charge:   13.2802    magn:    2.2963    constr:    0.0000
     atom:   63    charge:   13.2765    magn:    2.5004    constr:    0.0000
     atom:   64    charge:   13.2909    magn:    2.4662    constr:    0.0000
     atom:   65    charge:    1.3502    magn:   -0.0013    constr:    0.0000
     atom:   66    charge:    0.4383    magn:    0.0076    constr:    0.0000
     atom:   67    charge:    0.4383    magn:    0.0076    constr:    0.0000

     total cpu time spent up to now is     4545.6 secs

     End of self-consistent calculation

 ------ SPIN UP ------------


          k = 0.0000 0.0000 0.0000 (128403 PWs)   bands (ev):

   -92.3012 -92.3006 -92.2891 -92.2869 -92.2856 -92.2838 -92.2821 -92.2819
   -92.2813 -92.2809 -92.2771 -92.2716 -92.2712 -92.2655 -92.2655 -92.2647
   -92.2628 -92.2613 -92.2587 -92.2575 -92.2558 -92.2524 -92.2517 -92.2507
   -92.2501 -92.2481 -92.2471 -92.2467 -92.2450 -92.2400 -92.2382 -92.2309
   -92.2236 -92.1651 -92.1508 -92.1458 -92.1445 -92.1427 -92.1411 -92.1341
   -92.1297 -92.1267 -92.1244 -92.1225 -92.1207 -92.1190 -92.1158 -92.1153
   -92.1152 -92.1149 -92.1115 -92.1102 -92.1097 -92.1070 -92.1063 -92.1021
   -92.0969 -92.0935 -92.0932 -92.0809 -92.0771 -92.0771 -92.0760 -92.0669
   -58.5132 -58.4951 -58.4918 -58.4856 -58.4764 -58.4740 -58.4701 -58.4690
   -58.4683 -58.4676 -58.4655 -58.4653 -58.4610 -58.4604 -58.4597 -58.4579
   -58.4548 -58.4548 -58.4509 -58.4491 -58.4469 -58.4467 -58.4448 -58.4422
   -58.4419 -58.4386 -58.4362 -58.4338 -58.4337 -58.4274 -58.4270 -58.4227
   -58.4181 -58.4175 -58.4090 -58.4081 -58.4077 -58.4069 -58.3890 -58.3871
   -58.3862 -58.3849 -58.3839 -58.3817 -58.3816 -58.3806 -58.3523 -58.3342
   -58.3326 -58.3326 -58.3272 -58.3192 -58.3178 -58.3144 -58.3135 -58.3097
   -58.3093 -58.3092 -58.3091 -58.3042 -58.3016 -58.3005 -58.2998 -58.2997
   -58.2947 -58.2943 -58.2874 -58.2864 -58.2860 -58.2855 -58.2818 -58.2815
   -58.2787 -58.2743 -58.2729 -58.2668 -58.2602 -58.2598 -58.2541 -58.2528
   -58.2520 -58.2488 -58.2487 -58.2454 -58.2411 -58.2404 -58.2403 -58.2403
   -58.2368 -58.2367 -58.2359 -58.2329 -58.2303 -58.2293 -58.2292 -58.2246
   -58.2216 -58.2206 -58.2170 -58.2154 -58.2071 -58.2056 -58.2014 -58.1977
   -58.1977 -58.1974 -58.1933 -58.1891 -58.1873 -58.1867 -58.1838 -58.1815
   -58.1803 -58.1791 -58.1791 -58.1767 -58.1714 -58.1705 -58.1702 -58.1698
   -58.1677 -58.1669 -58.1637 -58.1625 -58.1618 -58.1584 -58.1573 -58.1569
   -58.1557 -58.1503 -58.1486 -58.1478 -58.1448 -58.1448 -58.1412 -58.1364
   -58.1323 -58.1320 -58.1297 -58.1291 -58.1288 -58.1273 -58.1253 -58.1233
   -58.1214 -58.1182 -58.1133 -58.1111 -58.1099 -58.1076 -58.1076 -58.0995
   -58.0958 -58.0957 -58.0876 -58.0866 -58.0864 -58.0857 -58.0851 -58.0840
   -58.0795 -58.0738 -58.0727 -58.0664 -58.0658 -58.0641 -58.0610 -58.0607
   -58.0597 -58.0560 -58.0497 -58.0496 -58.0487 -58.0446 -58.0445 -58.0347
   -58.0343 -58.0254 -58.0228 -58.0226 -58.0220 -58.0216 -58.0212 -58.0165
   -58.0154 -58.0152 -58.0145 -58.0130 -58.0123 -58.0089 -58.0072 -58.0066
   -21.5137 -12.7054 -12.0976 -11.2795 -10.7038 -10.4090 -10.3941 -10.3914
   -10.3227  -9.9194  -9.8824  -9.4917  -9.4323  -9.4037  -9.3937  -9.2872
    -8.9804  -8.9661  -8.9101  -8.8398  -8.7685  -8.7676  -8.7392  -8.7275
    -8.6774  -8.6720  -8.6609  -8.5918  -8.5598  -8.3299  -8.3252  -8.3031
    -8.2877  -8.2642  -8.2246  -8.2093  -8.1974  -8.1957  -8.1931  -8.1860
    -8.1764  -8.1733  -8.1710  -8.1645  -8.1635  -8.1615  -8.1559  -8.1529
    -8.1302  -8.1183  -8.1124  -8.1079  -8.0926  -8.0873  -8.0859  -8.0483
    -8.0389  -7.9961  -7.9805  -7.9743  -7.9593  -7.9266  -7.9098  -7.9055
    -7.8934  -7.8705  -7.6276  -7.6020  -7.5969  -7.5933  -7.5921  -7.5834
    -7.4816  -7.4737  -7.4709  -7.4298  -7.4163  -7.4158  -7.4127  -7.4104
    -7.4076  -7.3919  -7.3913  -7.3836  -7.3768  -7.3703  -7.3703  -7.3615
    -7.3586  -7.3567  -7.3543  -7.3343  -7.3339  -7.3335  -7.3210  -7.3103
    -7.3075  -7.3030  -7.3023  -7.2809  -7.2798  -7.2773  -7.2722  -7.2602
    -7.2471  -7.2375  -7.2323  -7.2135  -7.2126  -7.2102  -7.1874  -7.1866
    -7.1424  -7.0684  -7.0563  -7.0418  -7.0346  -7.0245  -7.0171  -7.0051
    -6.9504  -6.8939  -6.8414  -6.8413  -6.8397  -6.8320  -6.8230  -6.8230
    -6.8157  -6.7993  -6.7917  -6.7728  -6.7544  -6.7521  -6.7508  -6.7471
    -6.7385  -6.7083  -6.7074  -6.7034  -6.6969  -6.6952  -6.6943  -6.6894
    -6.6833  -6.6553  -6.6301  -6.6197  -6.5688  -6.5648  -6.5558  -6.5342
    -6.5342  -6.5337  -6.5305  -6.5219  -6.4942  -6.4811  -6.4703  -6.4412
    -6.4254  -6.4162  -6.4000  -6.3979  -6.3946  -6.3937  -6.3563  -6.3558
    -6.3451  -6.3211  -6.3173  -6.3084  -6.3071  -6.2971  -6.2942  -6.2724
    -6.2721  -6.2719  -6.2649  -6.2581  -6.2551  -6.2505  -6.2350  -6.2334
    -6.2248  -6.2154  -6.1584  -6.1262  -6.1212  -6.0954  -6.0225  -6.0134
    -5.8946  -5.8663  -5.7646  -5.7319  -5.7316  -5.7251  -5.7210  -5.7194
    -5.7173  -5.7088  -5.7033  -5.6993  -5.6801  -5.6576  -5.6401  -5.6368
    -5.6299  -5.6114  -5.6107  -5.5928  -5.5796  -5.5692  -5.5563  -5.5461
    -5.5434  -5.5277  -5.5277  -5.5180  -5.5156  -5.5135  -5.4827  -5.4781
    -5.4601  -5.4507  -5.4380  -5.4215  -5.4172  -5.4127  -5.4119  -5.4000
    -5.3933  -5.3878  -5.3828  -5.3809  -5.3797  -5.3698  -5.3696  -5.3518
    -5.3399  -5.3336  -5.3284  -5.3222  -5.3166  -5.3153  -5.3069  -5.3031
    -5.3013  -5.2971  -5.2949  -5.2941  -5.2929  -5.2907  -5.2783  -5.2774
    -5.2719  -5.2638  -5.2612  -5.2597  -5.2576  -5.2546  -5.2529  -5.2441
    -5.2374  -5.2275  -5.2274  -5.2227  -5.2158  -5.2125  -5.1892  -5.1892
    -5.1868  -5.1859  -5.1812  -5.1752  -5.1721  -5.1664  -5.1658  -5.1588
    -5.1547  -5.1300  -5.1295  -5.1295  -5.1105  -5.0877  -5.0730  -5.0645
    -5.0577  -5.0575  -5.0335  -5.0262  -5.0251  -4.9894  -4.9708  -4.9227
    -4.9123  -4.9081  -4.9030  -4.9014  -4.8986  -4.8856  -4.8809  -4.8766
    -4.8740  -4.8737  -4.8565  -4.8505  -4.8489  -4.8416  -4.8367  -4.8361
    -4.8203  -4.8190  -4.8104  -4.7247  -4.7244  -4.7161  -4.5739  -4.4255
    -4.4101  -4.3879  -4.3626  -4.3431  -4.3223  -4.2945  -4.2944  -4.2844
    -4.2284  -4.2268  -4.1968  -4.1614  -4.1560  -4.1545  -4.1433  -4.0968
    -4.0759  -4.0707  -4.0546  -4.0340  -3.9364  -3.9323  -3.9135  -3.8364
    -3.8337  -3.7681  -3.7582  -3.7419  -3.4843  -3.1334  -3.1161  -3.1076
    -3.1058  -3.0004  -2.9204  -2.7213  -2.2836  -2.1921  -2.1903  -2.1811
    -2.1459  -2.1415  -2.1381

          k = 0.0000 0.2652 0.0000 (128375 PWs)   bands (ev):

   -92.3000 -92.2993 -92.2913 -92.2903 -92.2867 -92.2834 -92.2822 -92.2810
   -92.2799 -92.2775 -92.2770 -92.2749 -92.2706 -92.2667 -92.2655 -92.2650
   -92.2610 -92.2599 -92.2586 -92.2578 -92.2551 -92.2536 -92.2521 -92.2518
   -92.2491 -92.2482 -92.2469 -92.2464 -92.2442 -92.2409 -92.2377 -92.2313
   -92.2236 -92.1640 -92.1538 -92.1469 -92.1445 -92.1417 -92.1372 -92.1355
   -92.1290 -92.1269 -92.1246 -92.1234 -92.1207 -92.1184 -92.1168 -92.1161
   -92.1155 -92.1146 -92.1128 -92.1093 -92.1082 -92.1070 -92.1052 -92.1025
   -92.0982 -92.0941 -92.0920 -92.0812 -92.0784 -92.0767 -92.0739 -92.0678
   -58.5115 -58.4959 -58.4905 -58.4858 -58.4783 -58.4771 -58.4719 -58.4700
   -58.4674 -58.4667 -58.4647 -58.4634 -58.4611 -58.4590 -58.4574 -58.4562
   -58.4558 -58.4547 -58.4518 -58.4495 -58.4484 -58.4450 -58.4444 -58.4432
   -58.4410 -58.4371 -58.4362 -58.4343 -58.4328 -58.4281 -58.4257 -58.4177
   -58.4163 -58.4121 -58.4082 -58.4053 -58.4026 -58.3979 -58.3949 -58.3887
   -58.3863 -58.3846 -58.3825 -58.3777 -58.3729 -58.3696 -58.3529 -58.3477
   -58.3407 -58.3333 -58.3302 -58.3271 -58.3255 -58.3240 -58.3225 -58.3152
   -58.3120 -58.3082 -58.3059 -58.3034 -58.3023 -58.3008 -58.2997 -58.2987
   -58.2971 -58.2942 -58.2935 -58.2911 -58.2902 -58.2862 -58.2832 -58.2813
   -58.2788 -58.2782 -58.2752 -58.2736 -58.2726 -58.2652 -58.2642 -58.2597
   -58.2576 -58.2534 -58.2496 -58.2483 -58.2467 -58.2456 -58.2404 -58.2366
   -58.2327 -58.2302 -58.2278 -58.2254 -58.2242 -58.2222 -58.2207 -58.2189
   -58.2173 -58.2139 -58.2123 -58.2093 -58.2087 -58.2051 -58.2039 -58.2013
   -58.1958 -58.1948 -58.1941 -58.1896 -58.1889 -58.1876 -58.1863 -58.1839
   -58.1825 -58.1818 -58.1799 -58.1783 -58.1755 -58.1739 -58.1717 -58.1701
   -58.1690 -58.1648 -58.1629 -58.1614 -58.1568 -58.1546 -58.1531 -58.1509
   -58.1490 -58.1483 -58.1473 -58.1422 -58.1401 -58.1390 -58.1371 -58.1354
   -58.1345 -58.1313 -58.1298 -58.1263 -58.1257 -58.1246 -58.1225 -58.1198
   -58.1161 -58.1146 -58.1117 -58.1114 -58.1083 -58.1059 -58.1050 -58.1016
   -58.0944 -58.0935 -58.0907 -58.0888 -58.0871 -58.0857 -58.0850 -58.0824
   -58.0791 -58.0761 -58.0718 -58.0665 -58.0648 -58.0636 -58.0606 -58.0589
   -58.0523 -58.0512 -58.0496 -58.0485 -58.0463 -58.0438 -58.0424 -58.0355
   -58.0351 -58.0286 -58.0279 -58.0264 -58.0245 -58.0240 -58.0235 -58.0222
   -58.0207 -58.0180 -58.0176 -58.0147 -58.0137 -58.0124 -58.0099 -58.0079
   -21.5137 -12.7060 -11.9845 -11.2994 -11.0241 -10.6256 -10.4989 -10.2537
   -10.0694  -9.8929  -9.6763  -9.5021  -9.4443  -9.3030  -9.2121  -9.1762
    -9.0738  -9.0228  -8.8902  -8.8289  -8.8001  -8.7278  -8.7039  -8.6801
    -8.6706  -8.6428  -8.6183  -8.6018  -8.5895  -8.4706  -8.3937  -8.3501
    -8.3367  -8.3297  -8.3060  -8.3027  -8.2852  -8.2810  -8.2701  -8.2659
    -8.2339  -8.2315  -8.2133  -8.2013  -8.1892  -8.1727  -8.1607  -8.1526
    -8.1311  -8.1152  -8.1073  -8.0952  -8.0562  -8.0472  -8.0341  -8.0177
    -8.0107  -8.0074  -7.9992  -7.9641  -7.9515  -7.8758  -7.8444  -7.8342
    -7.8299  -7.7953  -7.7870  -7.7004  -7.6597  -7.6366  -7.5971  -7.5622
    -7.5391  -7.5330  -7.4916  -7.4443  -7.4339  -7.4314  -7.4205  -7.4020
    -7.3970  -7.3815  -7.3764  -7.3735  -7.3702  -7.3661  -7.3585  -7.3487
    -7.3425  -7.3338  -7.3277  -7.3166  -7.3106  -7.3021  -7.2935  -7.2865
    -7.2793  -7.2752  -7.2718  -7.2690  -7.2644  -7.2567  -7.2513  -7.2316
    -7.2041  -7.1947  -7.1751  -7.1726  -7.1651  -7.1447  -7.1397  -7.1324
    -7.1271  -7.1116  -7.1026  -7.0806  -7.0286  -7.0067  -6.9938  -6.9764
    -6.9351  -6.9277  -6.9165  -6.9109  -6.8949  -6.8371  -6.8319  -6.8220
    -6.8137  -6.8056  -6.8042  -6.7906  -6.7835  -6.7777  -6.7743  -6.7681
    -6.7514  -6.7437  -6.7275  -6.7217  -6.7163  -6.6862  -6.6773  -6.6700
    -6.6661  -6.6298  -6.6184  -6.5889  -6.5802  -6.5740  -6.5593  -6.5488
    -6.5386  -6.5312  -6.5299  -6.5154  -6.5097  -6.5067  -6.4939  -6.4799
    -6.4777  -6.4755  -6.4657  -6.4591  -6.4432  -6.4204  -6.4044  -6.3738
    -6.3533  -6.3471  -6.3272  -6.3209  -6.3103  -6.2939  -6.2854  -6.2715
    -6.2661  -6.2510  -6.2286  -6.2235  -6.2075  -6.1714  -6.1600  -6.1454
    -6.1295  -6.1011  -6.0639  -6.0555  -6.0462  -6.0236  -5.9558  -5.8818
    -5.8569  -5.8509  -5.8160  -5.7999  -5.7912  -5.7664  -5.7497  -5.7408
    -5.7220  -5.7136  -5.7084  -5.6908  -5.6867  -5.6823  -5.6647  -5.6627
    -5.6501  -5.6370  -5.6262  -5.6071  -5.5998  -5.5757  -5.5563  -5.5504
    -5.5440  -5.5263  -5.5165  -5.5102  -5.4998  -5.4976  -5.4867  -5.4830
    -5.4796  -5.4700  -5.4613  -5.4536  -5.4468  -5.4351  -5.4202  -5.4036
    -5.3978  -5.3888  -5.3803  -5.3721  -5.3674  -5.3603  -5.3588  -5.3528
    -5.3441  -5.3390  -5.3351  -5.3311  -5.3215  -5.3136  -5.3122  -5.3035
    -5.2998  -5.2901  -5.2853  -5.2784  -5.2743  -5.2598  -5.2559  -5.2543
    -5.2516  -5.2441  -5.2410  -5.2393  -5.2349  -5.2320  -5.2254  -5.2173
    -5.2105  -5.2074  -5.1983  -5.1959  -5.1892  -5.1835  -5.1789  -5.1747
    -5.1693  -5.1659  -5.1599  -5.1488  -5.1462  -5.1368  -5.1227  -5.1190
    -5.1141  -5.0940  -5.0907  -5.0727  -5.0537  -5.0402  -5.0376  -5.0236
    -5.0166  -5.0138  -5.0091  -4.9944  -4.9867  -4.9832  -4.9796  -4.9777
    -4.9571  -4.9415  -4.9162  -4.9108  -4.9006  -4.8972  -4.8915  -4.8854
    -4.8691  -4.8675  -4.8541  -4.8503  -4.8440  -4.8343  -4.8119  -4.7728
    -4.7537  -4.7161  -4.7023  -4.6803  -4.6288  -4.4838  -4.4679  -4.4617
    -4.4456  -4.4307  -4.4176  -4.4035  -4.3914  -4.3770  -4.3382  -4.3122
    -4.3039  -4.2913  -4.2792  -4.2731  -4.2601  -4.2514  -4.2335  -4.2220
    -4.1877  -4.1797  -4.1650  -4.1258  -4.0969  -4.0754  -4.0667  -4.0066
    -3.9173  -3.6948  -3.6584  -3.4530  -3.4217  -3.2786  -3.2346  -3.1092
    -2.9732  -2.9675  -2.8530  -2.7945  -2.7385  -2.6577  -2.5961  -2.5048
    -2.3292  -2.2813  -2.1902

          k = 0.0000-0.5303 0.0000 (128388 PWs)   bands (ev):

   -92.2980 -92.2958 -92.2956 -92.2942 -92.2867 -92.2822 -92.2815 -92.2805
   -92.2796 -92.2778 -92.2772 -92.2747 -92.2704 -92.2690 -92.2653 -92.2630
   -92.2611 -92.2600 -92.2576 -92.2573 -92.2547 -92.2535 -92.2530 -92.2520
   -92.2502 -92.2496 -92.2453 -92.2446 -92.2435 -92.2432 -92.2371 -92.2318
   -92.2236 -92.1619 -92.1574 -92.1462 -92.1455 -92.1396 -92.1385 -92.1317
   -92.1311 -92.1274 -92.1253 -92.1216 -92.1208 -92.1193 -92.1173 -92.1161
   -92.1152 -92.1148 -92.1146 -92.1093 -92.1067 -92.1058 -92.1046 -92.1020
   -92.1003 -92.0943 -92.0914 -92.0814 -92.0790 -92.0766 -92.0714 -92.0696
   -58.5093 -58.4976 -58.4885 -58.4849 -58.4830 -58.4783 -58.4719 -58.4698
   -58.4686 -58.4654 -58.4633 -58.4631 -58.4610 -58.4591 -58.4569 -58.4562
   -58.4545 -58.4528 -58.4515 -58.4500 -58.4474 -58.4468 -58.4439 -58.4434
   -58.4396 -58.4384 -58.4360 -58.4326 -58.4309 -58.4301 -58.4244 -58.4177
   -58.4074 -58.4032 -58.4012 -58.4011 -58.3981 -58.3973 -58.3973 -58.3952
   -58.3837 -58.3817 -58.3716 -58.3679 -58.3657 -58.3621 -58.3569 -58.3563
   -58.3508 -58.3457 -58.3418 -58.3406 -58.3356 -58.3310 -58.3271 -58.3248
   -58.3208 -58.3124 -58.3064 -58.3048 -58.3028 -58.2986 -58.2982 -58.2974
   -58.2930 -58.2921 -58.2918 -58.2900 -58.2877 -58.2831 -58.2819 -58.2810
   -58.2770 -58.2757 -58.2746 -58.2733 -58.2714 -58.2699 -58.2651 -58.2629
   -58.2611 -58.2607 -58.2577 -58.2570 -58.2529 -58.2523 -58.2498 -58.2481
   -58.2454 -58.2404 -58.2294 -58.2257 -58.2215 -58.2196 -58.2189 -58.2149
   -58.2120 -58.2120 -58.2099 -58.2047 -58.2028 -58.1991 -58.1969 -58.1929
   -58.1907 -58.1893 -58.1868 -58.1854 -58.1836 -58.1829 -58.1824 -58.1817
   -58.1812 -58.1797 -58.1791 -58.1755 -58.1731 -58.1715 -58.1712 -58.1680
   -58.1672 -58.1656 -58.1654 -58.1615 -58.1610 -58.1600 -58.1570 -58.1546
   -58.1514 -58.1464 -58.1436 -58.1424 -58.1407 -58.1407 -58.1349 -58.1344
   -58.1330 -58.1313 -58.1298 -58.1235 -58.1198 -58.1197 -58.1172 -58.1162
   -58.1145 -58.1127 -58.1093 -58.1085 -58.1064 -58.1060 -58.1031 -58.1017
   -58.0975 -58.0972 -58.0958 -58.0889 -58.0867 -58.0852 -58.0841 -58.0798
   -58.0759 -58.0717 -58.0702 -58.0652 -58.0641 -58.0569 -58.0527 -58.0495
   -58.0491 -58.0451 -58.0448 -58.0447 -58.0433 -58.0413 -58.0405 -58.0395
   -58.0394 -58.0372 -58.0364 -58.0355 -58.0308 -58.0298 -58.0291 -58.0280
   -58.0261 -58.0253 -58.0194 -58.0154 -58.0153 -58.0141 -58.0099 -58.0089
   -21.5137 -12.7065 -11.6992 -11.6131 -11.1673 -10.4968 -10.4797 -10.4143
   -10.2219  -9.6210  -9.5930  -9.4512  -9.3865  -9.1344  -9.0881  -9.0686
    -8.9869  -8.9843  -8.9265  -8.9220  -8.8175  -8.8009  -8.7765  -8.6652
    -8.6451  -8.6112  -8.5502  -8.5361  -8.5297  -8.5268  -8.5185  -8.4899
    -8.4898  -8.4824  -8.4662  -8.4645  -8.3879  -8.3828  -8.3131  -8.3122
    -8.2520  -8.2255  -8.1684  -8.1670  -8.1661  -8.1593  -8.0985  -8.0836
    -8.0801  -8.0741  -8.0616  -8.0574  -8.0560  -8.0389  -8.0336  -8.0307
    -8.0043  -7.9800  -7.9217  -7.9086  -7.8982  -7.8966  -7.8833  -7.8831
    -7.8377  -7.8257  -7.7940  -7.7729  -7.7235  -7.7153  -7.6746  -7.6738
    -7.6143  -7.5613  -7.4760  -7.4588  -7.4223  -7.4220  -7.4068  -7.3972
    -7.3864  -7.3850  -7.3733  -7.3677  -7.3574  -7.3479  -7.3448  -7.3415
    -7.3275  -7.3220  -7.3199  -7.3143  -7.3104  -7.3022  -7.2974  -7.2908
    -7.2578  -7.2567  -7.2097  -7.2073  -7.1840  -7.1808  -7.1683  -7.1655
    -7.1457  -7.1350  -7.1310  -7.1297  -7.1231  -7.1156  -7.1088  -7.1076
    -7.1041  -7.1006  -7.0938  -7.0897  -7.0585  -7.0500  -7.0472  -7.0360
    -7.0173  -6.9960  -6.9097  -6.8869  -6.8570  -6.8394  -6.8025  -6.8015
    -6.7929  -6.7924  -6.7867  -6.7818  -6.7735  -6.7728  -6.7692  -6.7653
    -6.7552  -6.7479  -6.7431  -6.7349  -6.7346  -6.7305  -6.7081  -6.7068
    -6.6978  -6.6918  -6.6774  -6.6718  -6.6373  -6.6319  -6.6276  -6.6203
    -6.6040  -6.6020  -6.5713  -6.5695  -6.5658  -6.5532  -6.5380  -6.5284
    -6.5000  -6.4905  -6.4753  -6.4536  -6.4388  -6.4342  -6.4214  -6.3264
    -6.3084  -6.3055  -6.2882  -6.2849  -6.2849  -6.2706  -6.2582  -6.2552
    -6.2335  -6.2261  -6.1922  -6.1848  -6.1194  -6.0485  -5.9909  -5.9800
    -5.9753  -5.9692  -5.9430  -5.9379  -5.9329  -5.9290  -5.9009  -5.8704
    -5.8365  -5.8321  -5.8267  -5.8058  -5.8026  -5.8021  -5.7968  -5.7907
    -5.7787  -5.7763  -5.7634  -5.7614  -5.7535  -5.7496  -5.7176  -5.6645
    -5.6580  -5.6480  -5.6468  -5.6159  -5.6149  -5.6031  -5.5963  -5.5923
    -5.5711  -5.5574  -5.5239  -5.5070  -5.4960  -5.4925  -5.4852  -5.4850
    -5.4774  -5.4714  -5.4685  -5.4638  -5.4607  -5.4549  -5.4522  -5.4482
    -5.4386  -5.4347  -5.4345  -5.4270  -5.4181  -5.4071  -5.3709  -5.3648
    -5.3536  -5.3395  -5.3114  -5.3112  -5.3110  -5.3021  -5.2992  -5.2892
    -5.2858  -5.2782  -5.2749  -5.2713  -5.2648  -5.2644  -5.2611  -5.2598
    -5.2529  -5.2459  -5.2448  -5.2289  -5.2226  -5.2124  -5.2055  -5.1925
    -5.1907  -5.1850  -5.1772  -5.1681  -5.1415  -5.1387  -5.1229  -5.1218
    -5.1165  -5.1145  -5.0982  -5.0951  -5.0811  -5.0748  -5.0555  -5.0373
    -5.0326  -5.0319  -5.0306  -5.0292  -5.0254  -5.0195  -5.0177  -5.0108
    -5.0081  -5.0060  -4.9974  -4.9955  -4.9932  -4.9882  -4.9849  -4.9817
    -4.9783  -4.9698  -4.9305  -4.9287  -4.9170  -4.8872  -4.8486  -4.8461
    -4.7951  -4.7924  -4.7712  -4.7420  -4.7363  -4.7215  -4.7195  -4.6633
    -4.6129  -4.6051  -4.5910  -4.5841  -4.5789  -4.5671  -4.5204  -4.5183
    -4.5119  -4.5111  -4.4913  -4.4686  -4.4505  -4.4457  -4.4396  -4.4232
    -4.3708  -4.3589  -4.3433  -4.3199  -4.3008  -4.2977  -4.2722  -4.2550
    -4.2359  -4.2293  -4.2150  -4.2063  -4.2015  -4.1869  -4.1868  -4.1695
    -4.0705  -3.9206  -3.8357  -3.7977  -3.6437  -3.5163  -3.1933  -3.1736
    -2.9587  -2.9454  -2.5502  -2.5250  -2.4827  -2.4404  -2.4000  -2.3434
    -2.3319  -2.3120  -2.2957

          k = 0.2500-0.0884 0.0000 (128371 PWs)   bands (ev):

   -92.3000 -92.2993 -92.2913 -92.2903 -92.2867 -92.2834 -92.2822 -92.2810
   -92.2799 -92.2775 -92.2770 -92.2749 -92.2706 -92.2667 -92.2655 -92.2650
   -92.2610 -92.2599 -92.2586 -92.2578 -92.2551 -92.2536 -92.2521 -92.2518
   -92.2491 -92.2482 -92.2469 -92.2464 -92.2442 -92.2409 -92.2377 -92.2313
   -92.2236 -92.1640 -92.1538 -92.1469 -92.1445 -92.1417 -92.1372 -92.1355
   -92.1290 -92.1269 -92.1246 -92.1234 -92.1207 -92.1184 -92.1168 -92.1161
   -92.1155 -92.1146 -92.1128 -92.1093 -92.1082 -92.1070 -92.1052 -92.1025
   -92.0982 -92.0941 -92.0920 -92.0812 -92.0784 -92.0766 -92.0739 -92.0678
   -58.5115 -58.4959 -58.4905 -58.4858 -58.4783 -58.4771 -58.4719 -58.4700
   -58.4674 -58.4667 -58.4647 -58.4634 -58.4611 -58.4590 -58.4574 -58.4562
   -58.4558 -58.4547 -58.4518 -58.4495 -58.4484 -58.4450 -58.4444 -58.4432
   -58.4410 -58.4371 -58.4362 -58.4343 -58.4328 -58.4281 -58.4257 -58.4177
   -58.4163 -58.4121 -58.4082 -58.4053 -58.4026 -58.3979 -58.3949 -58.3887
   -58.3863 -58.3846 -58.3825 -58.3777 -58.3729 -58.3696 -58.3529 -58.3477
   -58.3407 -58.3333 -58.3302 -58.3271 -58.3255 -58.3240 -58.3225 -58.3152
   -58.3120 -58.3082 -58.3059 -58.3034 -58.3023 -58.3008 -58.2997 -58.2987
   -58.2971 -58.2942 -58.2935 -58.2911 -58.2902 -58.2862 -58.2832 -58.2813
   -58.2788 -58.2782 -58.2752 -58.2736 -58.2726 -58.2652 -58.2642 -58.2597
   -58.2576 -58.2534 -58.2496 -58.2483 -58.2467 -58.2456 -58.2404 -58.2366
   -58.2327 -58.2302 -58.2278 -58.2254 -58.2242 -58.2222 -58.2207 -58.2189
   -58.2173 -58.2139 -58.2123 -58.2093 -58.2087 -58.2051 -58.2039 -58.2013
   -58.1958 -58.1948 -58.1941 -58.1896 -58.1889 -58.1876 -58.1863 -58.1839
   -58.1825 -58.1818 -58.1799 -58.1783 -58.1755 -58.1739 -58.1717 -58.1701
   -58.1690 -58.1648 -58.1629 -58.1614 -58.1568 -58.1546 -58.1531 -58.1509
   -58.1490 -58.1483 -58.1473 -58.1422 -58.1401 -58.1390 -58.1371 -58.1354
   -58.1345 -58.1313 -58.1298 -58.1263 -58.1257 -58.1246 -58.1225 -58.1198
   -58.1161 -58.1146 -58.1117 -58.1114 -58.1083 -58.1059 -58.1050 -58.1016
   -58.0944 -58.0935 -58.0907 -58.0888 -58.0871 -58.0857 -58.0850 -58.0824
   -58.0791 -58.0761 -58.0718 -58.0665 -58.0648 -58.0636 -58.0606 -58.0589
   -58.0523 -58.0512 -58.0496 -58.0485 -58.0463 -58.0438 -58.0423 -58.0355
   -58.0351 -58.0286 -58.0279 -58.0264 -58.0245 -58.0240 -58.0235 -58.0222
   -58.0207 -58.0180 -58.0176 -58.0147 -58.0137 -58.0124 -58.0099 -58.0079
   -21.5137 -12.7060 -11.9845 -11.2994 -11.0241 -10.6256 -10.4989 -10.2537
   -10.0694  -9.8929  -9.6763  -9.5020  -9.4443  -9.3030  -9.2121  -9.1761
    -9.0738  -9.0228  -8.8902  -8.8289  -8.8001  -8.7278  -8.7039  -8.6801
    -8.6706  -8.6428  -8.6183  -8.6017  -8.5895  -8.4706  -8.3937  -8.3501
    -8.3367  -8.3297  -8.3061  -8.3028  -8.2852  -8.2810  -8.2701  -8.2660
    -8.2339  -8.2315  -8.2133  -8.2013  -8.1892  -8.1727  -8.1607  -8.1526
    -8.1311  -8.1152  -8.1073  -8.0952  -8.0562  -8.0472  -8.0341  -8.0177
    -8.0107  -8.0074  -7.9992  -7.9641  -7.9515  -7.8758  -7.8444  -7.8342
    -7.8299  -7.7953  -7.7870  -7.7004  -7.6597  -7.6366  -7.5971  -7.5622
    -7.5391  -7.5330  -7.4916  -7.4443  -7.4339  -7.4314  -7.4205  -7.4020
    -7.3970  -7.3815  -7.3764  -7.3735  -7.3702  -7.3661  -7.3585  -7.3487
    -7.3425  -7.3338  -7.3277  -7.3166  -7.3106  -7.3021  -7.2935  -7.2865
    -7.2793  -7.2752  -7.2718  -7.2690  -7.2644  -7.2567  -7.2513  -7.2316
    -7.2041  -7.1947  -7.1751  -7.1726  -7.1651  -7.1447  -7.1397  -7.1324
    -7.1271  -7.1116  -7.1026  -7.0806  -7.0286  -7.0067  -6.9938  -6.9764
    -6.9351  -6.9277  -6.9165  -6.9109  -6.8949  -6.8371  -6.8319  -6.8220
    -6.8137  -6.8056  -6.8042  -6.7906  -6.7835  -6.7776  -6.7743  -6.7681
    -6.7514  -6.7438  -6.7275  -6.7217  -6.7162  -6.6862  -6.6773  -6.6700
    -6.6661  -6.6298  -6.6184  -6.5889  -6.5802  -6.5740  -6.5593  -6.5488
    -6.5386  -6.5312  -6.5299  -6.5154  -6.5097  -6.5067  -6.4939  -6.4799
    -6.4777  -6.4755  -6.4657  -6.4591  -6.4432  -6.4204  -6.4043  -6.3738
    -6.3533  -6.3471  -6.3272  -6.3209  -6.3103  -6.2939  -6.2854  -6.2715
    -6.2661  -6.2510  -6.2286  -6.2235  -6.2075  -6.1714  -6.1600  -6.1454
    -6.1295  -6.1011  -6.0639  -6.0555  -6.0462  -6.0235  -5.9558  -5.8818
    -5.8569  -5.8509  -5.8160  -5.7999  -5.7912  -5.7664  -5.7497  -5.7408
    -5.7221  -5.7136  -5.7084  -5.6908  -5.6867  -5.6823  -5.6647  -5.6627
    -5.6501  -5.6370  -5.6261  -5.6071  -5.5998  -5.5757  -5.5563  -5.5504
    -5.5440  -5.5263  -5.5165  -5.5102  -5.4998  -5.4976  -5.4867  -5.4830
    -5.4796  -5.4700  -5.4613  -5.4536  -5.4468  -5.4351  -5.4202  -5.4036
    -5.3978  -5.3888  -5.3803  -5.3721  -5.3674  -5.3603  -5.3588  -5.3528
    -5.3441  -5.3390  -5.3351  -5.3311  -5.3216  -5.3136  -5.3122  -5.3035
    -5.2998  -5.2901  -5.2853  -5.2784  -5.2743  -5.2598  -5.2559  -5.2543
    -5.2516  -5.2440  -5.2410  -5.2393  -5.2349  -5.2320  -5.2254  -5.2173
    -5.2105  -5.2074  -5.1984  -5.1959  -5.1892  -5.1836  -5.1789  -5.1747
    -5.1693  -5.1659  -5.1599  -5.1488  -5.1462  -5.1368  -5.1227  -5.1190
    -5.1141  -5.0940  -5.0907  -5.0727  -5.0537  -5.0402  -5.0376  -5.0236
    -5.0166  -5.0138  -5.0091  -4.9944  -4.9868  -4.9832  -4.9796  -4.9777
    -4.9571  -4.9415  -4.9162  -4.9108  -4.9006  -4.8972  -4.8915  -4.8855
    -4.8691  -4.8675  -4.8542  -4.8503  -4.8440  -4.8343  -4.8119  -4.7728
    -4.7537  -4.7161  -4.7023  -4.6803  -4.6288  -4.4838  -4.4679  -4.4617
    -4.4456  -4.4307  -4.4176  -4.4035  -4.3914  -4.3770  -4.3382  -4.3122
    -4.3039  -4.2913  -4.2792  -4.2731  -4.2601  -4.2514  -4.2335  -4.2220
    -4.1877  -4.1796  -4.1650  -4.1258  -4.0969  -4.0755  -4.0667  -4.0066
    -3.9173  -3.6948  -3.6584  -3.4531  -3.4217  -3.2787  -3.2346  -3.1092
    -2.9732  -2.9675  -2.8530  -2.7945  -2.7385  -2.6577  -2.5961  -2.5048
    -2.3293  -2.2812  -2.1898

          k = 0.2500 0.1768 0.0000 (128340 PWs)   bands (ev):

   -92.2993 -92.2984 -92.2906 -92.2895 -92.2887 -92.2857 -92.2831 -92.2826
   -92.2797 -92.2782 -92.2765 -92.2746 -92.2663 -92.2655 -92.2654 -92.2642
   -92.2615 -92.2608 -92.2600 -92.2575 -92.2570 -92.2528 -92.2518 -92.2506
   -92.2495 -92.2488 -92.2481 -92.2459 -92.2422 -92.2421 -92.2374 -92.2318
   -92.2236 -92.1632 -92.1527 -92.1499 -92.1460 -92.1398 -92.1392 -92.1340
   -92.1283 -92.1246 -92.1242 -92.1219 -92.1216 -92.1197 -92.1162 -92.1154
   -92.1152 -92.1150 -92.1144 -92.1098 -92.1088 -92.1083 -92.1042 -92.1036
   -92.0961 -92.0954 -92.0913 -92.0804 -92.0793 -92.0750 -92.0748 -92.0684
   -58.5107 -58.4962 -58.4891 -58.4857 -58.4801 -58.4761 -58.4719 -58.4718
   -58.4686 -58.4652 -58.4643 -58.4624 -58.4603 -58.4584 -58.4581 -58.4571
   -58.4558 -58.4520 -58.4512 -58.4492 -58.4484 -58.4477 -58.4462 -58.4455
   -58.4389 -58.4373 -58.4356 -58.4327 -58.4327 -58.4282 -58.4247 -58.4172
   -58.4103 -58.4066 -58.4042 -58.4000 -58.3987 -58.3975 -58.3839 -58.3825
   -58.3799 -58.3798 -58.3771 -58.3766 -58.3743 -58.3737 -58.3551 -58.3439
   -58.3424 -58.3394 -58.3379 -58.3349 -58.3345 -58.3305 -58.3282 -58.3230
   -58.3202 -58.3179 -58.3166 -58.3143 -58.3125 -58.3017 -58.2995 -58.2975
   -58.2972 -58.2939 -58.2926 -58.2915 -58.2909 -58.2904 -58.2850 -58.2840
   -58.2810 -58.2805 -58.2765 -58.2752 -58.2674 -58.2656 -58.2634 -58.2596
   -58.2569 -58.2555 -58.2504 -58.2467 -58.2449 -58.2430 -58.2395 -58.2384
   -58.2378 -58.2349 -58.2293 -58.2267 -58.2245 -58.2216 -58.2184 -58.2154
   -58.2125 -58.2091 -58.2080 -58.2044 -58.2021 -58.2017 -58.2011 -58.1998
   -58.1989 -58.1985 -58.1962 -58.1953 -58.1930 -58.1918 -58.1883 -58.1847
   -58.1835 -58.1821 -58.1766 -58.1750 -58.1734 -58.1695 -58.1686 -58.1671
   -58.1660 -58.1646 -58.1603 -58.1603 -58.1584 -58.1549 -58.1537 -58.1524
   -58.1495 -58.1450 -58.1437 -58.1385 -58.1369 -58.1369 -58.1335 -58.1331
   -58.1296 -58.1291 -58.1276 -58.1212 -58.1206 -58.1184 -58.1176 -58.1176
   -58.1146 -58.1141 -58.1125 -58.1111 -58.1104 -58.1078 -58.1068 -58.1008
   -58.0992 -58.0972 -58.0919 -58.0863 -58.0851 -58.0848 -58.0806 -58.0784
   -58.0734 -58.0683 -58.0680 -58.0666 -58.0661 -58.0610 -58.0584 -58.0572
   -58.0552 -58.0504 -58.0490 -58.0480 -58.0469 -58.0442 -58.0431 -58.0375
   -58.0352 -58.0303 -58.0290 -58.0284 -58.0269 -58.0263 -58.0259 -58.0247
   -58.0234 -58.0228 -58.0206 -58.0197 -58.0183 -58.0151 -58.0139 -58.0107
   -21.5137 -12.7067 -11.9459 -11.2760 -10.7746 -10.7607 -10.7333 -10.5145
    -9.8311  -9.8038  -9.6923  -9.6463  -9.5513  -9.2594  -9.1680  -9.1134
    -9.0162  -8.8685  -8.8069  -8.7300  -8.7275  -8.7272  -8.6852  -8.6549
    -8.6159  -8.6052  -8.6046  -8.5858  -8.5056  -8.5009  -8.4733  -8.4549
    -8.3807  -8.3663  -8.3520  -8.3347  -8.2906  -8.2790  -8.2645  -8.2473
    -8.2306  -8.2191  -8.2111  -8.2107  -8.2024  -8.2010  -8.1989  -8.1973
    -8.1845  -8.1519  -8.1451  -8.1210  -8.1094  -8.0880  -8.0718  -8.0355
    -8.0234  -8.0084  -7.9805  -7.9524  -7.8634  -7.8548  -7.8205  -7.7969
    -7.7512  -7.7394  -7.7384  -7.7295  -7.7212  -7.6985  -7.6739  -7.5705
    -7.5530  -7.5246  -7.5037  -7.4630  -7.4477  -7.4363  -7.4356  -7.4324
    -7.4284  -7.4210  -7.4193  -7.4178  -7.4122  -7.3986  -7.3977  -7.3964
    -7.3889  -7.3845  -7.3422  -7.3382  -7.2943  -7.2936  -7.2838  -7.2679
    -7.2586  -7.2282  -7.2232  -7.2199  -7.2161  -7.2090  -7.2051  -7.1899
    -7.1894  -7.1741  -7.1635  -7.1420  -7.1209  -7.1144  -7.0803  -7.0711
    -7.0610  -7.0546  -7.0417  -7.0273  -7.0161  -7.0135  -7.0011  -6.9950
    -6.9898  -6.9867  -6.9831  -6.9793  -6.9613  -6.9027  -6.8953  -6.8885
    -6.8823  -6.8214  -6.8147  -6.8079  -6.8066  -6.7927  -6.7909  -6.7801
    -6.7633  -6.7463  -6.7213  -6.7175  -6.7143  -6.7142  -6.6891  -6.6840
    -6.6568  -6.6547  -6.6512  -6.6408  -6.6346  -6.6290  -6.6094  -6.5736
    -6.5531  -6.5416  -6.5307  -6.5287  -6.5116  -6.5091  -6.5035  -6.4781
    -6.4616  -6.4303  -6.4125  -6.4032  -6.4015  -6.3964  -6.3929  -6.3873
    -6.3795  -6.3752  -6.3707  -6.3688  -6.3583  -6.3582  -6.3550  -6.3528
    -6.3183  -6.3031  -6.2574  -6.2444  -6.2244  -6.1044  -6.0787  -6.0714
    -6.0489  -6.0305  -6.0254  -6.0094  -5.9609  -5.9100  -5.9068  -5.8734
    -5.8636  -5.8359  -5.8095  -5.8057  -5.8031  -5.7837  -5.7576  -5.7523
    -5.7218  -5.7151  -5.7085  -5.7076  -5.6901  -5.6776  -5.6636  -5.6373
    -5.6330  -5.6266  -5.6134  -5.6030  -5.6010  -5.5883  -5.5857  -5.5648
    -5.5587  -5.5501  -5.5474  -5.5399  -5.5198  -5.4956  -5.4942  -5.4698
    -5.4698  -5.4572  -5.4445  -5.4435  -5.4318  -5.4281  -5.4251  -5.4169
    -5.4107  -5.4072  -5.3922  -5.3677  -5.3619  -5.3559  -5.3487  -5.3484
    -5.3446  -5.3373  -5.3326  -5.3311  -5.3188  -5.3126  -5.2901  -5.2864
    -5.2829  -5.2791  -5.2662  -5.2640  -5.2519  -5.2452  -5.2399  -5.2216
    -5.2155  -5.2148  -5.2122  -5.2011  -5.1937  -5.1926  -5.1830  -5.1819
    -5.1758  -5.1552  -5.1430  -5.1407  -5.1364  -5.1321  -5.1289  -5.1285
    -5.1223  -5.1211  -5.1157  -5.1121  -5.1061  -5.0968  -5.0870  -5.0847
    -5.0757  -5.0637  -5.0520  -5.0459  -5.0443  -5.0389  -5.0363  -5.0355
    -5.0294  -5.0252  -5.0134  -5.0020  -5.0008  -4.9830  -4.9816  -4.9661
    -4.9649  -4.9486  -4.9315  -4.9281  -4.9127  -4.8823  -4.8802  -4.8564
    -4.8511  -4.8374  -4.8218  -4.8164  -4.8042  -4.7993  -4.7461  -4.7316
    -4.7303  -4.7064  -4.6858  -4.6838  -4.6437  -4.5379  -4.5188  -4.4695
    -4.4393  -4.4243  -4.4191  -4.3660  -4.3502  -4.3183  -4.3028  -4.2972
    -4.2702  -4.2634  -4.2579  -4.2554  -4.2491  -4.2458  -4.2349  -4.2131
    -4.1690  -4.1470  -4.0752  -4.0624  -4.0213  -4.0174  -3.9538  -3.8541
    -3.8486  -3.7178  -3.6532  -3.5773  -3.4253  -3.3214  -3.2807  -3.2700
    -3.2310  -3.1563  -3.1526  -3.1110  -3.1015  -3.0781  -2.9751  -2.8137
    -2.6882  -2.5056  -2.4983

          k = 0.2500-0.6187 0.0000 (128424 PWs)   bands (ev):

   -92.2971 -92.2952 -92.2938 -92.2935 -92.2889 -92.2868 -92.2833 -92.2830
   -92.2791 -92.2774 -92.2740 -92.2710 -92.2694 -92.2674 -92.2652 -92.2649
   -92.2620 -92.2608 -92.2588 -92.2587 -92.2543 -92.2530 -92.2525 -92.2510
   -92.2498 -92.2482 -92.2472 -92.2451 -92.2433 -92.2420 -92.2376 -92.2322
   -92.2236 -92.1609 -92.1562 -92.1514 -92.1452 -92.1398 -92.1356 -92.1339
   -92.1277 -92.1263 -92.1249 -92.1230 -92.1213 -92.1197 -92.1172 -92.1164
   -92.1157 -92.1144 -92.1135 -92.1088 -92.1073 -92.1066 -92.1058 -92.1041
   -92.0977 -92.0945 -92.0913 -92.0806 -92.0798 -92.0751 -92.0721 -92.0702
   -58.5082 -58.4976 -58.4886 -58.4845 -58.4812 -58.4801 -58.4755 -58.4687
   -58.4672 -58.4657 -58.4622 -58.4620 -58.4603 -58.4581 -58.4567 -58.4562
   -58.4544 -58.4537 -58.4526 -58.4502 -58.4492 -58.4479 -58.4444 -58.4426
   -58.4400 -58.4368 -58.4348 -58.4346 -58.4302 -58.4290 -58.4236 -58.4173
   -58.4016 -58.3955 -58.3948 -58.3934 -58.3925 -58.3904 -58.3900 -58.3834
   -58.3831 -58.3780 -58.3727 -58.3716 -58.3664 -58.3603 -58.3587 -58.3571
   -58.3535 -58.3527 -58.3512 -58.3472 -58.3425 -58.3364 -58.3334 -58.3291
   -58.3251 -58.3211 -58.3173 -58.3110 -58.3071 -58.3058 -58.3052 -58.3019
   -58.2997 -58.2950 -58.2943 -58.2899 -58.2876 -58.2848 -58.2814 -58.2796
   -58.2767 -58.2755 -58.2733 -58.2723 -58.2714 -58.2702 -58.2679 -58.2666
   -58.2609 -58.2591 -58.2574 -58.2553 -58.2545 -58.2479 -58.2457 -58.2428
   -58.2404 -58.2392 -58.2369 -58.2337 -58.2274 -58.2227 -58.2184 -58.2151
   -58.2125 -58.2081 -58.2060 -58.2040 -58.2002 -58.1972 -58.1955 -58.1934
   -58.1922 -58.1893 -58.1875 -58.1863 -58.1852 -58.1833 -58.1823 -58.1815
   -58.1796 -58.1776 -58.1753 -58.1729 -58.1718 -58.1704 -58.1681 -58.1650
   -58.1645 -58.1641 -58.1612 -58.1605 -58.1582 -58.1570 -58.1547 -58.1543
   -58.1524 -58.1480 -58.1419 -58.1415 -58.1380 -58.1362 -58.1349 -58.1322
   -58.1281 -58.1240 -58.1233 -58.1229 -58.1212 -58.1200 -58.1186 -58.1164
   -58.1146 -58.1118 -58.1101 -58.1094 -58.1084 -58.1063 -58.1025 -58.1003
   -58.0948 -58.0941 -58.0921 -58.0863 -58.0847 -58.0833 -58.0806 -58.0746
   -58.0727 -58.0678 -58.0668 -58.0631 -58.0606 -58.0553 -58.0518 -58.0503
   -58.0492 -58.0470 -58.0460 -58.0454 -58.0438 -58.0417 -58.0416 -58.0403
   -58.0393 -58.0383 -58.0373 -58.0360 -58.0351 -58.0335 -58.0300 -58.0292
   -58.0277 -58.0262 -58.0236 -58.0217 -58.0208 -58.0189 -58.0161 -58.0126
   -21.5137 -12.7071 -11.6991 -11.4258 -11.1999 -10.9677 -10.3760 -10.2791
   -10.1105  -9.8544  -9.7891  -9.2771  -9.1675  -9.0877  -9.0333  -9.0129
    -8.9764  -8.9148  -8.8887  -8.8612  -8.7833  -8.7468  -8.7053  -8.6954
    -8.6757  -8.6291  -8.6098  -8.5662  -8.5534  -8.5283  -8.5133  -8.5077
    -8.4996  -8.4670  -8.4311  -8.4008  -8.3910  -8.3767  -8.3689  -8.3467
    -8.3131  -8.2938  -8.2706  -8.2607  -8.2429  -8.2073  -8.1901  -8.1291
    -8.1275  -8.0963  -8.0766  -8.0594  -8.0314  -8.0026  -7.9882  -7.9510
    -7.9338  -7.9259  -7.9140  -7.8957  -7.8736  -7.8658  -7.8451  -7.8254
    -7.8166  -7.7848  -7.7675  -7.7511  -7.7326  -7.7220  -7.7098  -7.6936
    -7.6298  -7.6187  -7.5755  -7.5357  -7.4683  -7.4589  -7.4487  -7.4340
    -7.4308  -7.4209  -7.4164  -7.4079  -7.3852  -7.3704  -7.3313  -7.3289
    -7.3002  -7.2890  -7.2847  -7.2774  -7.2584  -7.2456  -7.2231  -7.2218
    -7.2182  -7.2069  -7.2051  -7.2013  -7.1979  -7.1966  -7.1850  -7.1682
    -7.1649  -7.1480  -7.1323  -7.1277  -7.1169  -7.1028  -7.0881  -7.0807
    -7.0746  -7.0674  -7.0514  -7.0446  -7.0363  -7.0192  -6.9951  -6.9797
    -6.9761  -6.9640  -6.9611  -6.9499  -6.9409  -6.9361  -6.9278  -6.9152
    -6.9077  -6.8964  -6.8910  -6.8856  -6.8805  -6.8643  -6.8562  -6.8428
    -6.8187  -6.8145  -6.7832  -6.7709  -6.7577  -6.6833  -6.6601  -6.6568
    -6.6479  -6.6435  -6.6300  -6.6155  -6.6121  -6.6079  -6.6049  -6.5981
    -6.5835  -6.5773  -6.5643  -6.5608  -6.5571  -6.5471  -6.5456  -6.5095
    -6.5065  -6.4913  -6.4802  -6.4735  -6.4693  -6.4421  -6.3968  -6.3684
    -6.3480  -6.3315  -6.3052  -6.2994  -6.2794  -6.2526  -6.2325  -6.2264
    -6.1805  -6.1404  -6.1304  -6.0992  -6.0855  -6.0695  -6.0465  -6.0260
    -5.9992  -5.9709  -5.9613  -5.9499  -5.9331  -5.9027  -5.8882  -5.8822
    -5.8732  -5.8568  -5.8490  -5.8451  -5.8362  -5.8251  -5.8081  -5.7867
    -5.7573  -5.7492  -5.7197  -5.7167  -5.7039  -5.6857  -5.6809  -5.6609
    -5.6509  -5.6417  -5.6297  -5.6189  -5.6054  -5.6014  -5.5975  -5.5880
    -5.5729  -5.5565  -5.5416  -5.5369  -5.5259  -5.5160  -5.4964  -5.4878
    -5.4779  -5.4764  -5.4717  -5.4638  -5.4576  -5.4502  -5.4383  -5.4363
    -5.4241  -5.4204  -5.4068  -5.3958  -5.3812  -5.3747  -5.3558  -5.3478
    -5.3383  -5.3244  -5.3196  -5.3129  -5.3075  -5.3049  -5.2936  -5.2865
    -5.2832  -5.2766  -5.2729  -5.2514  -5.2473  -5.2395  -5.2325  -5.2299
    -5.2224  -5.2178  -5.2065  -5.1938  -5.1868  -5.1803  -5.1764  -5.1719
    -5.1664  -5.1562  -5.1455  -5.1433  -5.1400  -5.1335  -5.1270  -5.1130
    -5.1099  -5.1028  -5.0913  -5.0805  -5.0781  -5.0769  -5.0702  -5.0688
    -5.0586  -5.0532  -5.0469  -5.0326  -5.0301  -5.0239  -5.0198  -5.0194
    -4.9983  -4.9851  -4.9719  -4.9664  -4.9575  -4.9422  -4.9366  -4.9170
    -4.9117  -4.8998  -4.8795  -4.8681  -4.8323  -4.8185  -4.8043  -4.7811
    -4.7632  -4.7480  -4.7435  -4.7117  -4.6943  -4.6791  -4.6607  -4.6280
    -4.6181  -4.6085  -4.6010  -4.5899  -4.5517  -4.5354  -4.5225  -4.5138
    -4.4923  -4.4699  -4.4561  -4.4400  -4.4272  -4.4047  -4.3919  -4.3857
    -4.3606  -4.3596  -4.3112  -4.3043  -4.2983  -4.2842  -4.2784  -4.2628
    -4.2602  -4.2373  -4.2145  -4.2016  -4.1796  -4.1554  -4.1487  -4.0864
    -4.0111  -3.8959  -3.8375  -3.6677  -3.6425  -3.5445  -3.5094  -3.3704
    -3.3270  -3.2352  -3.1881  -3.0385  -2.8654  -2.8113  -2.6215  -2.5604
    -2.4786  -2.4115  -2.3525

          k = 0.2500-0.3536 0.0000 (128397 PWs)   bands (ev):

   -92.2986 -92.2977 -92.2923 -92.2911 -92.2889 -92.2883 -92.2815 -92.2805
   -92.2782 -92.2768 -92.2736 -92.2733 -92.2701 -92.2698 -92.2663 -92.2655
   -92.2624 -92.2588 -92.2577 -92.2573 -92.2559 -92.2535 -92.2522 -92.2498
   -92.2494 -92.2487 -92.2471 -92.2463 -92.2435 -92.2413 -92.2381 -92.2316
   -92.2236 -92.1624 -92.1547 -92.1520 -92.1418 -92.1390 -92.1381 -92.1323
   -92.1305 -92.1282 -92.1253 -92.1227 -92.1218 -92.1186 -92.1174 -92.1167
   -92.1155 -92.1143 -92.1123 -92.1087 -92.1071 -92.1065 -92.1047 -92.1021
   -92.1007 -92.0937 -92.0919 -92.0813 -92.0794 -92.0752 -92.0730 -92.0690
   -58.5094 -58.4964 -58.4907 -58.4853 -58.4797 -58.4783 -58.4766 -58.4692
   -58.4666 -58.4634 -58.4633 -58.4626 -58.4609 -58.4589 -58.4573 -58.4573
   -58.4544 -58.4534 -58.4520 -58.4514 -58.4482 -58.4479 -58.4423 -58.4400
   -58.4385 -58.4378 -58.4374 -58.4360 -58.4314 -58.4282 -58.4244 -58.4173
   -58.4100 -58.4055 -58.4045 -58.3998 -58.3953 -58.3905 -58.3902 -58.3897
   -58.3855 -58.3854 -58.3779 -58.3763 -58.3746 -58.3727 -58.3602 -58.3506
   -58.3412 -58.3396 -58.3352 -58.3313 -58.3263 -58.3253 -58.3192 -58.3174
   -58.3157 -58.3152 -58.3129 -58.3107 -58.3062 -58.3059 -58.3037 -58.3011
   -58.3005 -58.2993 -58.2985 -58.2930 -58.2919 -58.2916 -58.2870 -58.2859
   -58.2806 -58.2798 -58.2765 -58.2734 -58.2685 -58.2661 -58.2634 -58.2598
   -58.2577 -58.2544 -58.2513 -58.2502 -58.2453 -58.2428 -58.2423 -58.2396
   -58.2391 -58.2328 -58.2290 -58.2250 -58.2241 -58.2230 -58.2201 -58.2171
   -58.2167 -58.2140 -58.2125 -58.2093 -58.2066 -58.2026 -58.2006 -58.1977
   -58.1913 -58.1897 -58.1873 -58.1853 -58.1846 -58.1846 -58.1841 -58.1831
   -58.1820 -58.1805 -58.1798 -58.1780 -58.1755 -58.1747 -58.1727 -58.1692
   -58.1691 -58.1676 -58.1607 -58.1603 -58.1588 -58.1565 -58.1565 -58.1514
   -58.1502 -58.1480 -58.1464 -58.1424 -58.1371 -58.1350 -58.1338 -58.1330
   -58.1311 -58.1270 -58.1263 -58.1230 -58.1189 -58.1183 -58.1175 -58.1172
   -58.1120 -58.1112 -58.1085 -58.1080 -58.1071 -58.1066 -58.1039 -58.1015
   -58.0991 -58.0959 -58.0929 -58.0896 -58.0891 -58.0855 -58.0851 -58.0822
   -58.0800 -58.0729 -58.0680 -58.0661 -58.0628 -58.0625 -58.0565 -58.0558
   -58.0505 -58.0499 -58.0495 -58.0461 -58.0438 -58.0433 -58.0420 -58.0375
   -58.0362 -58.0308 -58.0300 -58.0284 -58.0280 -58.0270 -58.0251 -58.0241
   -58.0238 -58.0226 -58.0212 -58.0181 -58.0173 -58.0157 -58.0156 -58.0114
   -21.5137 -12.7065 -11.8034 -11.3588 -11.1756 -11.0068 -10.4613 -10.0127
    -9.9225  -9.6911  -9.6806  -9.6388  -9.4033  -9.3883  -9.1396  -9.0143
    -8.8326  -8.8289  -8.8238  -8.7954  -8.7822  -8.7677  -8.7520  -8.7404
    -8.7305  -8.7071  -8.6470  -8.5989  -8.5937  -8.5531  -8.5430  -8.5110
    -8.4846  -8.4148  -8.3876  -8.3602  -8.3515  -8.3288  -8.3181  -8.3040
    -8.2851  -8.2847  -8.2735  -8.2371  -8.2178  -8.1869  -8.1723  -8.1695
    -8.1237  -8.1139  -8.1109  -8.0723  -8.0507  -8.0064  -7.9754  -7.9311
    -7.9046  -7.8993  -7.8973  -7.8772  -7.8665  -7.8636  -7.8525  -7.8497
    -7.8467  -7.8035  -7.7944  -7.7709  -7.7343  -7.6771  -7.6405  -7.6325
    -7.5581  -7.5398  -7.5311  -7.4913  -7.4563  -7.4562  -7.4228  -7.4167
    -7.3914  -7.3914  -7.3872  -7.3744  -7.3665  -7.3561  -7.3492  -7.3441
    -7.3363  -7.3339  -7.3170  -7.3094  -7.3056  -7.2983  -7.2827  -7.2760
    -7.2654  -7.2473  -7.2275  -7.2112  -7.2063  -7.2054  -7.1899  -7.1832
    -7.1795  -7.1782  -7.1650  -7.1553  -7.1413  -7.1028  -7.0894  -7.0603
    -7.0555  -7.0446  -7.0408  -7.0335  -7.0267  -7.0190  -7.0182  -7.0124
    -7.0024  -6.9859  -6.9796  -6.9773  -6.9427  -6.9312  -6.9270  -6.8711
    -6.8707  -6.8391  -6.8347  -6.7743  -6.7714  -6.7609  -6.7401  -6.7251
    -6.7058  -6.7038  -6.7013  -6.6905  -6.6889  -6.6822  -6.6820  -6.6817
    -6.6787  -6.6724  -6.6716  -6.6632  -6.6490  -6.6477  -6.6428  -6.6286
    -6.6234  -6.6195  -6.6107  -6.5934  -6.5722  -6.5719  -6.5296  -6.5016
    -6.4821  -6.4820  -6.4788  -6.4335  -6.4175  -6.3822  -6.3706  -6.3500
    -6.3383  -6.3001  -6.2942  -6.2910  -6.2837  -6.2642  -6.2295  -6.2266
    -6.1787  -6.1125  -6.1062  -6.0994  -6.0943  -6.0755  -6.0446  -6.0362
    -5.9974  -5.9662  -5.9624  -5.9510  -5.9493  -5.9332  -5.9231  -5.9148
    -5.9082  -5.9062  -5.9041  -5.8918  -5.8603  -5.8272  -5.8138  -5.7693
    -5.7589  -5.7514  -5.7429  -5.7336  -5.6886  -5.6834  -5.6812  -5.6670
    -5.6593  -5.6525  -5.6488  -5.6345  -5.6239  -5.6140  -5.6137  -5.5765
    -5.5533  -5.5338  -5.5327  -5.5227  -5.5207  -5.5014  -5.4982  -5.4937
    -5.4651  -5.4561  -5.4446  -5.4375  -5.4221  -5.4207  -5.4141  -5.3994
    -5.3947  -5.3808  -5.3794  -5.3712  -5.3601  -5.3578  -5.3368  -5.3318
    -5.3254  -5.3248  -5.3154  -5.3100  -5.3057  -5.3040  -5.2973  -5.2894
    -5.2828  -5.2762  -5.2733  -5.2700  -5.2654  -5.2567  -5.2465  -5.2415
    -5.2395  -5.2370  -5.2284  -5.2267  -5.2208  -5.2152  -5.2083  -5.2031
    -5.1929  -5.1926  -5.1856  -5.1833  -5.1791  -5.1745  -5.1679  -5.1578
    -5.1578  -5.1519  -5.1491  -5.1319  -5.1250  -5.1150  -5.1009  -5.0955
    -5.0951  -5.0899  -5.0899  -5.0828  -5.0792  -5.0660  -5.0448  -5.0387
    -5.0385  -5.0244  -4.9965  -4.9959  -4.9763  -4.9690  -4.9644  -4.9580
    -4.9495  -4.9287  -4.9098  -4.8638  -4.8486  -4.8369  -4.8275  -4.8240
    -4.8054  -4.8020  -4.7951  -4.7793  -4.7760  -4.7563  -4.7548  -4.7475
    -4.6923  -4.6752  -4.6745  -4.6263  -4.6243  -4.6166  -4.6020  -4.5754
    -4.5120  -4.4815  -4.4307  -4.4273  -4.4030  -4.3920  -4.3760  -4.3755
    -4.3644  -4.3524  -4.3415  -4.3229  -4.3198  -4.3165  -4.3008  -4.2934
    -4.2897  -4.2675  -4.2653  -4.2553  -4.2365  -4.1248  -3.9717  -3.7963
    -3.7180  -3.6767  -3.5823  -3.4686  -3.4259  -3.4132  -3.3598  -3.3485
    -3.2383  -3.2192  -3.2130  -3.0124  -2.9037  -2.7479  -2.6523  -2.6278
[...]
    -1.3979  -1.3112  -1.2609  -1.2110  -1.1107  -1.0415  -0.9681  -0.8831
    -0.8374  -0.8004  -0.7602

          k =-0.5000-0.3536 0.0000 (128560 PWs)   bands (ev):

   -89.5619 -89.5587 -89.3523 -89.3513 -89.3111 -89.3020 -89.2923 -89.2906
   -89.2827 -89.2796 -89.2722 -89.2682 -89.2681 -89.2638 -89.2614 -89.2608
   -89.2606 -89.2582 -89.2529 -89.2497 -89.2485 -89.2472 -89.2454 -89.2440
   -89.2387 -89.2361 -89.2335 -89.2323 -89.2316 -89.2307 -89.2234 -89.2213
   -89.2165 -89.2151 -89.2114 -89.2016 -89.1974 -89.1954 -89.1935 -89.1929
   -89.1924 -89.1916 -89.1889 -89.1852 -89.1802 -89.1745 -89.1717 -89.1713
   -89.1711 -89.1709 -89.1699 -89.1684 -89.1681 -89.1672 -89.1662 -89.1654
   -89.1612 -89.1561 -89.1521 -89.1492 -89.1462 -89.1456 -89.1450 -89.1444
   -55.8882 -55.8716 -55.6773 -55.6697 -55.5894 -55.5864 -55.5746 -55.5738
   -55.5700 -55.5594 -55.5565 -55.5554 -55.5553 -55.5487 -55.5482 -55.5448
   -55.5430 -55.5429 -55.5390 -55.5381 -55.5347 -55.5321 -55.5311 -55.5283
   -55.5268 -55.5248 -55.5240 -55.5210 -55.5126 -55.5120 -55.4996 -55.4965
   -55.4962 -55.4925 -55.4897 -55.4869 -55.4859 -55.4807 -55.4719 -55.4691
   -55.4691 -55.4690 -55.4688 -55.4624 -55.4602 -55.4575 -55.4558 -55.4549
   -55.4546 -55.4532 -55.4492 -55.4468 -55.4464 -55.4453 -55.4413 -55.4410
   -55.4377 -55.4363 -55.4351 -55.4347 -55.4337 -55.4322 -55.4301 -55.4285
   -55.4171 -55.4059 -55.4056 -55.4024 -55.4019 -55.3964 -55.3956 -55.3824
   -55.3823 -55.3820 -55.3747 -55.3731 -55.3706 -55.3703 -55.3661 -55.3578
   -55.3558 -55.3541 -55.3503 -55.3483 -55.3448 -55.3447 -55.3423 -55.3415
   -55.3415 -55.3386 -55.3349 -55.3313 -55.3287 -55.3286 -55.3246 -55.3214
   -55.3205 -55.3170 -55.3160 -55.3111 -55.3067 -55.3009 -55.3001 -55.2995
   -55.2985 -55.2962 -55.2956 -55.2935 -55.2928 -55.2923 -55.2898 -55.2844
   -55.2835 -55.2814 -55.2802 -55.2791 -55.2784 -55.2740 -55.2723 -55.2714
   -55.2711 -55.2705 -55.2681 -55.2624 -55.2607 -55.2585 -55.2581 -55.2551
   -55.2539 -55.2522 -55.2521 -55.2453 -55.2409 -55.2381 -55.2377 -55.2358
   -55.2339 -55.2332 -55.2315 -55.2306 -55.2287 -55.2277 -55.2277 -55.2253
   -55.2247 -55.2229 -55.2209 -55.2201 -55.2192 -55.2178 -55.2162 -55.2142
   -55.2133 -55.2121 -55.2092 -55.2089 -55.2087 -55.2064 -55.2044 -55.2038
   -55.2037 -55.2032 -55.2024 -55.2011 -55.2009 -55.2007 -55.1999 -55.1991
   -55.1976 -55.1968 -55.1937 -55.1934 -55.1916 -55.1901 -55.1888 -55.1882
   -55.1870 -55.1863 -55.1859 -55.1846 -55.1812 -55.1797 -55.1797 -55.1772
   -55.1765 -55.1738 -55.1737 -55.1732 -55.1714 -55.1707 -55.1701 -55.1693
   -21.4740 -12.5500 -11.3608 -11.2514 -10.9170 -10.6756 -10.5692  -9.9487
    -9.8080  -9.4551  -9.3108  -8.7403  -8.6689  -8.6622  -8.6485  -8.3529
    -8.2469  -8.1601  -7.8230  -7.8145  -7.8134  -7.8023  -7.7895  -7.7762
    -7.6944  -7.6904  -7.6881  -7.6829  -7.6128  -7.5932  -7.2660  -7.2651
    -7.2533  -7.2496  -7.2239  -7.2041  -7.0405  -7.0225  -6.7919  -6.7861
    -6.7573  -6.7390  -6.7348  -6.7191  -6.6924  -6.6844  -6.6618  -6.6413
    -6.6341  -6.6119  -6.4993  -6.4972  -6.4850  -6.4811  -6.4752  -6.4229
    -6.2341  -6.2169  -6.2082  -6.2039  -6.1945  -6.1844  -5.9824  -5.9514
    -5.9361  -5.9264  -5.8840  -5.8795  -5.7895  -5.7712  -5.7135  -5.7015
    -5.6991  -5.6887  -5.6793  -5.6791  -5.6730  -5.6694  -5.6675  -5.6631
    -5.5950  -5.5816  -5.5748  -5.5681  -5.5658  -5.5632  -5.5615  -5.5540
    -5.5504  -5.5445  -5.5424  -5.4766  -5.3506  -5.3407  -5.3268  -5.3242
    -5.2251  -5.2106  -5.2081  -5.2065  -5.1845  -5.1821  -5.1752  -5.1567
    -5.1543  -5.1442  -5.1350  -5.1289  -5.1284  -5.1248  -5.1151  -5.1074
    -5.0998  -5.0976  -5.0834  -5.0764  -5.0697  -5.0646  -5.0631  -5.0611
    -5.0580  -5.0518  -5.0507  -5.0406  -5.0206  -5.0065  -5.0033  -4.9788
    -4.9720  -4.9670  -4.9592  -4.9558  -4.9533  -4.9510  -4.9466  -4.9444
    -4.9418  -4.9332  -4.9250  -4.8849  -4.8754  -4.8675  -4.7513  -4.7420
    -4.6908  -4.6894  -4.6882  -4.6876  -4.6692  -4.6512  -4.6371  -4.6173
    -4.6139  -4.5933  -4.5578  -4.5265  -4.5132  -4.4965  -4.4876  -4.4825
    -4.4755  -4.4510  -4.4492  -4.4328  -4.4288  -4.3980  -4.3760  -4.3479
    -4.2715  -4.2463  -4.2462  -4.2382  -4.2126  -4.1781  -4.1743  -4.1718
    -4.1515  -4.1473  -4.1471  -4.1446  -4.1113  -4.1068  -4.0961  -4.0616
    -4.0471  -4.0456  -4.0393  -4.0274  -3.9992  -3.7811  -3.7604  -3.6993
    -3.6733  -3.6483  -3.6337  -3.5918  -3.5320  -3.4198  -3.3876  -3.3829
    -3.3801  -3.3542  -3.3249  -3.3096  -3.2717  -3.2306  -3.2302  -3.2217
    -3.2082  -3.1914  -3.1770  -3.1432  -3.1306  -3.1208  -3.0969  -3.0908
    -3.0876  -3.0493  -3.0373  -3.0005  -2.9667  -2.9562  -2.9397  -2.9151
    -2.9131  -2.8950  -2.8765  -2.8721  -2.8705  -2.8700  -2.8648  -2.8530
    -2.8507  -2.8445  -2.8263  -2.8223  -2.7913  -2.7868  -2.7829  -2.7364
    -2.7209  -2.7119  -2.6917  -2.6577  -2.6504  -2.6486  -2.6157  -2.5985
    -2.5860  -2.5535  -2.5407  -2.5301  -2.4823  -2.4703  -2.4440  -2.4430
    -2.4418  -2.4348  -2.4328  -2.4224  -2.4215  -2.4214  -2.4124  -2.4009
    -2.3935  -2.3864  -2.3862  -2.3800  -2.3765  -2.3702  -2.3615  -2.3576
    -2.3407  -2.3157  -2.3127  -2.3082  -2.3005  -2.2972  -2.2934  -2.2896
    -2.2833  -2.2775  -2.2738  -2.2603  -2.2497  -2.2446  -2.2393  -2.2364
    -2.2335  -2.2096  -2.2096  -2.2090  -2.1989  -2.1959  -2.1930  -2.1904
    -2.1897  -2.1896  -2.1704  -2.1558  -2.1506  -2.1404  -2.0927  -2.0710
    -2.0700  -2.0654  -2.0566  -2.0360  -2.0355  -2.0255  -2.0153  -2.0121
    -2.0075  -2.0059  -2.0004  -1.9997  -1.9994  -1.9965  -1.9894  -1.9894
    -1.9880  -1.9865  -1.9735  -1.9689  -1.9653  -1.9363  -1.9357  -1.9323
    -1.9286  -1.9245  -1.9218  -1.9189  -1.9093  -1.9055  -1.8984  -1.8927
    -1.8901  -1.8463  -1.8156  -1.8149  -1.8053  -1.8052  -1.7948  -1.7786
    -1.6375  -1.6056  -1.5994  -1.5863  -1.3988  -1.3835  -1.3780  -1.3754
    -1.3256  -1.3236  -1.3117  -1.2977  -1.2881  -1.2879  -1.2683  -1.2508
    -1.2227  -1.0386  -1.0092

     the Fermi energy is    -4.1331 ev

!    total energy              =  -21094.88479276 Ry
     estimated scf accuracy    <          5.4E-11 Ry
     smearing contrib. (-TS)   =       0.00025592 Ry
     internal energy E=F+TS    =  -21094.88504868 Ry

     The total energy is F=E-TS. E is the sum of the following terms:
     one-electron contribution = -744510.88249115 Ry
     hartree contribution      =  372094.38901899 Ry
     xc contribution           =   -2235.09693905 Ry
     ewald contribution        =  358431.53784887 Ry
     Dispersion Correction     =      -1.39533247 Ry
     one-center paw contrib.   =   -4873.43715387 Ry

     total magnetization       =   161.61 Bohr mag/cell
     absolute magnetization    =   168.09 Bohr mag/cell

     convergence has been achieved in  16 iterations

     negative rho (up, down):  1.179E-02 1.630E-02

     Forces acting on atoms (cartesian axes, Ry/au):

     atom    1 type  1   force =     0.00028533    0.00003377    0.01012540
     atom    2 type  1   force =    -0.00089388    0.00127289   -0.00535758
     atom    3 type  1   force =     0.00019676    0.00010973    0.00977636
     atom    4 type  1   force =    -0.00054189    0.00004717   -0.01081520
     atom    5 type  1   force =    -0.00000259   -0.00000727   -0.00005709
     atom    6 type  1   force =    -0.00000214    0.00000117   -0.00004143
     atom    7 type  1   force =     0.00001180   -0.00000163   -0.00005647
     atom    8 type  1   force =    -0.00001358    0.00002216   -0.00002897
     atom    9 type  1   force =     0.00000082    0.00001330    0.01001487
     atom   10 type  1   force =    -0.00016242   -0.00015336    0.00930427
     atom   11 type  1   force =     0.00012374   -0.00013584   -0.01068709
     atom   12 type  1   force =    -0.00028299   -0.00012040   -0.00986792
     atom   13 type  1   force =     0.00000318    0.00000006   -0.00008284
     atom   14 type  1   force =     0.00001948    0.00001434   -0.00008401
     atom   15 type  1   force =     0.00015049    0.00002737   -0.00003847
     atom   16 type  1   force =     0.00003628    0.00002445   -0.00006304
     atom   17 type  1   force =     0.00018937    0.00012733    0.00972415
     atom   18 type  1   force =    -0.00008702   -0.00051057   -0.01084073
     atom   19 type  1   force =    -0.00018643   -0.00013825    0.00971628
     atom   20 type  1   force =    -0.00000846    0.00002021   -0.00713914
     atom   21 type  1   force =     0.00000089    0.00000773   -0.00005670
     atom   22 type  1   force =     0.00001826   -0.00002306   -0.00003721
     atom   23 type  1   force =    -0.00000730    0.00000235   -0.00005629
     atom   24 type  1   force =    -0.00002861    0.00003804    0.00023423
     atom   25 type  1   force =     0.00002047   -0.00002700    0.00901897
     atom   26 type  1   force =     0.00004454   -0.00006950    0.00950514
     atom   27 type  1   force =     0.00006390   -0.00006130   -0.01121897
     atom   28 type  1   force =     0.00009679   -0.00015043   -0.01068212
     atom   29 type  1   force =    -0.00000160    0.00000031    0.00001730
     atom   30 type  1   force =     0.00001294   -0.00001792   -0.00007602
     atom   31 type  1   force =    -0.00012039   -0.00008536   -0.00003357
     atom   32 type  1   force =    -0.00007606   -0.00013552   -0.00003926
     atom   33 type  1   force =    -0.00028076   -0.00003274    0.01017720
     atom   34 type  1   force =     0.00051060   -0.00008048   -0.01083923
     atom   35 type  1   force =     0.00012637    0.00025547    0.01018659
     atom   36 type  1   force =     0.00079907   -0.00113592   -0.00533151
     atom   37 type  1   force =     0.00000562    0.00000801   -0.00005470
     atom   38 type  1   force =     0.00001503   -0.00002595   -0.00004002
     atom   39 type  1   force =    -0.00000939   -0.00000267   -0.00005408
     atom   40 type  1   force =    -0.00000286    0.00000285   -0.00003626
     atom   41 type  1   force =    -0.00002693    0.00004106    0.00751650
     atom   42 type  1   force =    -0.00006240    0.00008833    0.00948289
     atom   43 type  1   force =     0.00020237    0.00023837   -0.00985947
     atom   44 type  1   force =    -0.00014997    0.00014669   -0.01066429
     atom   45 type  1   force =     0.00000095   -0.00000009   -0.00008087
     atom   46 type  1   force =    -0.00001304    0.00001916   -0.00007616
     atom   47 type  1   force =    -0.00003713   -0.00002621   -0.00006430
     atom   48 type  1   force =    -0.00015230   -0.00002739   -0.00004097
     atom   49 type  1   force =    -0.00016611   -0.00015407    0.00978234
     atom   50 type  1   force =     0.00007267   -0.00010704   -0.00712159
     atom   51 type  1   force =    -0.00012322   -0.00026168    0.01013326
     atom   52 type  1   force =     0.00013134    0.00054211   -0.01081359
     atom   53 type  1   force =    -0.00000119   -0.00001179   -0.00005731
     atom   54 type  1   force =     0.00002535   -0.00003620    0.00023175
     atom   55 type  1   force =     0.00000806   -0.00000014   -0.00005650
     atom   56 type  1   force =    -0.00001682    0.00001983   -0.00002759
     atom   57 type  1   force =    -0.00001368    0.00000400    0.01002673
     atom   58 type  1   force =     0.00020064    0.00010108    0.00929975
     atom   59 type  1   force =    -0.00009111    0.00019202   -0.01067099
     atom   60 type  1   force =     0.00003270   -0.00006973   -0.01122489
     atom   61 type  1   force =    -0.00000116   -0.00000475   -0.00008367
     atom   62 type  1   force =    -0.00001982   -0.00001375   -0.00008399
     atom   63 type  1   force =     0.00007588    0.00013584   -0.00003813
     atom   64 type  1   force =     0.00011931    0.00008484   -0.00003240
     atom   65 type  2   force =    -0.00005894   -0.00003980   -0.00009481
     atom   66 type  3   force =     0.00002492    0.00000936   -0.00001616
     atom   67 type  3   force =     0.00001625    0.00001642   -0.00006973

     Total force =     0.000615     Total SCF correction =     0.000018
     Energy error            =      6.9E-07
     Gradient error          =      2.3E-04

     bfgs converged in   9 scf cycles and   8 bfgs steps
     (criteria: energy <  7.3E-07 Ry, force <  3.9E-04 Ry/Bohr)

     End of BFGS Geometry Optimization

     Final energy   =  -21094.8847927551 Ry

     File ./Fe_NH2_paper_480c_ESM_std.bfgs deleted, as requested
Begin final coordinates

ATOMIC_POSITIONS (angstrom)
Fe            1.6549129530        1.1702001330        0.0000000000    0   0   0
Fe            0.0000000000        0.0000000000        2.0269842320    0   0   0
Fe            4.9647388580        3.5106003990        0.0000000000    0   0   0
Fe            3.3098259060        2.3404002660        2.0269842320    0   0   0
Fe            1.6476585309        1.1677552855        4.0240374435
Fe            3.3031442831        9.3711450492        5.9999833362
Fe            4.9597686679        3.5149897172        4.0110662832
Fe            3.3038850446        2.3321688055        6.0008218301
Fe            2.4823638580        3.5106003990        0.0000000000    0   0   0
Fe            4.1372879530        1.1702001330        0.0000000000    0   0   0
Fe            0.8274509060        2.3404002660        2.0269842320    0   0   0
Fe            2.4823750000        0.0000000000        2.0269842320    0   0   0
Fe            2.4823766472        3.5105978576        4.0267238118
Fe            4.1292122305        1.1644981996        4.0176045902
Fe            0.8143161000        2.3449957865        5.9900955047
Fe            2.4777534724       -0.0031464325        6.0108453408
Fe            6.6196629530        1.1702001330        0.0000000000    0   0   0
Fe            4.9647500000        0.0000000000        2.0269842320    0   0   0
Fe            9.9294888580        3.5106003990        0.0000000000    0   0   0
Fe            8.2745759060        2.3404002660        2.0269842320    0   0   0
Fe            6.6221970868        1.1639977104        4.0111202483
Fe            4.9550156770       -0.0029555013        6.0005833123
Fe            9.9346224736        3.5061906319        4.0110902197
Fe            8.2790796624        2.3345040062        6.0838479686
Fe            7.4471138580        3.5106003990        0.0000000000    0   0   0
Fe            9.1020379530        1.1702001330        0.0000000000    0   0   0
Fe            5.7922009060        2.3404002660        2.0269842320    0   0   0
Fe            7.4471250000        0.0000000000        2.0269842320    0   0   0
Fe            7.4472671151        3.5105127774        4.0436866898
Fe            9.0913449433        1.1854038360        4.0470516954
Fe            5.7425554002        2.3052484563        5.9286401010
Fe           10.7571205507        9.3757692208        5.9901811319
Fe            3.3098147640        5.8510006640        0.0000000000    0   0   0
Fe            1.6549018110        4.6808005310        2.0269842320    0   0   0
Fe            6.6196406700        8.1914009300        0.0000000000    0   0   0
Fe            4.9647277170        7.0212007970        2.0269842320    0   0   0
Fe            3.3169471541        5.8536780891        4.0240540719
Fe           11.5905725184        4.6890965167        6.0005664000
Fe            6.6147953034        8.1856488723        4.0240148471
Fe            4.9711890398        7.0121367467        5.9996322479
Fe            4.1372656700        8.1914009300        0.0000000000    0   0   0
Fe            5.7921897640        5.8510006640        0.0000000000    0   0   0
Fe            2.4823527170        7.0212007970        2.0269842320    0   0   0
Fe            4.1372768110        4.6808005310        2.0269842320    0   0   0
Fe            4.1370690426        8.1917327927        4.0300325771
Fe            5.8028030754        5.8360780759        4.0469411257
Fe           12.4164466730        7.0246107498        6.0108389408
Fe            4.1506837799        4.6763866481        5.9903152564
Fe            8.2745647640        5.8510006640        0.0000000000    0   0   0
Fe            6.6196518110        4.6808005310        2.0269842320    0   0   0
Fe           11.5843906700        8.1914009300        0.0000000000    0   0   0
Fe            9.9294777170        7.0212007970        2.0269842320    0   0   0
Fe            8.2721872961        5.8572338667        4.0110274479
Fe            6.6159186806        4.6864057012        6.0835083091
Fe           11.5891652703        8.1974910746        4.0240625863
Fe            9.9393164862        7.0242206781        6.0007817634
Fe            9.1020156700        8.1914009300        0.0000000000    0   0   0
Fe           10.7569397640        5.8510006640        0.0000000000    0   0   0
Fe            7.4471027170        7.0212007970        2.0269842320    0   0   0
Fe            9.1020268110        4.6808005310        2.0269842320    0   0   0
Fe            9.1020843276        8.1914967763        4.0267001900
Fe           10.7651073494        5.8567628817        4.0176072623
Fe            7.4468888360        7.0072702577        5.9902313603
Fe            9.1518882790        4.7160409817        5.9285655909
N             7.4482823013        3.5112506489        7.4761006409
H             8.1113657108        3.9806120876        8.1077751941
H             6.7852491194        3.0423278763        8.1082182056
End final coordinates



     Writing output data file ./Fe_NH2_paper_480c_ESM_std.save/

     init_run     :     30.38s CPU     31.63s WALL (       1 calls)
     electrons    :  17747.89s CPU  18080.47s WALL (       9 calls)
     update_pot   :     46.90s CPU     47.15s WALL (       8 calls)
     forces       :    161.49s CPU    164.16s WALL (       9 calls)

     Called by init_run:
     wfcinit      :     20.43s CPU     21.38s WALL (       1 calls)
     potinit      :      2.90s CPU      2.98s WALL (       1 calls)
     hinit0       :      5.14s CPU      5.26s WALL (       1 calls)

     Called by electrons:
     c_bands      :  15856.99s CPU  16132.05s WALL (     193 calls)
     sum_band     :    940.86s CPU    975.80s WALL (     193 calls)
     v_of_rho     :    163.92s CPU    166.05s WALL (     194 calls)
     newd         :     34.03s CPU     34.45s WALL (     194 calls)
     PAW_pot      :     38.19s CPU     38.53s WALL (     202 calls)
     mix_rho      :    669.69s CPU    681.63s WALL (     193 calls)

     Called by c_bands:
     init_us_2    :     86.86s CPU     93.08s WALL (    1212 calls)
     cegterg      :  13966.69s CPU  14154.22s WALL (     581 calls)

     Called by *egterg:
     cdiaghg      :   3514.71s CPU   3539.48s WALL (    4359 calls)
     h_psi        :   4449.50s CPU   4517.68s WALL (    4410 calls)
     s_psi        :   1187.92s CPU   1195.61s WALL (    4410 calls)
     g_psi        :     21.48s CPU     21.83s WALL (    3826 calls)

     Called by h_psi:
     h_psi:calbec :   1272.70s CPU   1281.55s WALL (    4410 calls)
     vloc_psi     :   1948.84s CPU   1969.99s WALL (    4410 calls)
     add_vuspsi   :   1191.34s CPU   1199.25s WALL (    4410 calls)

     General routines
     calbec       :   1814.59s CPU   1826.66s WALL (    5121 calls)
     fft          :    108.64s CPU    109.96s WALL (    4991 calls)
     ffts         :    300.52s CPU    302.99s WALL (  114344 calls)
     fftw         :   2120.65s CPU   2143.63s WALL ( 2342143 calls)
     interpolate  :     12.75s CPU     12.89s WALL (     388 calls)
     davcio       :      0.76s CPU     96.22s WALL (    5012 calls)

     Parallel routines
     fft_scatt_xy :    292.94s CPU    295.89s WALL ( 2461478 calls)
     fft_scatt_yz :   1174.92s CPU   1188.04s WALL ( 2461478 calls)

     PWSCF        :      5h 0m CPU      5h 6m WALL


   This run was terminated on:  22:39: 5   8Jul2022            

=------------------------------------------------------------------------------=
   JOB DONE.
=------------------------------------------------------------------------------=
