     Message from routine get_command_line:
     unexpected argument # 4     :-in

     Program PWSCF v.6.7MaX starts on 30Jun2022 at 22:34:46 

     This program is part of the open-source Quantum ESPRESSO suite
     for quantum simulation of materials; please cite
         "P. Giannozzi et al., J. Phys.:Condens. Matter 21 395502 (2009);
         "P. Giannozzi et al., J. Phys.:Condens. Matter 29 465901 (2017);
          URL http://www.quantum-espresso.org", 
     in publications or presentations arising from this work. More details at
     http://www.quantum-espresso.org/quote

     Parallel version (MPI), running on   120 processors

     MPI processes distributed on     1 nodes
     K-points division:     npool     =       8
     R & G space division:  proc/nbgrp/npool/nimage =      15
     Waiting for input...
     Reading input from standard input
Warning: card &CELL ignored
Warning: card / ignored

     Current dimensions of program PWSCF are:
     Max number of different atomic species (ntypx) = 10
     Max number of k-points (npk) =  40000
     Max angular momentum in pseudopotentials (lmaxx) =  3

     IMPORTANT: XC functional enforced from input :
     Exchange-correlation= PBE
                           (   1   4   3   4   0   0   0)
     Any further DFT definition will be discarded
     Please, verify this is what you really want


     -------------------------------------------------
     Parameters for Dispersion (Grimme-D2) Correction:
     -------------------------------------------------
       atom      VdW radius       C_6     

        H          1.892          4.857

     Subspace diagonalization in iterative solution of the eigenvalue problem:
     one sub-group per band group will be used
     scalapack distributed-memory algorithm (size of sub-group:  3*  3 procs)


     Parallelization info
     --------------------
     sticks:   dense  smooth     PW     G-vecs:    dense   smooth      PW
     Min        3636    1818    468               639190   225950   29545
     Max        3637    1819    470               639197   225953   29547
     Sum       54553   27281   7033              9587919  3389267  443191



     bravais-lattice index     =            0
     lattice parameter (alat)  =      37.7945  a.u.
     unit-cell volume          =   53986.6760 (a.u.)^3
     number of atoms/cell      =            1
     number of atomic types    =            1
     number of electrons       =         1.00
     number of Kohn-Sham states=            5
     kinetic-energy cutoff     =      60.0000  Ry
     charge density cutoff     =     480.0000  Ry
     scf convergence threshold =      1.0E-08
     mixing beta               =       0.7000
     number of iterations used =           10  plain     mixing
     energy convergence thresh.=      7.3E-07
     force convergence thresh. =      3.9E-04
     Exchange-correlation= PBE
                           (   1   4   3   4   0   0   0)
     nstep                     =           50


     Effective Screening Medium Method
     =================================
     Boundary Conditions: Metal-Slab-Metal
     field strength                   =     0.03 Ry/a.u.
     grid points for fit at edges     =        4 


     celldm(1)=  37.794522  celldm(2)=   0.000000  celldm(3)=   0.000000
     celldm(4)=   0.000000  celldm(5)=   0.000000  celldm(6)=   0.000000

     crystal axes: (cart. coord. in units of alat)
               a(1) = (   1.000000   0.000000   0.000000 )  
               a(2) = (   0.000000   1.000000   0.000000 )  
               a(3) = (   0.000000   0.000000   1.000000 )  

     reciprocal axes: (cart. coord. in units 2 pi/alat)
               b(1) = (  1.000000  0.000000  0.000000 )  
               b(2) = (  0.000000  1.000000  0.000000 )  
               b(3) = (  0.000000  0.000000  1.000000 )  


     PseudoPot. # 1 for H  read from file:
     ../../SSSP/H.pbe-rrkjus_psl.1.0.0.UPF
     MD5 check sum: f52b6d4d1c606e5624b1dc7b2218f220
     Pseudo is Ultrasoft, Zval =  1.0
     Generated using "atomic" code by A. Dal Corso  v.5.1
     Using radial grid of  929 points,  2 beta functions with: 
                l(1) =   0
                l(2) =   0
     Q(r) pseudized with 0 coefficients 


     atomic species   valence    mass     pseudopotential
        H              1.00     1.00800     H ( 1.00)

     Starting magnetic structure 
     atomic species   magnetization
        H            0.100

     No symmetry found



   Cartesian axes

     site n.     atom                  positions (alat units)
         1           H   tau(   1) = (   0.5000000   0.5000000   0.0000000  )

     number of k points=    10  Methfessel-Paxton smearing, width (Ry)=  0.0100
                       cart. coord. in units 2pi/alat
        k(    1) = (   0.0000000   0.0000000   0.0000000), wk =   0.0625000
        k(    2) = (   0.0000000   0.2500000   0.0000000), wk =   0.1250000
        k(    3) = (   0.0000000  -0.5000000   0.0000000), wk =   0.0625000
        k(    4) = (   0.2500000   0.0000000   0.0000000), wk =   0.1250000
        k(    5) = (   0.2500000   0.2500000   0.0000000), wk =   0.1250000
        k(    6) = (   0.2500000  -0.5000000   0.0000000), wk =   0.1250000
        k(    7) = (   0.2500000  -0.2500000   0.0000000), wk =   0.1250000
        k(    8) = (  -0.5000000   0.0000000   0.0000000), wk =   0.0625000
        k(    9) = (  -0.5000000   0.2500000   0.0000000), wk =   0.1250000
        k(   10) = (  -0.5000000  -0.5000000   0.0000000), wk =   0.0625000

     Dense  grid:  9587919 G-vectors     FFT dimensions: ( 270, 270, 270)

     Smooth grid:  3389267 G-vectors     FFT dimensions: ( 192, 192, 192)

     Estimated max dynamical RAM per process >     315.63 MB

     Estimated total dynamical RAM >      36.99 GB
     Generating pointlists ...
     new r_m :   0.4125 (alat units) 15.5902 (a.u.) for type    1

     Initial potential from superposition of free atoms

     starting charge    0.99999, renormalised to    1.00000

     negative rho (up, down):  1.968E-05 1.610E-05
     Starting wfcs are    1 randomized atomic wfcs +    4 random wfcs

     total cpu time spent up to now is       20.1 secs

     Self-consistent Calculation

     iteration #  1     ecut=    60.00 Ry     beta= 0.70
     Davidson diagonalization with overlap
     c_bands:  3 eigenvalues not converged
     c_bands:  2 eigenvalues not converged
     ethr =  1.00E-04,  avg # of iterations = 19.6

     negative rho (up, down):  3.352E-05 4.606E-06

     total cpu time spent up to now is       49.0 secs

     total energy              =      -0.99202445 Ry
     estimated scf accuracy    <       0.00979227 Ry

     total magnetization       =     1.03 Bohr mag/cell
     absolute magnetization    =     1.03 Bohr mag/cell

     iteration #  2     ecut=    60.00 Ry     beta= 0.70
     Davidson diagonalization with overlap
     ethr =  9.79E-04,  avg # of iterations =  1.5

     negative rho (up, down):  4.695E-05 1.603E-05

     total cpu time spent up to now is       62.4 secs

     total energy              =      -1.00046576 Ry
     estimated scf accuracy    <       0.00157898 Ry

     total magnetization       =     1.00 Bohr mag/cell
     absolute magnetization    =     1.00 Bohr mag/cell

     iteration #  3     ecut=    60.00 Ry     beta= 0.70
     Davidson diagonalization with overlap
     ethr =  1.58E-04,  avg # of iterations =  6.7

     negative rho (up, down):  4.742E-05 1.086E-03

     total cpu time spent up to now is       77.6 secs

     total energy              =      -1.03305259 Ry
     estimated scf accuracy    <       0.00005388 Ry

     total magnetization       =     1.00 Bohr mag/cell
     absolute magnetization    =     1.00 Bohr mag/cell

     iteration #  4     ecut=    60.00 Ry     beta= 0.70
     Davidson diagonalization with overlap
     ethr =  5.39E-06,  avg # of iterations =  8.1

     negative rho (up, down):  4.835E-05 9.411E-04

     total cpu time spent up to now is       94.0 secs

     total energy              =      -1.03324236 Ry
     estimated scf accuracy    <       0.00005220 Ry

     total magnetization       =     1.00 Bohr mag/cell
     absolute magnetization    =     1.00 Bohr mag/cell

     iteration #  5     ecut=    60.00 Ry     beta= 0.70
     Davidson diagonalization with overlap
     ethr =  5.22E-06,  avg # of iterations =  1.0

     negative rho (up, down):  4.834E-05 5.624E-07

     total cpu time spent up to now is      107.6 secs

     total energy              =      -1.00111998 Ry
     estimated scf accuracy    <       0.00008260 Ry

     total magnetization       =     1.00 Bohr mag/cell
     absolute magnetization    =     1.00 Bohr mag/cell

     iteration #  6     ecut=    60.00 Ry     beta= 0.70
     Davidson diagonalization with overlap
     ethr =  5.22E-06,  avg # of iterations =  2.0

     negative rho (up, down):  3.150E-05 1.325E-03

     total cpu time spent up to now is      121.5 secs

     total energy              =      -1.00070645 Ry
     estimated scf accuracy    <       0.00002189 Ry

     total magnetization       =     1.02 Bohr mag/cell
     absolute magnetization    =     1.02 Bohr mag/cell

     iteration #  7     ecut=    60.00 Ry     beta= 0.70
     Davidson diagonalization with overlap
     c_bands:  2 eigenvalues not converged
     c_bands:  2 eigenvalues not converged
     ethr =  2.19E-06,  avg # of iterations =  8.2

     negative rho (up, down):  3.176E-05 1.208E-03

     total cpu time spent up to now is      139.8 secs

     total energy              =      -1.00069348 Ry
     estimated scf accuracy    <       0.00001985 Ry

     total magnetization       =     1.07 Bohr mag/cell
     absolute magnetization    =     1.07 Bohr mag/cell

     iteration #  8     ecut=    60.00 Ry     beta= 0.70
     Davidson diagonalization with overlap
     c_bands:  1 eigenvalues not converged
     ethr =  1.98E-06,  avg # of iterations =  6.9

     negative rho (up, down):  3.385E-05 3.765E-04

     total cpu time spent up to now is      157.8 secs

     total energy              =      -1.00071326 Ry
     estimated scf accuracy    <       0.00001500 Ry

     total magnetization       =     1.06 Bohr mag/cell
     absolute magnetization    =     1.06 Bohr mag/cell

     iteration #  9     ecut=    60.00 Ry     beta= 0.70
     Davidson diagonalization with overlap
     c_bands:  1 eigenvalues not converged
     ethr =  1.50E-06,  avg # of iterations =  5.6

     negative rho (up, down):  1.389E-04 1.340E-06

     total cpu time spent up to now is      175.0 secs

     total energy              =      -1.00055458 Ry
     estimated scf accuracy    <       0.00001605 Ry

     total magnetization       =     1.06 Bohr mag/cell
     absolute magnetization    =     1.06 Bohr mag/cell

     iteration # 10     ecut=    60.00 Ry     beta= 0.70
     Davidson diagonalization with overlap
     ethr =  1.50E-06,  avg # of iterations =  3.9

     negative rho (up, down):  1.300E-04 1.297E-06

     total cpu time spent up to now is      190.8 secs

     total energy              =      -1.00067547 Ry
     estimated scf accuracy    <       0.00001450 Ry

     total magnetization       =     0.97 Bohr mag/cell
     absolute magnetization    =     1.03 Bohr mag/cell

     iteration # 11     ecut=    60.00 Ry     beta= 0.70
     Davidson diagonalization with overlap
     ethr =  1.45E-06,  avg # of iterations =  3.2

     negative rho (up, down):  1.503E-04 5.352E-07

     total cpu time spent up to now is      205.7 secs

     total energy              =      -1.00067609 Ry
     estimated scf accuracy    <       0.00001426 Ry

     total magnetization       =     0.97 Bohr mag/cell
     absolute magnetization    =     1.03 Bohr mag/cell

     iteration # 12     ecut=    60.00 Ry     beta= 0.70
     Davidson diagonalization with overlap
     ethr =  1.43E-06,  avg # of iterations =  1.4

     negative rho (up, down):  4.191E-05 7.788E-04

     total cpu time spent up to now is      220.1 secs

     total energy              =      -1.00060008 Ry
     estimated scf accuracy    <       0.00001425 Ry

     total magnetization       =     0.96 Bohr mag/cell
     absolute magnetization    =     1.04 Bohr mag/cell

     iteration # 13     ecut=    60.00 Ry     beta= 0.70
     Davidson diagonalization with overlap
     c_bands:  2 eigenvalues not converged
     ethr =  1.43E-06,  avg # of iterations =  7.3

     negative rho (up, down):  4.880E-05 8.650E-04

     total cpu time spent up to now is      239.0 secs

     total energy              =      -1.00074935 Ry
     estimated scf accuracy    <       0.00000881 Ry

     total magnetization       =     1.06 Bohr mag/cell
     absolute magnetization    =     1.06 Bohr mag/cell

     iteration # 14     ecut=    60.00 Ry     beta= 0.70
     Davidson diagonalization with overlap
     c_bands:  1 eigenvalues not converged
     ethr =  8.81E-07,  avg # of iterations =  2.9

     negative rho (up, down):  7.054E-05 1.990E-03

     total cpu time spent up to now is      254.2 secs

     total energy              =      -1.03298401 Ry
     estimated scf accuracy    <       0.00000981 Ry

     total magnetization       =     1.06 Bohr mag/cell
     absolute magnetization    =     1.06 Bohr mag/cell

     iteration # 15     ecut=    60.00 Ry     beta= 0.70
     Davidson diagonalization with overlap
     ethr =  8.81E-07,  avg # of iterations =  6.5

     negative rho (up, down):  3.846E-05 1.828E-03

     total cpu time spent up to now is      271.4 secs

     total energy              =      -1.00115023 Ry
     estimated scf accuracy    <       0.00001972 Ry

     total magnetization       =     1.00 Bohr mag/cell
     absolute magnetization    =     1.00 Bohr mag/cell

     iteration # 16     ecut=    60.00 Ry     beta= 0.70
     Davidson diagonalization with overlap
     ethr =  8.81E-07,  avg # of iterations =  2.2

     negative rho (up, down):  3.662E-05 1.700E-03

     total cpu time spent up to now is      285.9 secs

     total energy              =      -1.00079854 Ry
     estimated scf accuracy    <       0.00000695 Ry

     total magnetization       =     1.07 Bohr mag/cell
     absolute magnetization    =     1.07 Bohr mag/cell

     iteration # 17     ecut=    60.00 Ry     beta= 0.70
     Davidson diagonalization with overlap
     ethr =  6.95E-07,  avg # of iterations =  2.1

     negative rho (up, down):  3.418E-05 1.304E-03

     total cpu time spent up to now is      300.4 secs

     total energy              =      -1.03301937 Ry
     estimated scf accuracy    <       0.00000567 Ry

     total magnetization       =     1.07 Bohr mag/cell
     absolute magnetization    =     1.07 Bohr mag/cell

     iteration # 18     ecut=    60.00 Ry     beta= 0.70
     Davidson diagonalization with overlap
     ethr =  5.67E-07,  avg # of iterations =  6.3

     negative rho (up, down):  8.187E-05 6.145E-04

     total cpu time spent up to now is      318.4 secs

     total energy              =      -1.00115012 Ry
     estimated scf accuracy    <       0.00001234 Ry

     total magnetization       =     1.00 Bohr mag/cell
     absolute magnetization    =     1.00 Bohr mag/cell

     iteration # 19     ecut=    60.00 Ry     beta= 0.70
     Davidson diagonalization with overlap
     c_bands:  1 eigenvalues not converged
     ethr =  5.67E-07,  avg # of iterations =  6.5

     negative rho (up, down):  3.222E-04 2.381E-04

     total cpu time spent up to now is      336.2 secs

     total energy              =      -1.00065239 Ry
     estimated scf accuracy    <       0.00001290 Ry

     total magnetization       =     1.06 Bohr mag/cell
     absolute magnetization    =     1.06 Bohr mag/cell

     iteration # 20     ecut=    60.00 Ry     beta= 0.70
     Davidson diagonalization with overlap
     ethr =  5.67E-07,  avg # of iterations =  7.2

     negative rho (up, down):  3.491E-04 3.614E-04

     total cpu time spent up to now is      354.2 secs

     total energy              =      -1.00067528 Ry
     estimated scf accuracy    <       0.00001238 Ry

     total magnetization       =     1.02 Bohr mag/cell
     absolute magnetization    =     1.02 Bohr mag/cell

     iteration # 21     ecut=    60.00 Ry     beta= 0.70
     Davidson diagonalization with overlap
     ethr =  5.67E-07,  avg # of iterations =  4.0

     negative rho (up, down):  1.122E-04 7.802E-04

     total cpu time spent up to now is      369.5 secs

     total energy              =      -1.00069866 Ry
     estimated scf accuracy    <       0.00001143 Ry

     total magnetization       =     1.02 Bohr mag/cell
     absolute magnetization    =     1.02 Bohr mag/cell

     iteration # 22     ecut=    60.00 Ry     beta= 0.70
     Davidson diagonalization with overlap
     ethr =  5.67E-07,  avg # of iterations =  5.4

     negative rho (up, down):  1.043E-04 8.016E-04

     total cpu time spent up to now is      386.2 secs

     total energy              =      -1.00072075 Ry
     estimated scf accuracy    <       0.00001157 Ry

     total magnetization       =     1.05 Bohr mag/cell
     absolute magnetization    =     1.05 Bohr mag/cell

     iteration # 23     ecut=    60.00 Ry     beta= 0.70
     Davidson diagonalization with overlap
     ethr =  5.67E-07,  avg # of iterations =  1.0

     negative rho (up, down):  4.665E-05 3.335E-03

     total cpu time spent up to now is      400.4 secs

     total energy              =      -1.00074790 Ry
     estimated scf accuracy    <       0.00001157 Ry

     total magnetization       =     1.05 Bohr mag/cell
     absolute magnetization    =     1.05 Bohr mag/cell

     iteration # 24     ecut=    60.00 Ry     beta= 0.70
     Davidson diagonalization with overlap
     ethr =  5.67E-07,  avg # of iterations =  9.1

     negative rho (up, down):  5.022E-05 2.367E-03

     total cpu time spent up to now is      418.7 secs

     total energy              =      -1.00071359 Ry
     estimated scf accuracy    <       0.00001233 Ry

     total magnetization       =     1.06 Bohr mag/cell
     absolute magnetization    =     1.06 Bohr mag/cell

     iteration # 25     ecut=    60.00 Ry     beta= 0.70
     Davidson diagonalization with overlap
     c_bands:  2 eigenvalues not converged
     c_bands:  1 eigenvalues not converged
     ethr =  5.67E-07,  avg # of iterations = 11.2

     negative rho (up, down):  8.044E-05 2.082E-03

     total cpu time spent up to now is      439.2 secs

     total energy              =      -1.00072973 Ry
     estimated scf accuracy    <       0.00001633 Ry

     total magnetization       =     1.06 Bohr mag/cell
     absolute magnetization    =     1.06 Bohr mag/cell

     iteration # 26     ecut=    60.00 Ry     beta= 0.70
     Davidson diagonalization with overlap
     c_bands:  1 eigenvalues not converged
     ethr =  5.67E-07,  avg # of iterations =  6.5

     negative rho (up, down):  3.011E-05 4.031E-03

     total cpu time spent up to now is      456.3 secs

     total energy              =      -1.00084063 Ry
     estimated scf accuracy    <       0.00001758 Ry

     total magnetization       =     1.06 Bohr mag/cell
     absolute magnetization    =     1.06 Bohr mag/cell

     iteration # 27     ecut=    60.00 Ry     beta= 0.70
     Davidson diagonalization with overlap
     ethr =  5.67E-07,  avg # of iterations =  9.7

     negative rho (up, down):  2.942E-05 5.131E-03

     total cpu time spent up to now is      475.2 secs

     total energy              =      -1.00083433 Ry
     estimated scf accuracy    <       0.00001047 Ry

     total magnetization       =     1.07 Bohr mag/cell
     absolute magnetization    =     1.07 Bohr mag/cell

     iteration # 28     ecut=    60.00 Ry     beta= 0.70
     Davidson diagonalization with overlap
     c_bands:  1 eigenvalues not converged
     ethr =  5.67E-07,  avg # of iterations =  8.2

     negative rho (up, down):  2.885E-05 7.201E-03

     total cpu time spent up to now is      494.3 secs

     total energy              =      -1.00084668 Ry
     estimated scf accuracy    <       0.00000978 Ry

     total magnetization       =     1.07 Bohr mag/cell
     absolute magnetization    =     1.07 Bohr mag/cell

     iteration # 29     ecut=    60.00 Ry     beta= 0.70
     Davidson diagonalization with overlap
     c_bands:  2 eigenvalues not converged
     c_bands:  1 eigenvalues not converged
     ethr =  5.67E-07,  avg # of iterations =  9.0

     negative rho (up, down):  4.209E-04 6.850E-03

     total cpu time spent up to now is      515.1 secs

     total energy              =      -1.03296673 Ry
     estimated scf accuracy    <       0.00001312 Ry

     total magnetization       =     1.06 Bohr mag/cell
     absolute magnetization    =     1.06 Bohr mag/cell

     iteration # 30     ecut=    60.00 Ry     beta= 0.70
     Davidson diagonalization with overlap
     c_bands:  2 eigenvalues not converged
     c_bands:  1 eigenvalues not converged
     ethr =  5.67E-07,  avg # of iterations = 14.3

     negative rho (up, down):  2.946E-05 6.139E-03

     total cpu time spent up to now is      538.4 secs

     total energy              =      -1.03358748 Ry
     estimated scf accuracy    <       0.00004159 Ry

     total magnetization       =     1.00 Bohr mag/cell
     absolute magnetization    =     1.00 Bohr mag/cell

     iteration # 31     ecut=    60.00 Ry     beta= 0.70
     Davidson diagonalization with overlap
     ethr =  5.67E-07,  avg # of iterations =  6.4

     negative rho (up, down):  2.951E-05 5.649E-03

     total cpu time spent up to now is      556.3 secs

     total energy              =      -1.00125460 Ry
     estimated scf accuracy    <       0.00001942 Ry

     total magnetization       =     1.00 Bohr mag/cell
     absolute magnetization    =     1.00 Bohr mag/cell

     iteration # 32     ecut=    60.00 Ry     beta= 0.70
     Davidson diagonalization with overlap
     ethr =  5.67E-07,  avg # of iterations =  4.2

     negative rho (up, down):  2.773E-05 1.210E-02

     total cpu time spent up to now is      572.8 secs

     total energy              =      -1.00099258 Ry
     estimated scf accuracy    <       0.00000890 Ry

     total magnetization       =     1.07 Bohr mag/cell
     absolute magnetization    =     1.07 Bohr mag/cell

     iteration # 33     ecut=    60.00 Ry     beta= 0.70
     Davidson diagonalization with overlap
     ethr =  5.67E-07,  avg # of iterations =  7.2

     negative rho (up, down):  2.770E-05 1.287E-02

     total cpu time spent up to now is      591.3 secs

     total energy              =      -1.00097596 Ry
     estimated scf accuracy    <       0.00000999 Ry

     total magnetization       =     1.06 Bohr mag/cell
     absolute magnetization    =     1.06 Bohr mag/cell

     iteration # 34     ecut=    60.00 Ry     beta= 0.70
     Davidson diagonalization with overlap
     ethr =  5.67E-07,  avg # of iterations =  7.0

     negative rho (up, down):  2.766E-05 1.383E-02

     total cpu time spent up to now is      610.0 secs

     total energy              =      -1.00090455 Ry
     estimated scf accuracy    <       0.00001063 Ry

     total magnetization       =     1.06 Bohr mag/cell
     absolute magnetization    =     1.06 Bohr mag/cell

     iteration # 35     ecut=    60.00 Ry     beta= 0.70
     Davidson diagonalization with overlap
     ethr =  5.67E-07,  avg # of iterations =  7.2

     negative rho (up, down):  2.769E-05 1.403E-02

     total cpu time spent up to now is      628.1 secs

     total energy              =      -1.00094569 Ry
     estimated scf accuracy    <       0.00001088 Ry

     total magnetization       =     1.06 Bohr mag/cell
     absolute magnetization    =     1.06 Bohr mag/cell

     iteration # 36     ecut=    60.00 Ry     beta= 0.70
     Davidson diagonalization with overlap
     ethr =  5.67E-07,  avg # of iterations =  7.9

     negative rho (up, down):  2.774E-05 1.357E-02

     total cpu time spent up to now is      647.3 secs

     total energy              =      -1.00089316 Ry
     estimated scf accuracy    <       0.00001115 Ry

     total magnetization       =     1.06 Bohr mag/cell
     absolute magnetization    =     1.06 Bohr mag/cell

     iteration # 37     ecut=    60.00 Ry     beta= 0.70
     Davidson diagonalization with overlap
     ethr =  5.67E-07,  avg # of iterations =  6.3

     negative rho (up, down):  2.770E-05 1.416E-02

     total cpu time spent up to now is      665.1 secs

     total energy              =      -1.00094510 Ry
     estimated scf accuracy    <       0.00001092 Ry

     total magnetization       =     1.06 Bohr mag/cell
     absolute magnetization    =     1.06 Bohr mag/cell

     iteration # 38     ecut=    60.00 Ry     beta= 0.70
     Davidson diagonalization with overlap
     ethr =  5.67E-07,  avg # of iterations =  7.0

     negative rho (up, down):  2.782E-05 1.381E-02

     total cpu time spent up to now is      683.3 secs

     total energy              =      -1.00093931 Ry
     estimated scf accuracy    <       0.00001025 Ry

     total magnetization       =     1.06 Bohr mag/cell
     absolute magnetization    =     1.06 Bohr mag/cell

     iteration # 39     ecut=    60.00 Ry     beta= 0.70
     Davidson diagonalization with overlap
     ethr =  5.67E-07,  avg # of iterations =  8.4

     negative rho (up, down):  2.763E-05 1.485E-02

     total cpu time spent up to now is      701.5 secs

     total energy              =      -1.00102808 Ry
     estimated scf accuracy    <       0.00001038 Ry

     total magnetization       =     1.06 Bohr mag/cell
     absolute magnetization    =     1.06 Bohr mag/cell

     iteration # 40     ecut=    60.00 Ry     beta= 0.70
     Davidson diagonalization with overlap
     ethr =  5.67E-07,  avg # of iterations =  6.2

     negative rho (up, down):  2.777E-05 1.408E-02

     total cpu time spent up to now is      718.1 secs

     total energy              =      -1.00094455 Ry
     estimated scf accuracy    <       0.00000973 Ry

     total magnetization       =     1.06 Bohr mag/cell
     absolute magnetization    =     1.06 Bohr mag/cell

     iteration # 41     ecut=    60.00 Ry     beta= 0.70
     Davidson diagonalization with overlap
     ethr =  5.67E-07,  avg # of iterations =  6.2

     negative rho (up, down):  2.758E-05 1.517E-02

     total cpu time spent up to now is      735.6 secs

     total energy              =      -1.00116239 Ry
     estimated scf accuracy    <       0.00001130 Ry

     total magnetization       =     1.06 Bohr mag/cell
     absolute magnetization    =     1.06 Bohr mag/cell

     iteration # 42     ecut=    60.00 Ry     beta= 0.70
     Davidson diagonalization with overlap
     ethr =  5.67E-07,  avg # of iterations =  2.5

     negative rho (up, down):  1.160E-04 2.941E-02

     total cpu time spent up to now is      750.7 secs

     total energy              =      -1.03301873 Ry
     estimated scf accuracy    <       0.00001243 Ry

     total magnetization       =     1.06 Bohr mag/cell
     absolute magnetization    =     1.06 Bohr mag/cell

     iteration # 43     ecut=    60.00 Ry     beta= 0.70
     Davidson diagonalization with overlap
     c_bands:  2 eigenvalues not converged
     c_bands:  1 eigenvalues not converged
     ethr =  5.67E-07,  avg # of iterations = 17.4

     negative rho (up, down):  2.695E-05 2.411E-02

     total cpu time spent up to now is      776.1 secs

     total energy              =      -1.03316770 Ry
     estimated scf accuracy    <       0.00003423 Ry

     total magnetization       =     1.04 Bohr mag/cell
     absolute magnetization    =     1.04 Bohr mag/cell

     iteration # 44     ecut=    60.00 Ry     beta= 0.70
     Davidson diagonalization with overlap
     ethr =  5.67E-07,  avg # of iterations = 14.1

     negative rho (up, down):  2.761E-05 1.774E-02

     total cpu time spent up to now is      798.5 secs

     total energy              =      -1.00148473 Ry
     estimated scf accuracy    <       0.00002059 Ry

     total magnetization       =     1.00 Bohr mag/cell
     absolute magnetization    =     1.00 Bohr mag/cell

     iteration # 45     ecut=    60.00 Ry     beta= 0.70
     Davidson diagonalization with overlap
     ethr =  5.67E-07,  avg # of iterations = 11.9

     negative rho (up, down):  2.738E-05 1.582E-02

     total cpu time spent up to now is      819.5 secs

     total energy              =      -1.00119313 Ry
     estimated scf accuracy    <       0.00001254 Ry

     total magnetization       =     1.06 Bohr mag/cell
     absolute magnetization    =     1.06 Bohr mag/cell

     iteration # 46     ecut=    60.00 Ry     beta= 0.70
     Davidson diagonalization with overlap
     ethr =  5.67E-07,  avg # of iterations =  6.8

     negative rho (up, down):  2.735E-05 1.702E-02

     total cpu time spent up to now is      837.7 secs

     total energy              =      -1.00148025 Ry
     estimated scf accuracy    <       0.00001246 Ry

     total magnetization       =     1.06 Bohr mag/cell
     absolute magnetization    =     1.06 Bohr mag/cell

     iteration # 47     ecut=    60.00 Ry     beta= 0.70
     Davidson diagonalization with overlap
     ethr =  5.67E-07,  avg # of iterations =  5.0

     negative rho (up, down):  2.745E-05 1.634E-02

     total cpu time spent up to now is      854.3 secs

     total energy              =      -1.00131306 Ry
     estimated scf accuracy    <       0.00001596 Ry

     total magnetization       =     1.06 Bohr mag/cell
     absolute magnetization    =     1.06 Bohr mag/cell

     iteration # 48     ecut=    60.00 Ry     beta= 0.70
     Davidson diagonalization with overlap
     ethr =  5.67E-07,  avg # of iterations =  2.7

     negative rho (up, down):  2.740E-05 1.693E-02

     total cpu time spent up to now is      869.6 secs

     total energy              =      -1.00122168 Ry
     estimated scf accuracy    <       0.00001466 Ry

     total magnetization       =     1.06 Bohr mag/cell
     absolute magnetization    =     1.06 Bohr mag/cell

     iteration # 49     ecut=    60.00 Ry     beta= 0.70
     Davidson diagonalization with overlap
     ethr =  5.67E-07,  avg # of iterations =  4.1

     negative rho (up, down):  2.738E-05 1.712E-02

     total cpu time spent up to now is      885.5 secs

     total energy              =      -1.00124494 Ry
     estimated scf accuracy    <       0.00001342 Ry

     total magnetization       =     1.06 Bohr mag/cell
     absolute magnetization    =     1.06 Bohr mag/cell

     iteration # 50     ecut=    60.00 Ry     beta= 0.70
     Davidson diagonalization with overlap
     ethr =  5.67E-07,  avg # of iterations =  1.5

     negative rho (up, down):  2.737E-05 1.720E-02

     total cpu time spent up to now is      899.8 secs

     total energy              =      -1.00124039 Ry
     estimated scf accuracy    <       0.00001329 Ry

     total magnetization       =     1.06 Bohr mag/cell
     absolute magnetization    =     1.06 Bohr mag/cell

     iteration # 51     ecut=    60.00 Ry     beta= 0.70
     Davidson diagonalization with overlap
     ethr =  5.67E-07,  avg # of iterations =  3.9

     negative rho (up, down):  2.731E-05 1.768E-02

     total cpu time spent up to now is      915.7 secs

     total energy              =      -1.00120795 Ry
     estimated scf accuracy    <       0.00001340 Ry

     total magnetization       =     1.06 Bohr mag/cell
     absolute magnetization    =     1.06 Bohr mag/cell

     iteration # 52     ecut=    60.00 Ry     beta= 0.70
     Davidson diagonalization with overlap
     c_bands:  1 eigenvalues not converged
     ethr =  5.67E-07,  avg # of iterations =  8.8

     negative rho (up, down):  2.730E-05 1.788E-02

     total cpu time spent up to now is      935.8 secs

     total energy              =      -1.00152630 Ry
     estimated scf accuracy    <       0.00001400 Ry

     total magnetization       =     1.06 Bohr mag/cell
     absolute magnetization    =     1.06 Bohr mag/cell

     iteration # 53     ecut=    60.00 Ry     beta= 0.70
     Davidson diagonalization with overlap
     ethr =  5.67E-07,  avg # of iterations =  8.4

     negative rho (up, down):  2.760E-05 1.495E-02

     total cpu time spent up to now is      955.5 secs

     total energy              =      -1.00146125 Ry
     estimated scf accuracy    <       0.00001734 Ry

     total magnetization       =     1.06 Bohr mag/cell
     absolute magnetization    =     1.06 Bohr mag/cell

     iteration # 54     ecut=    60.00 Ry     beta= 0.70
     Davidson diagonalization with overlap
     c_bands:  1 eigenvalues not converged
     ethr =  5.67E-07,  avg # of iterations =  7.7

     negative rho (up, down):  2.725E-05 1.826E-02

     total cpu time spent up to now is      974.9 secs

     total energy              =      -1.00182462 Ry
     estimated scf accuracy    <       0.00001601 Ry

     total magnetization       =     1.06 Bohr mag/cell
     absolute magnetization    =     1.06 Bohr mag/cell

     iteration # 55     ecut=    60.00 Ry     beta= 0.70
     Davidson diagonalization with overlap
     ethr =  5.67E-07,  avg # of iterations =  5.9

     negative rho (up, down):  1.516E-04 2.525E-02

     total cpu time spent up to now is      992.4 secs

     total energy              =      -1.00125413 Ry
     estimated scf accuracy    <       0.00001971 Ry

     total magnetization       =     1.06 Bohr mag/cell
     absolute magnetization    =     1.06 Bohr mag/cell

     iteration # 56     ecut=    60.00 Ry     beta= 0.70
     Davidson diagonalization with overlap
     c_bands:  3 eigenvalues not converged
     ethr =  5.67E-07,  avg # of iterations = 15.8

     negative rho (up, down):  2.747E-04 2.684E-02

     total cpu time spent up to now is     1017.3 secs

     total energy              =      -1.00117294 Ry
     estimated scf accuracy    <       0.00001535 Ry

     total magnetization       =     1.06 Bohr mag/cell
     absolute magnetization    =     1.06 Bohr mag/cell

     iteration # 57     ecut=    60.00 Ry     beta= 0.70
     Davidson diagonalization with overlap
     c_bands:  1 eigenvalues not converged
     ethr =  5.67E-07,  avg # of iterations = 11.5

     negative rho (up, down):  4.593E-05 4.368E-02

     total cpu time spent up to now is     1038.1 secs

     total energy              =      -1.00120236 Ry
     estimated scf accuracy    <       0.00001883 Ry

     total magnetization       =     1.04 Bohr mag/cell
     absolute magnetization    =     1.04 Bohr mag/cell

     iteration # 58     ecut=    60.00 Ry     beta= 0.70
     Davidson diagonalization with overlap
     c_bands:  1 eigenvalues not converged
     ethr =  5.67E-07,  avg # of iterations = 12.6

     negative rho (up, down):  3.443E-05 4.274E-02

     total cpu time spent up to now is     1060.3 secs

     total energy              =      -1.00126997 Ry
     estimated scf accuracy    <       0.00001457 Ry

     total magnetization       =     1.03 Bohr mag/cell
     absolute magnetization    =     1.03 Bohr mag/cell

     iteration # 59     ecut=    60.00 Ry     beta= 0.70
     Davidson diagonalization with overlap
     c_bands:  1 eigenvalues not converged
     c_bands:  1 eigenvalues not converged
     ethr =  5.67E-07,  avg # of iterations = 13.7

     negative rho (up, down):  9.947E-04 2.715E-02

     total cpu time spent up to now is     1082.3 secs

     total energy              =      -1.00170725 Ry
     estimated scf accuracy    <       0.00001077 Ry

     total magnetization       =     1.03 Bohr mag/cell
     absolute magnetization    =     1.03 Bohr mag/cell

     iteration # 60     ecut=    60.00 Ry     beta= 0.70
     Davidson diagonalization with overlap
     c_bands:  2 eigenvalues not converged
     ethr =  5.67E-07,  avg # of iterations = 15.6

     negative rho (up, down):  9.168E-04 2.702E-02

     total cpu time spent up to now is     1106.5 secs

     total energy              =      -1.00149783 Ry
     estimated scf accuracy    <       0.00000700 Ry

     total magnetization       =     1.03 Bohr mag/cell
     absolute magnetization    =     1.03 Bohr mag/cell

     iteration # 61     ecut=    60.00 Ry     beta= 0.70
     Davidson diagonalization with overlap
     c_bands:  1 eigenvalues not converged
     ethr =  5.67E-07,  avg # of iterations =  8.3

     negative rho (up, down):  8.682E-04 1.879E-02

     total cpu time spent up to now is     1124.9 secs

     total energy              =      -1.00123132 Ry
     estimated scf accuracy    <       0.00000527 Ry

     total magnetization       =     1.03 Bohr mag/cell
     absolute magnetization    =     1.03 Bohr mag/cell

     iteration # 62     ecut=    60.00 Ry     beta= 0.70
     Davidson diagonalization with overlap
     c_bands:  2 eigenvalues not converged
     ethr =  5.27E-07,  avg # of iterations = 14.4

     negative rho (up, down):  2.578E-03 1.430E-02

     total cpu time spent up to now is     1149.2 secs

     total energy              =      -1.00119283 Ry
     estimated scf accuracy    <       0.00000803 Ry

     total magnetization       =     1.02 Bohr mag/cell
     absolute magnetization    =     1.02 Bohr mag/cell

     iteration # 63     ecut=    60.00 Ry     beta= 0.70
     Davidson diagonalization with overlap
     c_bands:  1 eigenvalues not converged
     ethr =  5.27E-07,  avg # of iterations =  8.5

     negative rho (up, down):  1.130E-03 1.468E-02

     total cpu time spent up to now is     1167.9 secs

     total energy              =      -1.00186336 Ry
     estimated scf accuracy    <       0.00000823 Ry

     total magnetization       =     1.02 Bohr mag/cell
     absolute magnetization    =     1.02 Bohr mag/cell

     iteration # 64     ecut=    60.00 Ry     beta= 0.70
     Davidson diagonalization with overlap
     c_bands:  1 eigenvalues not converged
     c_bands:  2 eigenvalues not converged
     ethr =  5.27E-07,  avg # of iterations = 17.2

     negative rho (up, down):  4.007E-03 8.396E-03

     total cpu time spent up to now is     1193.5 secs

     total energy              =      -1.00156973 Ry
     estimated scf accuracy    <       0.00000492 Ry

     total magnetization       =     1.02 Bohr mag/cell
     absolute magnetization    =     1.02 Bohr mag/cell

     iteration # 65     ecut=    60.00 Ry     beta= 0.70
     Davidson diagonalization with overlap
     ethr =  4.92E-07,  avg # of iterations = 12.3

     negative rho (up, down):  7.036E-05 1.371E-02

     total cpu time spent up to now is     1213.5 secs

     total energy              =      -1.00197473 Ry
     estimated scf accuracy    <       0.00000125 Ry

     total magnetization       =     1.02 Bohr mag/cell
     absolute magnetization    =     1.02 Bohr mag/cell

     iteration # 66     ecut=    60.00 Ry     beta= 0.70
     Davidson diagonalization with overlap
     ethr =  1.25E-07,  avg # of iterations = 13.0

     negative rho (up, down):  8.318E-05 1.179E-02

     total cpu time spent up to now is     1235.2 secs

     total energy              =      -1.00247040 Ry
     estimated scf accuracy    <       0.00000229 Ry

     total magnetization       =     1.01 Bohr mag/cell
     absolute magnetization    =     1.01 Bohr mag/cell

     iteration # 67     ecut=    60.00 Ry     beta= 0.70
     Davidson diagonalization with overlap
     ethr =  1.25E-07,  avg # of iterations =  8.4

     negative rho (up, down):  5.466E-04 9.251E-03

     total cpu time spent up to now is     1254.1 secs

     total energy              =      -1.00227606 Ry
     estimated scf accuracy    <       0.00000220 Ry

     total magnetization       =     1.02 Bohr mag/cell
     absolute magnetization    =     1.02 Bohr mag/cell

     iteration # 68     ecut=    60.00 Ry     beta= 0.70
     Davidson diagonalization with overlap
     ethr =  1.25E-07,  avg # of iterations =  5.1

     negative rho (up, down):  4.924E-04 9.849E-03

     total cpu time spent up to now is     1270.0 secs

     total energy              =      -1.00264473 Ry
     estimated scf accuracy    <       0.00000207 Ry

     total magnetization       =     1.02 Bohr mag/cell
     absolute magnetization    =     1.02 Bohr mag/cell

     iteration # 69     ecut=    60.00 Ry     beta= 0.70
     Davidson diagonalization with overlap
     ethr =  1.25E-07,  avg # of iterations = 10.8

     negative rho (up, down):  8.107E-04 8.295E-03

     total cpu time spent up to now is     1289.9 secs

     total energy              =      -1.00322052 Ry
     estimated scf accuracy    <       0.00000079 Ry

     total magnetization       =     1.01 Bohr mag/cell
     absolute magnetization    =     1.01 Bohr mag/cell

     iteration # 70     ecut=    60.00 Ry     beta= 0.70
     Davidson diagonalization with overlap
     ethr =  7.89E-08,  avg # of iterations =  3.5

     negative rho (up, down):  5.585E-04 8.591E-03

     total cpu time spent up to now is     1305.1 secs

     total energy              =      -1.00246694 Ry
     estimated scf accuracy    <       0.00000113 Ry

     total magnetization       =     1.02 Bohr mag/cell
     absolute magnetization    =     1.02 Bohr mag/cell

     iteration # 71     ecut=    60.00 Ry     beta= 0.70
     Davidson diagonalization with overlap
     ethr =  7.89E-08,  avg # of iterations =  5.5

     negative rho (up, down):  8.228E-04 7.514E-03

     total cpu time spent up to now is     1321.6 secs

     total energy              =      -1.00467257 Ry
     estimated scf accuracy    <       0.00000022 Ry

     total magnetization       =     1.02 Bohr mag/cell
     absolute magnetization    =     1.02 Bohr mag/cell

     iteration # 72     ecut=    60.00 Ry     beta= 0.70
     Davidson diagonalization with overlap
     ethr =  2.19E-08,  avg # of iterations =  6.0

     negative rho (up, down):  8.304E-04 7.464E-03

     total cpu time spent up to now is     1339.0 secs

     total energy              =      -1.00571105 Ry
     estimated scf accuracy    <       0.00000056 Ry

     total magnetization       =     1.02 Bohr mag/cell
     absolute magnetization    =     1.02 Bohr mag/cell

     iteration # 73     ecut=    60.00 Ry     beta= 0.70
     Davidson diagonalization with overlap
     ethr =  2.19E-08,  avg # of iterations =  2.1

     negative rho (up, down):  8.275E-04 7.391E-03

     total cpu time spent up to now is     1353.5 secs

     total energy              =      -1.00899314 Ry
     estimated scf accuracy    <       0.00000049 Ry

     total magnetization       =     1.02 Bohr mag/cell
     absolute magnetization    =     1.02 Bohr mag/cell

     iteration # 74     ecut=    60.00 Ry     beta= 0.70
     Davidson diagonalization with overlap
     ethr =  2.19E-08,  avg # of iterations =  3.2

     negative rho (up, down):  7.208E-04 7.619E-03

     total cpu time spent up to now is     1368.6 secs

     total energy              =      -1.02869655 Ry
     estimated scf accuracy    <       0.00000115 Ry

     total magnetization       =     1.02 Bohr mag/cell
     absolute magnetization    =     1.02 Bohr mag/cell

     iteration # 75     ecut=    60.00 Ry     beta= 0.70
     Davidson diagonalization with overlap
     ethr =  2.19E-08,  avg # of iterations =  3.2

     negative rho (up, down):  6.503E-04 7.820E-03

     total cpu time spent up to now is     1383.6 secs

     total energy              =      -1.02804598 Ry
     estimated scf accuracy    <       0.00005558 Ry

     total magnetization       =     1.02 Bohr mag/cell
     absolute magnetization    =     1.02 Bohr mag/cell

     iteration # 76     ecut=    60.00 Ry     beta= 0.70
     Davidson diagonalization with overlap
     ethr =  2.19E-08,  avg # of iterations =  2.2

     negative rho (up, down):  6.784E-04 7.581E-03

     total cpu time spent up to now is     1398.3 secs

     total energy              =      -1.02718977 Ry
     estimated scf accuracy    <       0.00004688 Ry

     total magnetization       =     1.02 Bohr mag/cell
     absolute magnetization    =     1.02 Bohr mag/cell

     iteration # 77     ecut=    60.00 Ry     beta= 0.70
     Davidson diagonalization with overlap
     ethr =  2.19E-08,  avg # of iterations =  2.7

     negative rho (up, down):  6.402E-04 7.717E-03

     total cpu time spent up to now is     1413.2 secs

     total energy              =      -1.02661595 Ry
     estimated scf accuracy    <       0.00003969 Ry

     total magnetization       =     1.02 Bohr mag/cell
     absolute magnetization    =     1.02 Bohr mag/cell

     iteration # 78     ecut=    60.00 Ry     beta= 0.70
     Davidson diagonalization with overlap
     ethr =  2.19E-08,  avg # of iterations =  2.5

     negative rho (up, down):  5.416E-04 7.977E-03

     total cpu time spent up to now is     1428.0 secs

     total energy              =      -1.02321643 Ry
     estimated scf accuracy    <       0.00003421 Ry

     total magnetization       =     1.02 Bohr mag/cell
     absolute magnetization    =     1.02 Bohr mag/cell

     iteration # 79     ecut=    60.00 Ry     beta= 0.70
     Davidson diagonalization with overlap
     ethr =  2.19E-08,  avg # of iterations =  2.5

     negative rho (up, down):  4.699E-04 8.252E-03

     total cpu time spent up to now is     1442.8 secs

     total energy              =      -1.01673708 Ry
     estimated scf accuracy    <       0.00001787 Ry

     total magnetization       =     1.02 Bohr mag/cell
     absolute magnetization    =     1.02 Bohr mag/cell

     iteration # 80     ecut=    60.00 Ry     beta= 0.70
     Davidson diagonalization with overlap
     ethr =  2.19E-08,  avg # of iterations =  3.5

     negative rho (up, down):  3.385E-04 8.217E-03

     total cpu time spent up to now is     1458.0 secs

     total energy              =      -1.00470610 Ry
     estimated scf accuracy    <       0.00000586 Ry

     total magnetization       =     1.02 Bohr mag/cell
     absolute magnetization    =     1.02 Bohr mag/cell

     iteration # 81     ecut=    60.00 Ry     beta= 0.70
     Davidson diagonalization with overlap
     ethr =  2.19E-08,  avg # of iterations =  4.0

     negative rho (up, down):  2.452E-04 8.776E-03

     total cpu time spent up to now is     1473.3 secs

     total energy              =      -1.00418903 Ry
     estimated scf accuracy    <       0.00000527 Ry

     total magnetization       =     1.02 Bohr mag/cell
     absolute magnetization    =     1.02 Bohr mag/cell

     iteration # 82     ecut=    60.00 Ry     beta= 0.70
     Davidson diagonalization with overlap
     ethr =  2.19E-08,  avg # of iterations =  3.5

     negative rho (up, down):  3.582E-04 8.383E-03

     total cpu time spent up to now is     1488.4 secs

     total energy              =      -1.02668839 Ry
     estimated scf accuracy    <       0.00000555 Ry

     total magnetization       =     1.02 Bohr mag/cell
     absolute magnetization    =     1.02 Bohr mag/cell

     iteration # 83     ecut=    60.00 Ry     beta= 0.70
     Davidson diagonalization with overlap
     ethr =  2.19E-08,  avg # of iterations =  4.8

     negative rho (up, down):  3.751E-04 8.519E-03

     total cpu time spent up to now is     1504.1 secs

     total energy              =      -1.02427531 Ry
     estimated scf accuracy    <       0.00002783 Ry

     total magnetization       =     1.02 Bohr mag/cell
     absolute magnetization    =     1.02 Bohr mag/cell

     iteration # 84     ecut=    60.00 Ry     beta= 0.70
     Davidson diagonalization with overlap
     ethr =  2.19E-08,  avg # of iterations =  3.2

     negative rho (up, down):  3.412E-04 8.640E-03

     total cpu time spent up to now is     1519.1 secs

     total energy              =      -1.02459335 Ry
     estimated scf accuracy    <       0.00001828 Ry

     total magnetization       =     1.02 Bohr mag/cell
     absolute magnetization    =     1.02 Bohr mag/cell

     iteration # 85     ecut=    60.00 Ry     beta= 0.70
     Davidson diagonalization with overlap
     ethr =  2.19E-08,  avg # of iterations =  2.4

     negative rho (up, down):  2.995E-04 8.821E-03

     total cpu time spent up to now is     1533.9 secs

     total energy              =      -1.01610326 Ry
     estimated scf accuracy    <       0.00001737 Ry

     total magnetization       =     1.02 Bohr mag/cell
     absolute magnetization    =     1.02 Bohr mag/cell

     iteration # 86     ecut=    60.00 Ry     beta= 0.70
     Davidson diagonalization with overlap
     ethr =  2.19E-08,  avg # of iterations =  3.5

     negative rho (up, down):  2.823E-04 8.849E-03

     total cpu time spent up to now is     1549.0 secs

     total energy              =      -1.01267466 Ry
     estimated scf accuracy    <       0.00000633 Ry

     total magnetization       =     1.02 Bohr mag/cell
     absolute magnetization    =     1.02 Bohr mag/cell

     iteration # 87     ecut=    60.00 Ry     beta= 0.70
     Davidson diagonalization with overlap
     ethr =  2.19E-08,  avg # of iterations =  2.8

     negative rho (up, down):  2.826E-04 8.840E-03

     total cpu time spent up to now is     1563.8 secs

     total energy              =      -1.01260862 Ry
     estimated scf accuracy    <       0.00001296 Ry

     total magnetization       =     1.02 Bohr mag/cell
     absolute magnetization    =     1.02 Bohr mag/cell

     iteration # 88     ecut=    60.00 Ry     beta= 0.70
     Davidson diagonalization with overlap
     ethr =  2.19E-08,  avg # of iterations =  1.5

     negative rho (up, down):  3.065E-04 8.745E-03

     total cpu time spent up to now is     1578.3 secs

     total energy              =      -1.01062973 Ry
     estimated scf accuracy    <       0.00001292 Ry

     total magnetization       =     1.02 Bohr mag/cell
     absolute magnetization    =     1.02 Bohr mag/cell

     iteration # 89     ecut=    60.00 Ry     beta= 0.70
     Davidson diagonalization with overlap
     ethr =  2.19E-08,  avg # of iterations =  3.1

     negative rho (up, down):  3.149E-04 8.692E-03

     total cpu time spent up to now is     1593.3 secs

     total energy              =      -1.01056088 Ry
     estimated scf accuracy    <       0.00001134 Ry

     total magnetization       =     1.02 Bohr mag/cell
     absolute magnetization    =     1.02 Bohr mag/cell

     iteration # 90     ecut=    60.00 Ry     beta= 0.70
     Davidson diagonalization with overlap
     ethr =  2.19E-08,  avg # of iterations =  2.1

     negative rho (up, down):  2.950E-04 8.757E-03

     total cpu time spent up to now is     1608.0 secs

     total energy              =      -1.01088958 Ry
     estimated scf accuracy    <       0.00000976 Ry

     total magnetization       =     1.02 Bohr mag/cell
     absolute magnetization    =     1.02 Bohr mag/cell

     iteration # 91     ecut=    60.00 Ry     beta= 0.70
     Davidson diagonalization with overlap
     ethr =  2.19E-08,  avg # of iterations =  2.8

     negative rho (up, down):  2.937E-04 8.740E-03

     total cpu time spent up to now is     1622.9 secs

     total energy              =      -1.01090188 Ry
     estimated scf accuracy    <       0.00001131 Ry

     total magnetization       =     1.02 Bohr mag/cell
     absolute magnetization    =     1.02 Bohr mag/cell

     iteration # 92     ecut=    60.00 Ry     beta= 0.70
     Davidson diagonalization with overlap
     ethr =  2.19E-08,  avg # of iterations =  2.4

     negative rho (up, down):  2.917E-04 8.740E-03

     total cpu time spent up to now is     1637.5 secs

     total energy              =      -1.01260064 Ry
     estimated scf accuracy    <       0.00001125 Ry

     total magnetization       =     1.02 Bohr mag/cell
     absolute magnetization    =     1.02 Bohr mag/cell

     iteration # 93     ecut=    60.00 Ry     beta= 0.70
     Davidson diagonalization with overlap
     ethr =  2.19E-08,  avg # of iterations =  2.9

     negative rho (up, down):  3.746E-04 8.176E-03

     total cpu time spent up to now is     1652.4 secs

     total energy              =      -1.02089560 Ry
     estimated scf accuracy    <       0.00001118 Ry

     total magnetization       =     1.02 Bohr mag/cell
     absolute magnetization    =     1.02 Bohr mag/cell

     iteration # 94     ecut=    60.00 Ry     beta= 0.70
     Davidson diagonalization with overlap
     ethr =  2.19E-08,  avg # of iterations =  6.8

     negative rho (up, down):  3.737E-04 8.263E-03

     total cpu time spent up to now is     1670.3 secs

     total energy              =      -1.02500094 Ry
     estimated scf accuracy    <       0.00002023 Ry

     total magnetization       =     1.02 Bohr mag/cell
     absolute magnetization    =     1.02 Bohr mag/cell

     iteration # 95     ecut=    60.00 Ry     beta= 0.70
     Davidson diagonalization with overlap
     ethr =  2.19E-08,  avg # of iterations =  3.0

     negative rho (up, down):  3.704E-04 8.269E-03

     total cpu time spent up to now is     1685.2 secs

     total energy              =      -1.02298179 Ry
     estimated scf accuracy    <       0.00005820 Ry

     total magnetization       =     1.02 Bohr mag/cell
     absolute magnetization    =     1.02 Bohr mag/cell

     iteration # 96     ecut=    60.00 Ry     beta= 0.70
     Davidson diagonalization with overlap
     ethr =  2.19E-08,  avg # of iterations =  3.0

     negative rho (up, down):  3.647E-04 8.299E-03

     total cpu time spent up to now is     1700.1 secs

     total energy              =      -1.02809927 Ry
     estimated scf accuracy    <       0.00004209 Ry

     total magnetization       =     1.02 Bohr mag/cell
     absolute magnetization    =     1.02 Bohr mag/cell

     iteration # 97     ecut=    60.00 Ry     beta= 0.70
     Davidson diagonalization with overlap
     ethr =  2.19E-08,  avg # of iterations =  3.2

     negative rho (up, down):  3.611E-04 8.394E-03

     total cpu time spent up to now is     1715.1 secs

     total energy              =      -1.01182054 Ry
     estimated scf accuracy    <       0.00008782 Ry

     total magnetization       =     1.02 Bohr mag/cell
     absolute magnetization    =     1.02 Bohr mag/cell

     iteration # 98     ecut=    60.00 Ry     beta= 0.70
     Davidson diagonalization with overlap
     ethr =  2.19E-08,  avg # of iterations =  3.9

     negative rho (up, down):  3.624E-04 8.423E-03

     total cpu time spent up to now is     1730.4 secs

     total energy              =      -1.00932916 Ry
     estimated scf accuracy    <       0.00000420 Ry

     total magnetization       =     1.02 Bohr mag/cell
     absolute magnetization    =     1.02 Bohr mag/cell

     iteration # 99     ecut=    60.00 Ry     beta= 0.70
     Davidson diagonalization with overlap
     ethr =  2.19E-08,  avg # of iterations =  3.4

     negative rho (up, down):  3.672E-04 8.338E-03

     total cpu time spent up to now is     1745.5 secs

     total energy              =      -1.01021730 Ry
     estimated scf accuracy    <       0.00000498 Ry

     total magnetization       =     1.02 Bohr mag/cell
     absolute magnetization    =     1.02 Bohr mag/cell

     iteration #100     ecut=    60.00 Ry     beta= 0.70
     Davidson diagonalization with overlap
     ethr =  2.19E-08,  avg # of iterations =  2.8

     negative rho (up, down):  3.641E-04 8.350E-03

     total cpu time spent up to now is     1760.4 secs

     total energy              =      -1.01016576 Ry
     estimated scf accuracy    <       0.00000395 Ry

     total magnetization       =     1.02 Bohr mag/cell
     absolute magnetization    =     1.02 Bohr mag/cell

     iteration #101     ecut=    60.00 Ry     beta= 0.70
     Davidson diagonalization with overlap
     ethr =  2.19E-08,  avg # of iterations =  2.3

     negative rho (up, down):  3.483E-04 8.418E-03

     total cpu time spent up to now is     1775.0 secs

     total energy              =      -1.01247121 Ry
     estimated scf accuracy    <       0.00000447 Ry

     total magnetization       =     1.02 Bohr mag/cell
     absolute magnetization    =     1.02 Bohr mag/cell

     iteration #102     ecut=    60.00 Ry     beta= 0.70
     Davidson diagonalization with overlap
     ethr =  2.19E-08,  avg # of iterations =  3.5

     negative rho (up, down):  3.475E-04 8.417E-03

     total cpu time spent up to now is     1790.2 secs

     total energy              =      -1.01481488 Ry
     estimated scf accuracy    <       0.00000573 Ry

     total magnetization       =     1.02 Bohr mag/cell
     absolute magnetization    =     1.02 Bohr mag/cell

     iteration #103     ecut=    60.00 Ry     beta= 0.70
     Davidson diagonalization with overlap
     ethr =  2.19E-08,  avg # of iterations =  3.2

     negative rho (up, down):  3.435E-04 8.397E-03

     total cpu time spent up to now is     1805.2 secs

     total energy              =      -1.02713635 Ry
     estimated scf accuracy    <       0.00000527 Ry

     total magnetization       =     1.02 Bohr mag/cell
     absolute magnetization    =     1.02 Bohr mag/cell

     iteration #104     ecut=    60.00 Ry     beta= 0.70
     Davidson diagonalization with overlap
     ethr =  2.19E-08,  avg # of iterations =  3.5

     negative rho (up, down):  3.631E-04 8.351E-03

     total cpu time spent up to now is     1820.4 secs

     total energy              =      -1.02803263 Ry
     estimated scf accuracy    <       0.00006459 Ry

     total magnetization       =     1.02 Bohr mag/cell
     absolute magnetization    =     1.02 Bohr mag/cell

     iteration #105     ecut=    60.00 Ry     beta= 0.70
     Davidson diagonalization with overlap
     ethr =  2.19E-08,  avg # of iterations =  3.4

     negative rho (up, down):  3.633E-04 8.356E-03

     total cpu time spent up to now is     1835.8 secs

     total energy              =      -1.02847923 Ry
     estimated scf accuracy    <       0.00006732 Ry

     total magnetization       =     1.02 Bohr mag/cell
     absolute magnetization    =     1.02 Bohr mag/cell

     iteration #106     ecut=    60.00 Ry     beta= 0.70
     Davidson diagonalization with overlap
     ethr =  2.19E-08,  avg # of iterations =  2.0

     negative rho (up, down):  3.613E-04 8.361E-03

     total cpu time spent up to now is     1850.2 secs

     total energy              =      -1.02647974 Ry
     estimated scf accuracy    <       0.00007857 Ry

     total magnetization       =     1.02 Bohr mag/cell
     absolute magnetization    =     1.02 Bohr mag/cell

     iteration #107     ecut=    60.00 Ry     beta= 0.70
     Davidson diagonalization with overlap
     ethr =  2.19E-08,  avg # of iterations =  3.2

     negative rho (up, down):  3.601E-04 8.355E-03

     total cpu time spent up to now is     1865.2 secs

     total energy              =      -1.02793080 Ry
     estimated scf accuracy    <       0.00009246 Ry

     total magnetization       =     1.02 Bohr mag/cell
     absolute magnetization    =     1.02 Bohr mag/cell

     iteration #108     ecut=    60.00 Ry     beta= 0.70
     Davidson diagonalization with overlap
     ethr =  2.19E-08,  avg # of iterations =  2.2

     negative rho (up, down):  3.624E-04 8.341E-03

     total cpu time spent up to now is     1879.9 secs

     total energy              =      -1.02885195 Ry
     estimated scf accuracy    <       0.00010810 Ry

     total magnetization       =     1.02 Bohr mag/cell
     absolute magnetization    =     1.02 Bohr mag/cell

     iteration #109     ecut=    60.00 Ry     beta= 0.70
     Davidson diagonalization with overlap
     ethr =  2.19E-08,  avg # of iterations =  5.0

     negative rho (up, down):  3.533E-04 8.384E-03

     total cpu time spent up to now is     1895.9 secs

     total energy              =      -1.02893766 Ry
     estimated scf accuracy    <       0.00009995 Ry

     total magnetization       =     1.02 Bohr mag/cell
     absolute magnetization    =     1.02 Bohr mag/cell

     iteration #110     ecut=    60.00 Ry     beta= 0.70
     Davidson diagonalization with overlap
     ethr =  2.19E-08,  avg # of iterations =  3.8

     negative rho (up, down):  3.547E-04 8.387E-03

     total cpu time spent up to now is     1911.2 secs

     total energy              =      -1.02439406 Ry
     estimated scf accuracy    <       0.00010776 Ry

     total magnetization       =     1.02 Bohr mag/cell
     absolute magnetization    =     1.02 Bohr mag/cell

     iteration #111     ecut=    60.00 Ry     beta= 0.70
     Davidson diagonalization with overlap
     ethr =  2.19E-08,  avg # of iterations =  3.5

     negative rho (up, down):  3.559E-04 8.388E-03

     total cpu time spent up to now is     1926.4 secs

     total energy              =      -1.02147523 Ry
     estimated scf accuracy    <       0.00007948 Ry

     total magnetization       =     1.02 Bohr mag/cell
     absolute magnetization    =     1.02 Bohr mag/cell

     iteration #112     ecut=    60.00 Ry     beta= 0.70
     Davidson diagonalization with overlap
     ethr =  2.19E-08,  avg # of iterations =  3.4

     negative rho (up, down):  3.551E-04 8.445E-03

     total cpu time spent up to now is     1941.6 secs

     total energy              =      -1.01352141 Ry
     estimated scf accuracy    <       0.00004622 Ry

     total magnetization       =     1.02 Bohr mag/cell
     absolute magnetization    =     1.02 Bohr mag/cell

     iteration #113     ecut=    60.00 Ry     beta= 0.70
     Davidson diagonalization with overlap
     ethr =  2.19E-08,  avg # of iterations =  5.8

     negative rho (up, down):  3.456E-04 8.462E-03

     total cpu time spent up to now is     1959.0 secs

     total energy              =      -1.01415687 Ry
     estimated scf accuracy    <       0.00001125 Ry

     total magnetization       =     1.02 Bohr mag/cell
     absolute magnetization    =     1.02 Bohr mag/cell

     iteration #114     ecut=    60.00 Ry     beta= 0.70
     Davidson diagonalization with overlap
     ethr =  2.19E-08,  avg # of iterations =  2.9

     negative rho (up, down):  3.656E-04 8.519E-03

     total cpu time spent up to now is     1973.9 secs

     total energy              =      -1.01770330 Ry
     estimated scf accuracy    <       0.00001193 Ry

     total magnetization       =     1.02 Bohr mag/cell
     absolute magnetization    =     1.02 Bohr mag/cell

     iteration #115     ecut=    60.00 Ry     beta= 0.70
     Davidson diagonalization with overlap
     ethr =  2.19E-08,  avg # of iterations =  6.6

     negative rho (up, down):  3.559E-04 8.283E-03

     total cpu time spent up to now is     1991.2 secs

     total energy              =      -1.01007541 Ry
     estimated scf accuracy    <       0.00001727 Ry

     total magnetization       =     1.02 Bohr mag/cell
     absolute magnetization    =     1.02 Bohr mag/cell

     iteration #116     ecut=    60.00 Ry     beta= 0.70
     Davidson diagonalization with overlap
     ethr =  2.19E-08,  avg # of iterations =  3.5

     negative rho (up, down):  3.325E-04 8.513E-03

     total cpu time spent up to now is     2006.3 secs

     total energy              =      -1.01632400 Ry
     estimated scf accuracy    <       0.00000438 Ry

     total magnetization       =     1.02 Bohr mag/cell
     absolute magnetization    =     1.02 Bohr mag/cell

     iteration #117     ecut=    60.00 Ry     beta= 0.70
     Davidson diagonalization with overlap
     ethr =  2.19E-08,  avg # of iterations =  4.5

     negative rho (up, down):  3.570E-04 8.497E-03

     total cpu time spent up to now is     2022.0 secs

     total energy              =      -1.01683008 Ry
     estimated scf accuracy    <       0.00001011 Ry

     total magnetization       =     1.02 Bohr mag/cell
     absolute magnetization    =     1.02 Bohr mag/cell

     iteration #118     ecut=    60.00 Ry     beta= 0.70
     Davidson diagonalization with overlap
     ethr =  2.19E-08,  avg # of iterations =  3.5

     negative rho (up, down):  3.569E-04 8.459E-03

     total cpu time spent up to now is     2037.2 secs

     total energy              =      -1.01746438 Ry
     estimated scf accuracy    <       0.00000548 Ry

     total magnetization       =     1.02 Bohr mag/cell
     absolute magnetization    =     1.02 Bohr mag/cell

     iteration #119     ecut=    60.00 Ry     beta= 0.70
     Davidson diagonalization with overlap
     ethr =  2.19E-08,  avg # of iterations =  3.1

     negative rho (up, down):  3.615E-04 8.452E-03

     total cpu time spent up to now is     2052.3 secs

     total energy              =      -1.01746394 Ry
     estimated scf accuracy    <       0.00001101 Ry

     total magnetization       =     1.02 Bohr mag/cell
     absolute magnetization    =     1.02 Bohr mag/cell

     iteration #120     ecut=    60.00 Ry     beta= 0.70
     Davidson diagonalization with overlap
     ethr =  2.19E-08,  avg # of iterations =  2.7

     negative rho (up, down):  3.611E-04 8.451E-03

     total cpu time spent up to now is     2067.1 secs

     total energy              =      -1.01499809 Ry
     estimated scf accuracy    <       0.00000823 Ry

     total magnetization       =     1.02 Bohr mag/cell
     absolute magnetization    =     1.02 Bohr mag/cell

     iteration #121     ecut=    60.00 Ry     beta= 0.70
     Davidson diagonalization with overlap
     ethr =  2.19E-08,  avg # of iterations =  2.5

     negative rho (up, down):  3.557E-04 8.445E-03

     total cpu time spent up to now is     2081.8 secs

     total energy              =      -1.02310105 Ry
     estimated scf accuracy    <       0.00000371 Ry

     total magnetization       =     1.02 Bohr mag/cell
     absolute magnetization    =     1.02 Bohr mag/cell

     iteration #122     ecut=    60.00 Ry     beta= 0.70
     Davidson diagonalization with overlap
     ethr =  2.19E-08,  avg # of iterations =  3.5

     negative rho (up, down):  3.509E-04 8.449E-03

     total cpu time spent up to now is     2096.9 secs

     total energy              =      -1.02748876 Ry
     estimated scf accuracy    <       0.00002352 Ry

     total magnetization       =     1.02 Bohr mag/cell
     absolute magnetization    =     1.02 Bohr mag/cell

     iteration #123     ecut=    60.00 Ry     beta= 0.70
     Davidson diagonalization with overlap
     ethr =  2.19E-08,  avg # of iterations =  3.2

     negative rho (up, down):  3.553E-04 8.482E-03

     total cpu time spent up to now is     2111.9 secs

     total energy              =      -1.02875816 Ry
     estimated scf accuracy    <       0.00006083 Ry

     total magnetization       =     1.02 Bohr mag/cell
     absolute magnetization    =     1.02 Bohr mag/cell

     iteration #124     ecut=    60.00 Ry     beta= 0.70
     Davidson diagonalization with overlap
     ethr =  2.19E-08,  avg # of iterations =  2.5

     negative rho (up, down):  3.564E-04 8.496E-03

     total cpu time spent up to now is     2126.7 secs

     total energy              =      -1.03184878 Ry
     estimated scf accuracy    <       0.00007099 Ry

     total magnetization       =     1.02 Bohr mag/cell
     absolute magnetization    =     1.02 Bohr mag/cell

     iteration #125     ecut=    60.00 Ry     beta= 0.70
     Davidson diagonalization with overlap
     ethr =  2.19E-08,  avg # of iterations =  2.5

     negative rho (up, down):  3.531E-04 8.462E-03

     total cpu time spent up to now is     2141.4 secs

     total energy              =      -1.01632332 Ry
     estimated scf accuracy    <       0.00008676 Ry

     total magnetization       =     1.02 Bohr mag/cell
     absolute magnetization    =     1.02 Bohr mag/cell

     iteration #126     ecut=    60.00 Ry     beta= 0.70
     Davidson diagonalization with overlap
     ethr =  2.19E-08,  avg # of iterations =  3.9

     negative rho (up, down):  3.549E-04 8.459E-03

     total cpu time spent up to now is     2156.7 secs

     total energy              =      -1.02061697 Ry
     estimated scf accuracy    <       0.00000748 Ry

     total magnetization       =     1.02 Bohr mag/cell
     absolute magnetization    =     1.02 Bohr mag/cell

     iteration #127     ecut=    60.00 Ry     beta= 0.70
     Davidson diagonalization with overlap
     ethr =  2.19E-08,  avg # of iterations =  2.8

     negative rho (up, down):  3.548E-04 8.452E-03

     total cpu time spent up to now is     2171.5 secs

     total energy              =      -1.01871890 Ry
     estimated scf accuracy    <       0.00001314 Ry

     total magnetization       =     1.02 Bohr mag/cell
     absolute magnetization    =     1.02 Bohr mag/cell

     iteration #128     ecut=    60.00 Ry     beta= 0.70
     Davidson diagonalization with overlap
     ethr =  2.19E-08,  avg # of iterations =  2.7

     negative rho (up, down):  3.548E-04 8.454E-03

     total cpu time spent up to now is     2186.3 secs

     total energy              =      -1.01659215 Ry
     estimated scf accuracy    <       0.00000837 Ry

     total magnetization       =     1.02 Bohr mag/cell
     absolute magnetization    =     1.02 Bohr mag/cell

     iteration #129     ecut=    60.00 Ry     beta= 0.70
     Davidson diagonalization with overlap
     ethr =  2.19E-08,  avg # of iterations =  2.9

     negative rho (up, down):  3.576E-04 8.419E-03

     total cpu time spent up to now is     2201.2 secs

     total energy              =      -1.03284843 Ry
     estimated scf accuracy    <       0.00000485 Ry

     total magnetization       =     1.02 Bohr mag/cell
     absolute magnetization    =     1.02 Bohr mag/cell

     iteration #130     ecut=    60.00 Ry     beta= 0.70
     Davidson diagonalization with overlap
     ethr =  2.19E-08,  avg # of iterations =  3.2

     negative rho (up, down):  3.626E-04 8.424E-03

     total cpu time spent up to now is     2216.2 secs

     total energy              =      -1.02092889 Ry
     estimated scf accuracy    <       0.00008927 Ry

     total magnetization       =     1.02 Bohr mag/cell
     absolute magnetization    =     1.02 Bohr mag/cell

     iteration #131     ecut=    60.00 Ry     beta= 0.70
     Davidson diagonalization with overlap
     ethr =  2.19E-08,  avg # of iterations =  3.8

     negative rho (up, down):  3.614E-04 8.424E-03

     total cpu time spent up to now is     2231.5 secs

     total energy              =      -1.01773320 Ry
     estimated scf accuracy    <       0.00000713 Ry

     total magnetization       =     1.02 Bohr mag/cell
     absolute magnetization    =     1.02 Bohr mag/cell

     iteration #132     ecut=    60.00 Ry     beta= 0.70
     Davidson diagonalization with overlap
     ethr =  2.19E-08,  avg # of iterations =  2.8

     negative rho (up, down):  3.603E-04 8.417E-03

     total cpu time spent up to now is     2246.4 secs

     total energy              =      -1.03007098 Ry
     estimated scf accuracy    <       0.00000316 Ry

     total magnetization       =     1.02 Bohr mag/cell
     absolute magnetization    =     1.02 Bohr mag/cell

     iteration #133     ecut=    60.00 Ry     beta= 0.70
     Davidson diagonalization with overlap
     ethr =  2.19E-08,  avg # of iterations =  3.0

     negative rho (up, down):  3.629E-04 8.436E-03

     total cpu time spent up to now is     2261.3 secs

     total energy              =      -1.01906667 Ry
     estimated scf accuracy    <       0.00007147 Ry

     total magnetization       =     1.02 Bohr mag/cell
     absolute magnetization    =     1.02 Bohr mag/cell

     iteration #134     ecut=    60.00 Ry     beta= 0.70
     Davidson diagonalization with overlap
     ethr =  2.19E-08,  avg # of iterations =  3.4

     negative rho (up, down):  3.611E-04 8.435E-03

     total cpu time spent up to now is     2276.3 secs

     total energy              =      -1.02018581 Ry
     estimated scf accuracy    <       0.00000789 Ry

     total magnetization       =     1.02 Bohr mag/cell
     absolute magnetization    =     1.02 Bohr mag/cell

     iteration #135     ecut=    60.00 Ry     beta= 0.70
     Davidson diagonalization with overlap
     ethr =  2.19E-08,  avg # of iterations =  2.9

     negative rho (up, down):  3.607E-04 8.434E-03

     total cpu time spent up to now is     2291.2 secs

     total energy              =      -1.01849967 Ry
     estimated scf accuracy    <       0.00000556 Ry

     total magnetization       =     1.02 Bohr mag/cell
     absolute magnetization    =     1.02 Bohr mag/cell

     iteration #136     ecut=    60.00 Ry     beta= 0.70
     Davidson diagonalization with overlap
     ethr =  2.19E-08,  avg # of iterations =  2.5

     negative rho (up, down):  3.598E-04 8.433E-03

     total cpu time spent up to now is     2306.0 secs

     total energy              =      -1.02363509 Ry
     estimated scf accuracy    <       0.00000432 Ry

     total magnetization       =     1.02 Bohr mag/cell
     absolute magnetization    =     1.02 Bohr mag/cell

     iteration #137     ecut=    60.00 Ry     beta= 0.70
     Davidson diagonalization with overlap
     ethr =  2.19E-08,  avg # of iterations =  3.0

     negative rho (up, down):  3.598E-04 8.436E-03

     total cpu time spent up to now is     2320.9 secs

     total energy              =      -1.02169195 Ry
     estimated scf accuracy    <       0.00001699 Ry

     total magnetization       =     1.02 Bohr mag/cell
     absolute magnetization    =     1.02 Bohr mag/cell

     iteration #138     ecut=    60.00 Ry     beta= 0.70
     Davidson diagonalization with overlap
     ethr =  2.19E-08,  avg # of iterations =  2.5

     negative rho (up, down):  3.597E-04 8.437E-03

     total cpu time spent up to now is     2335.5 secs

     total energy              =      -1.02670555 Ry
     estimated scf accuracy    <       0.00000780 Ry

     total magnetization       =     1.02 Bohr mag/cell
     absolute magnetization    =     1.02 Bohr mag/cell

     iteration #139     ecut=    60.00 Ry     beta= 0.70
     Davidson diagonalization with overlap
     ethr =  2.19E-08,  avg # of iterations =  3.0

     negative rho (up, down):  3.598E-04 8.442E-03

     total cpu time spent up to now is     2350.3 secs

     total energy              =      -1.02509825 Ry
     estimated scf accuracy    <       0.00003744 Ry

     total magnetization       =     1.02 Bohr mag/cell
     absolute magnetization    =     1.02 Bohr mag/cell

     iteration #140     ecut=    60.00 Ry     beta= 0.70
     Davidson diagonalization with overlap
     ethr =  2.19E-08,  avg # of iterations =  2.5

     negative rho (up, down):  3.617E-04 8.436E-03

     total cpu time spent up to now is     2365.1 secs

     total energy              =      -1.02656953 Ry
     estimated scf accuracy    <       0.00002469 Ry

     total magnetization       =     1.02 Bohr mag/cell
     absolute magnetization    =     1.02 Bohr mag/cell

     iteration #141     ecut=    60.00 Ry     beta= 0.70
     Davidson diagonalization with overlap
     ethr =  2.19E-08,  avg # of iterations =  3.2

     negative rho (up, down):  3.620E-04 8.433E-03

     total cpu time spent up to now is     2380.2 secs

     total energy              =      -1.03125534 Ry
     estimated scf accuracy    <       0.00002635 Ry

     total magnetization       =     1.02 Bohr mag/cell
     absolute magnetization    =     1.02 Bohr mag/cell

     iteration #142     ecut=    60.00 Ry     beta= 0.70
     Davidson diagonalization with overlap
     ethr =  2.19E-08,  avg # of iterations =  2.8

     negative rho (up, down):  3.638E-04 8.428E-03

     total cpu time spent up to now is     2395.0 secs

     total energy              =      -1.02738255 Ry
     estimated scf accuracy    <       0.00005703 Ry

     total magnetization       =     1.02 Bohr mag/cell
     absolute magnetization    =     1.02 Bohr mag/cell

     iteration #143     ecut=    60.00 Ry     beta= 0.70
     Davidson diagonalization with overlap
     ethr =  2.19E-08,  avg # of iterations =  2.9

     negative rho (up, down):  3.678E-04 8.431E-03

     total cpu time spent up to now is     2409.9 secs

     total energy              =      -1.02783812 Ry
     estimated scf accuracy    <       0.00002273 Ry

     total magnetization       =     1.02 Bohr mag/cell
     absolute magnetization    =     1.02 Bohr mag/cell

     iteration #144     ecut=    60.00 Ry     beta= 0.70
     Davidson diagonalization with overlap
     ethr =  2.19E-08,  avg # of iterations =  3.4

     negative rho (up, down):  3.651E-04 8.391E-03

     total cpu time spent up to now is     2425.3 secs

     total energy              =      -1.03318045 Ry
     estimated scf accuracy    <       0.00002282 Ry

     total magnetization       =     1.02 Bohr mag/cell
     absolute magnetization    =     1.02 Bohr mag/cell

     iteration #145     ecut=    60.00 Ry     beta= 0.70
     Davidson diagonalization with overlap
     ethr =  2.19E-08,  avg # of iterations =  3.5

     negative rho (up, down):  3.661E-04 8.398E-03

     total cpu time spent up to now is     2440.4 secs

     total energy              =      -1.03326354 Ry
     estimated scf accuracy    <       0.00007420 Ry

     total magnetization       =     1.02 Bohr mag/cell
     absolute magnetization    =     1.02 Bohr mag/cell

     iteration #146     ecut=    60.00 Ry     beta= 0.70
     Davidson diagonalization with overlap
     ethr =  2.19E-08,  avg # of iterations =  1.9

     negative rho (up, down):  3.665E-04 8.399E-03

     total cpu time spent up to now is     2455.0 secs

     total energy              =      -1.03284213 Ry
     estimated scf accuracy    <       0.00007363 Ry

     total magnetization       =     1.02 Bohr mag/cell
     absolute magnetization    =     1.02 Bohr mag/cell

     iteration #147     ecut=    60.00 Ry     beta= 0.70
     Davidson diagonalization with overlap
     ethr =  2.19E-08,  avg # of iterations =  2.5

     negative rho (up, down):  3.632E-04 8.386E-03

     total cpu time spent up to now is     2469.7 secs

     total energy              =      -1.02570844 Ry
     estimated scf accuracy    <       0.00006870 Ry

     total magnetization       =     1.02 Bohr mag/cell
     absolute magnetization    =     1.02 Bohr mag/cell

     iteration #148     ecut=    60.00 Ry     beta= 0.70
     Davidson diagonalization with overlap
     ethr =  2.19E-08,  avg # of iterations =  3.8

     negative rho (up, down):  3.655E-04 8.483E-03

     total cpu time spent up to now is     2485.0 secs

     total energy              =      -1.02716730 Ry
     estimated scf accuracy    <       0.00001980 Ry

     total magnetization       =     1.02 Bohr mag/cell
     absolute magnetization    =     1.02 Bohr mag/cell

     iteration #149     ecut=    60.00 Ry     beta= 0.70
     Davidson diagonalization with overlap
     ethr =  2.19E-08,  avg # of iterations =  2.6

     negative rho (up, down):  3.716E-04 8.457E-03

     total cpu time spent up to now is     2499.8 secs

     total energy              =      -1.02506654 Ry
     estimated scf accuracy    <       0.00002701 Ry

     total magnetization       =     1.02 Bohr mag/cell
     absolute magnetization    =     1.02 Bohr mag/cell

     iteration #150     ecut=    60.00 Ry     beta= 0.70
     Davidson diagonalization with overlap
     ethr =  2.19E-08,  avg # of iterations =  3.2

     negative rho (up, down):  3.633E-04 8.427E-03

     total cpu time spent up to now is     2514.9 secs

     total energy              =      -1.02616993 Ry
     estimated scf accuracy    <       0.00001366 Ry

     total magnetization       =     1.02 Bohr mag/cell
     absolute magnetization    =     1.02 Bohr mag/cell

     iteration #151     ecut=    60.00 Ry     beta= 0.70
     Davidson diagonalization with overlap
     ethr =  2.19E-08,  avg # of iterations =  3.0

     negative rho (up, down):  3.613E-04 8.499E-03

     total cpu time spent up to now is     2529.8 secs

     total energy              =      -1.02277968 Ry
     estimated scf accuracy    <       0.00001607 Ry

[...]

     negative rho (up, down):  6.749E-04 8.537E-03

     total cpu time spent up to now is     4737.9 secs

     total energy              =      -1.03323867 Ry
     estimated scf accuracy    <       0.00000896 Ry

     total magnetization       =     1.02 Bohr mag/cell
     absolute magnetization    =     1.02 Bohr mag/cell

     iteration #295     ecut=    60.00 Ry     beta= 0.70
     Davidson diagonalization with overlap
     ethr =  2.19E-08,  avg # of iterations = 14.0

     negative rho (up, down):  4.851E-04 8.468E-03

     total cpu time spent up to now is     4759.2 secs

     total energy              =      -1.03324834 Ry
     estimated scf accuracy    <       0.00000902 Ry

     total magnetization       =     1.01 Bohr mag/cell
     absolute magnetization    =     1.01 Bohr mag/cell

     iteration #296     ecut=    60.00 Ry     beta= 0.70
     Davidson diagonalization with overlap
     ethr =  2.19E-08,  avg # of iterations =  5.2

     negative rho (up, down):  4.286E-04 8.300E-03

     total cpu time spent up to now is     4775.8 secs

     total energy              =      -1.03325212 Ry
     estimated scf accuracy    <       0.00000795 Ry

     total magnetization       =     1.01 Bohr mag/cell
     absolute magnetization    =     1.01 Bohr mag/cell

     iteration #297     ecut=    60.00 Ry     beta= 0.70
     Davidson diagonalization with overlap
     ethr =  2.19E-08,  avg # of iterations =  4.2

     negative rho (up, down):  4.292E-04 8.245E-03

     total cpu time spent up to now is     4791.4 secs

     total energy              =      -1.03325368 Ry
     estimated scf accuracy    <       0.00001088 Ry

     total magnetization       =     1.02 Bohr mag/cell
     absolute magnetization    =     1.02 Bohr mag/cell

     iteration #298     ecut=    60.00 Ry     beta= 0.70
     Davidson diagonalization with overlap
     ethr =  2.19E-08,  avg # of iterations =  1.9

     negative rho (up, down):  4.521E-04 8.246E-03

     total cpu time spent up to now is     4806.0 secs

     total energy              =      -1.03325341 Ry
     estimated scf accuracy    <       0.00001334 Ry

     total magnetization       =     1.02 Bohr mag/cell
     absolute magnetization    =     1.02 Bohr mag/cell

     iteration #299     ecut=    60.00 Ry     beta= 0.70
     Davidson diagonalization with overlap
     ethr =  2.19E-08,  avg # of iterations =  2.3

     negative rho (up, down):  4.638E-04 8.191E-03

     total cpu time spent up to now is     4820.8 secs

     total energy              =      -1.03325274 Ry
     estimated scf accuracy    <       0.00001162 Ry

     total magnetization       =     1.02 Bohr mag/cell
     absolute magnetization    =     1.02 Bohr mag/cell

     iteration #300     ecut=    60.00 Ry     beta= 0.70
     Davidson diagonalization with overlap
     ethr =  2.19E-08,  avg # of iterations =  4.0

     negative rho (up, down):  4.325E-04 8.232E-03

     total cpu time spent up to now is     4836.2 secs

     total energy              =      -1.03325284 Ry
     estimated scf accuracy    <       0.00000817 Ry

     total magnetization       =     1.02 Bohr mag/cell
     absolute magnetization    =     1.02 Bohr mag/cell

     iteration #301     ecut=    60.00 Ry     beta= 0.70
     Davidson diagonalization with overlap
     ethr =  2.19E-08,  avg # of iterations =  7.8

     negative rho (up, down):  4.044E-04 8.357E-03

     total cpu time spent up to now is     4853.9 secs

     total energy              =      -1.03325323 Ry
     estimated scf accuracy    <       0.00000814 Ry

     total magnetization       =     1.02 Bohr mag/cell
     absolute magnetization    =     1.02 Bohr mag/cell

     iteration #302     ecut=    60.00 Ry     beta= 0.70
     Davidson diagonalization with overlap
     ethr =  2.19E-08,  avg # of iterations =  2.6

     negative rho (up, down):  4.094E-04 8.316E-03

     total cpu time spent up to now is     4868.7 secs

     total energy              =      -1.03325347 Ry
     estimated scf accuracy    <       0.00000804 Ry

     total magnetization       =     1.02 Bohr mag/cell
     absolute magnetization    =     1.02 Bohr mag/cell

     iteration #303     ecut=    60.00 Ry     beta= 0.70
     Davidson diagonalization with overlap
     ethr =  2.19E-08,  avg # of iterations =  1.4

     negative rho (up, down):  3.960E-04 8.433E-03

     total cpu time spent up to now is     4883.0 secs

     total energy              =      -1.03325314 Ry
     estimated scf accuracy    <       0.00000794 Ry

     total magnetization       =     1.02 Bohr mag/cell
     absolute magnetization    =     1.02 Bohr mag/cell

     iteration #304     ecut=    60.00 Ry     beta= 0.70
     Davidson diagonalization with overlap
     ethr =  2.19E-08,  avg # of iterations =  3.6

     negative rho (up, down):  5.661E-03 1.065E-02

     total cpu time spent up to now is     4898.1 secs

     total energy              =      -1.03316134 Ry
     estimated scf accuracy    <       0.00000788 Ry

     total magnetization       =     1.02 Bohr mag/cell
     absolute magnetization    =     1.02 Bohr mag/cell

     iteration #305     ecut=    60.00 Ry     beta= 0.70
     Davidson diagonalization with overlap
     c_bands:  1 eigenvalues not converged
     c_bands:  2 eigenvalues not converged
     c_bands:  2 eigenvalues not converged
     ethr =  2.19E-08,  avg # of iterations = 16.8

     negative rho (up, down):  5.418E-03 1.086E-02

     total cpu time spent up to now is     4923.7 secs

     total energy              =      -1.03319137 Ry
     estimated scf accuracy    <       0.00000848 Ry

     total magnetization       =     1.01 Bohr mag/cell
     absolute magnetization    =     1.01 Bohr mag/cell

     iteration #306     ecut=    60.00 Ry     beta= 0.70
     Davidson diagonalization with overlap
     ethr =  2.19E-08,  avg # of iterations =  7.2

     negative rho (up, down):  4.592E-03 9.990E-03

     total cpu time spent up to now is     4940.0 secs

     total energy              =      -1.03320860 Ry
     estimated scf accuracy    <       0.00000826 Ry

     total magnetization       =     1.01 Bohr mag/cell
     absolute magnetization    =     1.01 Bohr mag/cell

     iteration #307     ecut=    60.00 Ry     beta= 0.70
     Davidson diagonalization with overlap
     ethr =  2.19E-08,  avg # of iterations =  4.5

     negative rho (up, down):  5.575E-03 8.285E-03

     total cpu time spent up to now is     4955.5 secs

     total energy              =      -1.03318971 Ry
     estimated scf accuracy    <       0.00000602 Ry

     total magnetization       =     1.01 Bohr mag/cell
     absolute magnetization    =     1.01 Bohr mag/cell

     iteration #308     ecut=    60.00 Ry     beta= 0.70
     Davidson diagonalization with overlap
     ethr =  2.19E-08,  avg # of iterations =  3.6

     negative rho (up, down):  8.144E-03 6.895E-03

     total cpu time spent up to now is     4971.1 secs

     total energy              =      -1.03071480 Ry
     estimated scf accuracy    <       0.00000600 Ry

     total magnetization       =     1.01 Bohr mag/cell
     absolute magnetization    =     1.01 Bohr mag/cell

     iteration #309     ecut=    60.00 Ry     beta= 0.70
     Davidson diagonalization with overlap
     ethr =  2.19E-08,  avg # of iterations = 10.9

     negative rho (up, down):  8.494E-03 7.027E-03

     total cpu time spent up to now is     4990.9 secs

     total energy              =      -1.03166806 Ry
     estimated scf accuracy    <       0.00001094 Ry

     total magnetization       =     1.01 Bohr mag/cell
     absolute magnetization    =     1.01 Bohr mag/cell

     iteration #310     ecut=    60.00 Ry     beta= 0.70
     Davidson diagonalization with overlap
     ethr =  2.19E-08,  avg # of iterations =  4.1

     negative rho (up, down):  2.002E-03 7.233E-03

     total cpu time spent up to now is     5006.2 secs

     total energy              =      -1.03291284 Ry
     estimated scf accuracy    <       0.00001021 Ry

     total magnetization       =     1.01 Bohr mag/cell
     absolute magnetization    =     1.01 Bohr mag/cell

     iteration #311     ecut=    60.00 Ry     beta= 0.70
     Davidson diagonalization with overlap
     ethr =  2.19E-08,  avg # of iterations =  7.5

     negative rho (up, down):  1.200E-03 8.006E-03

     total cpu time spent up to now is     5025.0 secs

     total energy              =      -1.03324763 Ry
     estimated scf accuracy    <       0.00000096 Ry

     total magnetization       =     1.02 Bohr mag/cell
     absolute magnetization    =     1.02 Bohr mag/cell

     iteration #312     ecut=    60.00 Ry     beta= 0.70
     Davidson diagonalization with overlap
     ethr =  2.19E-08,  avg # of iterations =  2.8

     negative rho (up, down):  1.015E-03 8.188E-03

     total cpu time spent up to now is     5039.9 secs

     total energy              =      -1.03325000 Ry
     estimated scf accuracy    <       0.00000062 Ry

     total magnetization       =     1.02 Bohr mag/cell
     absolute magnetization    =     1.02 Bohr mag/cell

     iteration #313     ecut=    60.00 Ry     beta= 0.70
     Davidson diagonalization with overlap
     ethr =  2.19E-08,  avg # of iterations =  4.3

     negative rho (up, down):  4.736E-04 8.600E-03

     total cpu time spent up to now is     5056.0 secs

     total energy              =      -1.03325250 Ry
     estimated scf accuracy    <       0.00000041 Ry

     total magnetization       =     1.02 Bohr mag/cell
     absolute magnetization    =     1.02 Bohr mag/cell

     iteration #314     ecut=    60.00 Ry     beta= 0.70
     Davidson diagonalization with overlap
     ethr =  2.19E-08,  avg # of iterations =  6.0

     negative rho (up, down):  1.253E-04 8.794E-03

     total cpu time spent up to now is     5072.2 secs

     total energy              =      -1.03325177 Ry
     estimated scf accuracy    <       0.00000011 Ry

     total magnetization       =     1.02 Bohr mag/cell
     absolute magnetization    =     1.02 Bohr mag/cell

     iteration #315     ecut=    60.00 Ry     beta= 0.70
     Davidson diagonalization with overlap
     ethr =  1.15E-08,  avg # of iterations =  5.8

     negative rho (up, down):  8.787E-05 8.604E-03

     total cpu time spent up to now is     5089.0 secs

     total energy              =      -1.03325114 Ry
     estimated scf accuracy    <       0.00000016 Ry

     total magnetization       =     1.02 Bohr mag/cell
     absolute magnetization    =     1.02 Bohr mag/cell

     iteration #316     ecut=    60.00 Ry     beta= 0.70
     Davidson diagonalization with overlap
     ethr =  1.15E-08,  avg # of iterations =  3.6

     negative rho (up, down):  1.050E-04 8.710E-03

     total cpu time spent up to now is     5104.0 secs

     total energy              =      -1.03325112 Ry
     estimated scf accuracy    <       0.00000024 Ry

     total magnetization       =     1.02 Bohr mag/cell
     absolute magnetization    =     1.02 Bohr mag/cell

     iteration #317     ecut=    60.00 Ry     beta= 0.70
     Davidson diagonalization with overlap
     ethr =  1.15E-08,  avg # of iterations =  3.0

     negative rho (up, down):  1.129E-04 8.626E-03

     total cpu time spent up to now is     5118.8 secs

     total energy              =      -1.03325109 Ry
     estimated scf accuracy    <       0.00000019 Ry

     total magnetization       =     1.02 Bohr mag/cell
     absolute magnetization    =     1.02 Bohr mag/cell

     iteration #318     ecut=    60.00 Ry     beta= 0.70
     Davidson diagonalization with overlap
     ethr =  1.15E-08,  avg # of iterations =  2.8

     negative rho (up, down):  1.190E-04 8.595E-03

     total cpu time spent up to now is     5133.5 secs

     total energy              =      -1.03325087 Ry
     estimated scf accuracy    <       0.00000018 Ry

     total magnetization       =     1.02 Bohr mag/cell
     absolute magnetization    =     1.02 Bohr mag/cell

     iteration #319     ecut=    60.00 Ry     beta= 0.70
     Davidson diagonalization with overlap
     ethr =  1.15E-08,  avg # of iterations =  3.0

     negative rho (up, down):  1.317E-04 8.499E-03

     total cpu time spent up to now is     5148.3 secs

     total energy              =      -1.03325096 Ry
     estimated scf accuracy    <       0.00000017 Ry

     total magnetization       =     1.02 Bohr mag/cell
     absolute magnetization    =     1.02 Bohr mag/cell

     iteration #320     ecut=    60.00 Ry     beta= 0.70
     Davidson diagonalization with overlap
     ethr =  1.15E-08,  avg # of iterations =  3.1

     negative rho (up, down):  2.378E-04 8.333E-03

     total cpu time spent up to now is     5163.2 secs

     total energy              =      -1.03325049 Ry
     estimated scf accuracy    <       0.00000015 Ry

     total magnetization       =     1.02 Bohr mag/cell
     absolute magnetization    =     1.02 Bohr mag/cell

     iteration #321     ecut=    60.00 Ry     beta= 0.70
     Davidson diagonalization with overlap
     ethr =  1.15E-08,  avg # of iterations =  8.1

     negative rho (up, down):  3.763E-04 8.288E-03

     total cpu time spent up to now is     5181.0 secs

     total energy              =      -1.03325056 Ry
     estimated scf accuracy    <       0.00000005 Ry

     total magnetization       =     1.02 Bohr mag/cell
     absolute magnetization    =     1.02 Bohr mag/cell

     iteration #322     ecut=    60.00 Ry     beta= 0.70
     Davidson diagonalization with overlap
     ethr =  4.75E-09,  avg # of iterations = 10.2

     negative rho (up, down):  3.282E-04 8.593E-03

     Magnetic moment per site:
     atom:    1    charge:    1.0024    magn:    1.0059    constr:    0.0000

     total cpu time spent up to now is     5196.4 secs

     End of self-consistent calculation

 ------ SPIN UP ------------


          k = 0.0000 0.0000 0.0000 (423701 PWs)   bands (ev):

     0.1203   2.3116   2.6116   2.7651   2.7758

          k = 0.0000 0.2500 0.0000 (423725 PWs)   bands (ev):

     0.1203   2.3244   2.5597   2.7654   2.7911

          k = 0.0000-0.5000 0.0000 (423542 PWs)   bands (ev):

     0.1203   2.3412   2.5130   2.7989   2.8287

          k = 0.2500 0.0000 0.0000 (423725 PWs)   bands (ev):

     0.1203   2.3249   2.5563   2.7715   2.7921

          k = 0.2500 0.2500 0.0000 (423766 PWs)   bands (ev):

     0.1203   2.3362   2.5555   2.6692   2.8164

          k = 0.2500-0.5000 0.0000 (423782 PWs)   bands (ev):

     0.1203   2.3507   2.5346   2.6753   2.7298

          k = 0.2500-0.2500 0.0000 (423766 PWs)   bands (ev):

     0.1203   2.3363   2.5529   2.6757   2.8138

          k =-0.5000 0.0000 0.0000 (423542 PWs)   bands (ev):

     0.1203   2.3426   2.5079   2.8139   2.8326

          k =-0.5000 0.2500 0.0000 (423782 PWs)   bands (ev):

     0.1203   2.3515   2.5298   2.6863   2.7227

          k =-0.5000-0.5000 0.0000 (423708 PWs)   bands (ev):

     0.1203   2.3618   2.5777   2.6265   2.6351

 ------ SPIN DOWN ----------


          k = 0.0000 0.0000 0.0000 (423701 PWs)   bands (ev):

     2.4508   2.7295   2.8521   2.8552   2.9046

          k = 0.0000 0.2500 0.0000 (423725 PWs)   bands (ev):

     2.4732   2.6478   2.8438   2.8780   3.0291

          k = 0.0000-0.5000 0.0000 (423542 PWs)   bands (ev):

     2.5295   2.5530   2.8885   2.9343   2.9432

          k = 0.2500 0.0000 0.0000 (423725 PWs)   bands (ev):

     2.4733   2.6469   2.8479   2.8757   3.0268

          k = 0.2500 0.2500 0.0000 (423766 PWs)   bands (ev):

     2.4954   2.6407   2.7359   2.8832   3.0411

          k = 0.2500-0.5000 0.0000 (423782 PWs)   bands (ev):

     2.5500   2.5723   2.7593   2.7837   3.1261

          k = 0.2500-0.2500 0.0000 (423766 PWs)   bands (ev):

     2.4955   2.6399   2.7370   2.8833   3.0386

          k =-0.5000 0.0000 0.0000 (423542 PWs)   bands (ev):

     2.5339   2.5477   2.9003   2.9274   2.9327

          k =-0.5000 0.2500 0.0000 (423782 PWs)   bands (ev):

     2.5541   2.5672   2.7651   2.7789   3.1312

          k =-0.5000-0.5000 0.0000 (423708 PWs)   bands (ev):

     2.5902   2.5992   2.6862   2.6979   3.3447

     the Fermi energy is     2.2274 ev

!    total energy              =      -1.03325048 Ry
     estimated scf accuracy    <          6.2E-09 Ry
     smearing contrib. (-TS)   =       0.00046351 Ry
     internal energy E=F+TS    =      -1.03371399 Ry

     The total energy is F=E-TS. E is the sum of the following terms:
     one-electron contribution =      -0.36016564 Ry
     hartree contribution      =       0.59548930 Ry
     xc contribution           =      -0.64996592 Ry
     ewald contribution        =      -0.61907173 Ry
     Dispersion Correction     =      -0.00000001 Ry

     total magnetization       =     1.02 Bohr mag/cell
     absolute magnetization    =     1.02 Bohr mag/cell

     convergence has been achieved in 322 iterations

     Forces acting on atoms (cartesian axes, Ry/au):

     atom    1 type  1   force =     0.00000000    0.00000000    0.00001479

     Total force =     0.000000     Total SCF correction =     0.000000

     BFGS Geometry Optimization
     Energy error            =      0.0E+00
     Gradient error          =      0.0E+00

     bfgs converged in   1 scf cycles and   0 bfgs steps
     (criteria: energy <  7.3E-07 Ry, force <  3.9E-04 Ry/Bohr)

     End of BFGS Geometry Optimization

     Final energy   =      -1.0332504779 Ry
Begin final coordinates

ATOMIC_POSITIONS (angstrom)
H            10.0000000000       10.0000000000        0.0000000000    0   0   0
End final coordinates



     Writing output data file ./H_ESM_p5.save/

     init_run     :     18.85s CPU     19.98s WALL (       1 calls)
     electrons    :   4820.01s CPU   5179.21s WALL (       1 calls)
     forces       :      1.71s CPU      1.74s WALL (       1 calls)

     Called by init_run:
     wfcinit      :      1.06s CPU      1.20s WALL (       1 calls)
     potinit      :      7.47s CPU      8.16s WALL (       1 calls)
     hinit0       :      0.60s CPU      0.66s WALL (       1 calls)

     Called by electrons:
     c_bands      :   1263.28s CPU   1284.48s WALL (     322 calls)
     sum_band     :    539.29s CPU    546.74s WALL (     322 calls)
     v_of_rho     :   1843.29s CPU   2006.81s WALL (     323 calls)
     newd         :    204.91s CPU    210.34s WALL (     323 calls)
     mix_rho      :    638.75s CPU    777.22s WALL (     322 calls)

     Called by c_bands:
     init_us_2    :      2.26s CPU      2.51s WALL (    1938 calls)
     cegterg      :   1234.12s CPU   1250.72s WALL (     966 calls)

     Called by *egterg:
     cdiaghg      :      8.01s CPU      8.15s WALL (    8578 calls)
     h_psi        :   1116.72s CPU   1130.90s WALL (    8581 calls)
     s_psi        :      2.43s CPU      2.48s WALL (    8581 calls)
     g_psi        :      2.37s CPU      2.41s WALL (    7612 calls)

     Called by h_psi:
     h_psi:calbec :      7.29s CPU      7.38s WALL (    8581 calls)
     vloc_psi     :   1100.06s CPU   1114.02s WALL (    8581 calls)
     add_vuspsi   :      4.46s CPU      4.53s WALL (    8581 calls)

     General routines
     calbec       :      9.02s CPU      9.15s WALL (    9559 calls)
     fft          :   1866.58s CPU   1917.14s WALL (    8072 calls)
     ffts         :    103.29s CPU    104.27s WALL (    1290 calls)
     fftw         :   1053.46s CPU   1066.50s WALL (   50094 calls)
     interpolate  :    219.49s CPU    238.80s WALL (     646 calls)
     davcio       :      1.74s CPU     85.84s WALL (   10499 calls)

     Parallel routines
     fft_scatt_xy :    449.12s CPU    454.93s WALL (   59456 calls)
     fft_scatt_yz :   1136.28s CPU   1148.37s WALL (   59456 calls)

     PWSCF        :      1h20m CPU      1h26m WALL


   This run was terminated on:   0: 1:28   1Jul2022            

=------------------------------------------------------------------------------=
   JOB DONE.
=------------------------------------------------------------------------------=
