
     Program PWSCF v.6.4.1 starts on 12Jun2022 at 21: 0:43 

     This program is part of the open-source Quantum ESPRESSO suite
     for quantum simulation of materials; please cite
         "P. Giannozzi et al., J. Phys.:Condens. Matter 21 395502 (2009);
         "P. Giannozzi et al., J. Phys.:Condens. Matter 29 465901 (2017);
          URL http://www.quantum-espresso.org", 
     in publications or presentations arising from this work. More details at
     http://www.quantum-espresso.org/quote

     Parallel version (MPI), running on   160 processors

     MPI processes distributed on     8 nodes
     K-points division:     npool     =       8
     R & G space division:  proc/nbgrp/npool/nimage =      20
     Waiting for input...
     Reading input from standard input
Warning: card &CELL ignored
Warning: card / ignored

     Current dimensions of program PWSCF are:
     Max number of different atomic species (ntypx) = 10
     Max number of k-points (npk) =  40000
     Max angular momentum in pseudopotentials (lmaxx) =  3

     IMPORTANT: XC functional enforced from input :
     Exchange-correlation      = PBE ( 1  4  3  4 0 0)
     Any further DFT definition will be discarded
     Please, verify this is what you really want

               file Fe.pbe-spn-kjpaw_psl.0.2.1.UPF: wavefunction(s)  3D renormalized

     -------------------------------------------------
     Parameters for Dispersion (Grimme-D2) Correction:
     -------------------------------------------------
       atom      VdW radius       C_6     

        Fe         2.952        374.666

     Subspace diagonalization in iterative solution of the eigenvalue problem:
     one sub-group per band group will be used
     scalapack distributed-memory algorithm (size of sub-group:  3*  3 procs)


     Parallelization info
     --------------------
     sticks:   dense  smooth     PW     G-vecs:    dense   smooth      PW
     Min         634     317     83               145278    51361    6989
     Max         635     318     84               145287    51370    7000
     Sum       12685    6351   1677              2905599  1027285  139897



     bravais-lattice index     =            0
     lattice parameter (alat)  =      18.7640  a.u.
     unit-cell volume          =   16360.3163 (a.u.)^3
     number of atoms/cell      =           64
     number of atomic types    =            1
     number of electrons       =      1024.00
     number of Kohn-Sham states=          614
     kinetic-energy cutoff     =      60.0000  Ry
     charge density cutoff     =     480.0000  Ry
     convergence threshold     =      1.0E-08
     mixing beta               =       0.2000
     number of iterations used =           10  local-TF  mixing
     Exchange-correlation      = PBE ( 1  4  3  4 0 0)
     nstep                     =           50


     Effective Screening Medium Method
     =================================
     Boundary Conditions: Metal-Slab-Metal
     field strength                   =    -0.01 Ry/a.u.
     grid points for fit at edges     =        4 


     celldm(1)=  18.764036  celldm(2)=   0.000000  celldm(3)=   0.000000
     celldm(4)=   0.000000  celldm(5)=   0.000000  celldm(6)=   0.000000

     crystal axes: (cart. coord. in units of alat)
               a(1) = (   1.000000   0.000000   0.000000 )  
               a(2) = (   0.333330   0.942807   0.000000 )  
               a(3) = (   0.000000   0.000000   2.626577 )  

     reciprocal axes: (cart. coord. in units 2 pi/alat)
               b(1) = (  1.000000 -0.353551  0.000000 )  
               b(2) = (  0.000000  1.060663  0.000000 )  
               b(3) = (  0.000000  0.000000  0.380724 )  


     PseudoPot. # 1 for Fe read from file:
     ../SSSP/Fe.pbe-spn-kjpaw_psl.0.2.1.UPF
     MD5 check sum: e86618425769142926afa95317d90200
     Pseudo is Projector augmented-wave + core cor, Zval = 16.0
     Generated using "atomic" code by A. Dal Corso v.5.0.99 svn rev. 10869
     Shape of augmentation charge: PSQ
     Using radial grid of 1191 points,  6 beta functions with: 
                l(1) =   0
                l(2) =   0
                l(3) =   1
                l(4) =   1
                l(5) =   2
                l(6) =   2
     Q(r) pseudized with 0 coefficients 


     atomic species   valence    mass     pseudopotential
        Fe            16.00    55.84500     Fe( 1.00)

     Starting magnetic structure 
     atomic species   magnetization
        Fe           0.100

     No symmetry found



   Cartesian axes

     site n.     atom                  positions (alat units)
         1           Fe  tau(   1) = (   0.1666663   0.1178509   0.0000000  )
         2           Fe  tau(   2) = (   0.0000000   0.0000000   0.2041376  )
         3           Fe  tau(   3) = (   0.4999989   0.3535526   0.0000000  )
         4           Fe  tau(   4) = (   0.3333326   0.2357017   0.2041376  )
         5           Fe  tau(   5) = (   0.1666883   0.1178565   0.4055485  )
         6           Fe  tau(   6) = (   0.3333688   0.9428184   0.6047447  )
         7           Fe  tau(   7) = (   0.5000206   0.3535572   0.4055456  )
         8           Fe  tau(   8) = (   0.3333470   0.2357998   0.6047191  )
         9           Fe  tau(   9) = (   0.2499989   0.3535526   0.0000000  )
        10           Fe  tau(  10) = (   0.4166663   0.1178509   0.0000000  )
        11           Fe  tau(  11) = (   0.0833326   0.2357017   0.2041376  )
        12           Fe  tau(  12) = (   0.2500000   0.0000000   0.2041376  )
        13           Fe  tau(  13) = (   0.2500056   0.3535711   0.4054970  )
        14           Fe  tau(  14) = (   0.4166800   0.1178886   0.4055435  )
        15           Fe  tau(  15) = (   0.0833671   0.2357290   0.6047215  )
        16           Fe  tau(  16) = (   0.2500711   0.0000921   0.6047608  )
        17           Fe  tau(  17) = (   0.6666663   0.1178509   0.0000000  )
        18           Fe  tau(  18) = (   0.5000000   0.0000000   0.2041376  )
        19           Fe  tau(  19) = (   0.9999989   0.3535526   0.0000000  )
        20           Fe  tau(  20) = (   0.8333326   0.2357017   0.2041376  )
        21           Fe  tau(  21) = (   0.6666909   0.1178765   0.4055642  )
        22           Fe  tau(  22) = (   0.5000465   0.0000236   0.6046761  )
        23           Fe  tau(  23) = (   1.0000109   0.3535665   0.4055626  )
        24           Fe  tau(  24) = (   0.8333753   0.2357096   0.6046948  )
        25           Fe  tau(  25) = (   0.7499989   0.3535526   0.0000000  )
        26           Fe  tau(  26) = (   0.9166663   0.1178509   0.0000000  )
        27           Fe  tau(  27) = (   0.5833326   0.2357017   0.2041376  )
        28           Fe  tau(  28) = (   0.7500000   0.0000000   0.2041376  )
        29           Fe  tau(  29) = (   0.7500298   0.3535537   0.4055237  )
        30           Fe  tau(  30) = (   0.9166973   0.1178520   0.4055727  )
        31           Fe  tau(  31) = (   0.5833528   0.2357440   0.6048152  )
        32           Fe  tau(  32) = (   1.0833550   0.9428301   0.6047230  )
        33           Fe  tau(  33) = (   0.3333315   0.5892543   0.0000000  )
        34           Fe  tau(  34) = (   0.1666652   0.4714034   0.2041376  )
        35           Fe  tau(  35) = (   0.6666640   0.8249560   0.0000000  )
        36           Fe  tau(  36) = (   0.4999978   0.7071052   0.2041376  )
        37           Fe  tau(  37) = (   0.3333024   0.5893238   0.4055334  )
        38           Fe  tau(  38) = (   1.1666931   0.4714090   0.6046775  )
        39           Fe  tau(  39) = (   0.6666498   0.8250381   0.4055339  )
        40           Fe  tau(  40) = (   0.4999795   0.7072006   0.6047873  )
        41           Fe  tau(  41) = (   0.4166640   0.8249560   0.0000000  )
        42           Fe  tau(  42) = (   0.5833315   0.5892543   0.0000000  )
        43           Fe  tau(  43) = (   0.2499978   0.7071052   0.2041376  )
        44           Fe  tau(  44) = (   0.4166652   0.4714034   0.2041376  )
        45           Fe  tau(  45) = (   0.4166645   0.8250008   0.4055405  )
        46           Fe  tau(  46) = (   0.5833194   0.5893164   0.4055538  )
        47           Fe  tau(  47) = (   1.2499531   0.7071110   0.6047598  )
        48           Fe  tau(  48) = (   0.4166762   0.4714800   0.6046684  )
        49           Fe  tau(  49) = (   0.8333315   0.5892543   0.0000000  )
        50           Fe  tau(  50) = (   0.6666652   0.4714034   0.2041376  )
        51           Fe  tau(  51) = (   1.1666640   0.8249560   0.0000000  )
        52           Fe  tau(  52) = (   0.9999978   0.7071052   0.2041376  )
        53           Fe  tau(  53) = (   0.8333620   0.5892670   0.4055440  )
        54           Fe  tau(  54) = (   0.6666665   0.4714716   0.6046004  )
        55           Fe  tau(  55) = (   1.1666930   0.8249675   0.4055502  )
        56           Fe  tau(  56) = (   0.9999653   0.7071693   0.6047169  )
        57           Fe  tau(  57) = (   0.9166640   0.8249560   0.0000000  )
        58           Fe  tau(  58) = (   1.0833315   0.5892543   0.0000000  )
        59           Fe  tau(  59) = (   0.7499978   0.7071052   0.2041376  )
        60           Fe  tau(  60) = (   0.9166652   0.4714034   0.2041376  )
        61           Fe  tau(  61) = (   0.9166861   0.8249876   0.4054965  )
        62           Fe  tau(  62) = (   1.0833354   0.5892828   0.4055429  )
        63           Fe  tau(  63) = (   0.7499872   0.7071671   0.6046676  )
        64           Fe  tau(  64) = (   0.9166845   0.4714443   0.6048084  )

     number of k points=    10  Methfessel-Paxton smearing, width (Ry)=  0.0100
                       cart. coord. in units 2pi/alat
        k(    1) = (   0.0000000   0.0000000   0.0000000), wk =   0.0625000
        k(    2) = (   0.0000000   0.2651656   0.0000000), wk =   0.1250000
        k(    3) = (   0.0000000  -0.5303313   0.0000000), wk =   0.0625000
        k(    4) = (   0.2500000  -0.0883878   0.0000000), wk =   0.1250000
        k(    5) = (   0.2500000   0.1767779   0.0000000), wk =   0.1250000
        k(    6) = (   0.2500000  -0.6187190   0.0000000), wk =   0.1250000
        k(    7) = (   0.2500000  -0.3535534   0.0000000), wk =   0.1250000
        k(    8) = (  -0.5000000   0.1767755   0.0000000), wk =   0.0625000
        k(    9) = (  -0.5000000   0.4419412   0.0000000), wk =   0.1250000
        k(   10) = (  -0.5000000  -0.3535558   0.0000000), wk =   0.0625000

     Dense  grid:  2905599 G-vectors     FFT dimensions: ( 135, 135, 360)

     Smooth grid:  1027285 G-vectors     FFT dimensions: (  96,  96, 243)

     Estimated max dynamical RAM per process >    1009.58 MB

     Estimated total dynamical RAM >     157.75 GB
     Generating pointlists ...
     new r_m :   0.1014 (alat units)  1.9031 (a.u.) for type    1

     Check: negative core charge=   -0.000039

     Initial potential from superposition of free atoms

     starting charge 1023.97194, renormalised to 1024.00000

     negative rho (up, down):  2.482E-02 2.555E-03
     Starting wfcs are  832 randomized atomic wfcs
     Checking if some PAW data can be deallocated... 

     total cpu time spent up to now is       86.3 secs

     Self-consistent Calculation

     iteration #  1     ecut=    60.00 Ry     beta= 0.20
     Davidson diagonalization with overlap
     c_bands:  1 eigenvalues not converged
     c_bands:  2 eigenvalues not converged
     ethr =  1.00E-04,  avg # of iterations = 19.0

     negative rho (up, down):  1.308E-02 3.492E-03

     total cpu time spent up to now is     1117.5 secs

     total energy              =  -21066.98184118 Ry
     Harris-Foulkes estimate   =  -21074.09732261 Ry
     estimated scf accuracy    <     352.45062367 Ry

     total magnetization       =   106.95 Bohr mag/cell
     absolute magnetization    =   107.85 Bohr mag/cell

     iteration #  2     ecut=    60.00 Ry     beta= 0.20
     Davidson diagonalization with overlap
     ethr =  1.00E-02,  avg # of iterations =  1.0

     negative rho (up, down):  1.011E-02 4.108E-02

     total cpu time spent up to now is     1265.0 secs

     total energy              =  -21070.76060156 Ry
     Harris-Foulkes estimate   =  -21073.59703738 Ry
     estimated scf accuracy    <     153.43407181 Ry

     total magnetization       =   106.78 Bohr mag/cell
     absolute magnetization    =   107.83 Bohr mag/cell

     iteration #  3     ecut=    60.00 Ry     beta= 0.20
     Davidson diagonalization with overlap
     ethr =  1.00E-02,  avg # of iterations =  1.0

     negative rho (up, down):  5.349E-03 1.740E-02

     total cpu time spent up to now is     1415.6 secs

     total energy              =  -21072.17445117 Ry
     Harris-Foulkes estimate   =  -21072.27827931 Ry
     estimated scf accuracy    <       9.71013842 Ry

     total magnetization       =   133.45 Bohr mag/cell
     absolute magnetization    =   133.84 Bohr mag/cell

     iteration #  4     ecut=    60.00 Ry     beta= 0.20
     Davidson diagonalization with overlap
     ethr =  9.48E-04,  avg # of iterations =  1.0

     negative rho (up, down):  3.329E-03 2.440E-02

     total cpu time spent up to now is     1560.9 secs

     total energy              =  -21072.20763656 Ry
     Harris-Foulkes estimate   =  -21072.26538724 Ry
     estimated scf accuracy    <      14.73274769 Ry

     total magnetization       =   140.05 Bohr mag/cell
     absolute magnetization    =   140.52 Bohr mag/cell

     iteration #  5     ecut=    60.00 Ry     beta= 0.20
     Davidson diagonalization with overlap
     ethr =  9.48E-04,  avg # of iterations =  1.0

     negative rho (up, down):  1.823E-02 2.155E-01

     total cpu time spent up to now is     1702.9 secs

     total energy              =  -21070.01130172 Ry
     Harris-Foulkes estimate   =  -21072.24233941 Ry
     estimated scf accuracy    <      15.64910382 Ry

     total magnetization       =   143.54 Bohr mag/cell
     absolute magnetization    =   144.10 Bohr mag/cell

     iteration #  6     ecut=    60.00 Ry     beta= 0.20
     Davidson diagonalization with overlap
     ethr =  9.48E-04,  avg # of iterations =  8.9

     negative rho (up, down):  1.932E-03 9.739E-02

     total cpu time spent up to now is     1946.8 secs

     total energy              =  -21071.60837223 Ry
     Harris-Foulkes estimate   =  -21071.54596110 Ry
     estimated scf accuracy    <       2.34398771 Ry

     total magnetization       =   158.24 Bohr mag/cell
     absolute magnetization    =   162.77 Bohr mag/cell

     iteration #  7     ecut=    60.00 Ry     beta= 0.20
     Davidson diagonalization with overlap
     c_bands:  2 eigenvalues not converged
     ethr =  2.29E-04,  avg # of iterations =  9.3

     negative rho (up, down):  7.149E-04 5.171E-02

     total cpu time spent up to now is     2402.2 secs

     total energy              =  -21072.13684075 Ry
     Harris-Foulkes estimate   =  -21072.12873104 Ry
     estimated scf accuracy    <       0.61117540 Ry

     total magnetization       =   150.02 Bohr mag/cell
     absolute magnetization    =   153.22 Bohr mag/cell

     iteration #  8     ecut=    60.00 Ry     beta= 0.20
     Davidson diagonalization with overlap
     ethr =  5.97E-05,  avg # of iterations = 12.2

     negative rho (up, down):  2.916E-04 3.037E-02

     total cpu time spent up to now is     3015.4 secs

     total energy              =  -21072.21011804 Ry
     Harris-Foulkes estimate   =  -21072.27595490 Ry
     estimated scf accuracy    <       0.74125247 Ry

     total magnetization       =   150.45 Bohr mag/cell
     absolute magnetization    =   154.29 Bohr mag/cell

     iteration #  9     ecut=    60.00 Ry     beta= 0.20
     Davidson diagonalization with overlap
     ethr =  5.97E-05,  avg # of iterations =  1.6

     negative rho (up, down):  4.247E-04 4.535E-02

     total cpu time spent up to now is     3176.1 secs

     total energy              =  -21072.25235994 Ry
     Harris-Foulkes estimate   =  -21072.27296743 Ry
     estimated scf accuracy    <       1.33758703 Ry

     total magnetization       =   155.19 Bohr mag/cell
     absolute magnetization    =   158.78 Bohr mag/cell

     iteration # 10     ecut=    60.00 Ry     beta= 0.20
     Davidson diagonalization with overlap
     ethr =  5.97E-05,  avg # of iterations =  1.0

     negative rho (up, down):  3.134E-04 3.506E-02

     total cpu time spent up to now is     3317.0 secs

     total energy              =  -21072.25558479 Ry
     Harris-Foulkes estimate   =  -21072.27170192 Ry
     estimated scf accuracy    <       0.81144148 Ry

     total magnetization       =   157.07 Bohr mag/cell
     absolute magnetization    =   160.79 Bohr mag/cell

     iteration # 11     ecut=    60.00 Ry     beta= 0.20
     Davidson diagonalization with overlap
     ethr =  5.97E-05,  avg # of iterations =  1.4

     negative rho (up, down):  8.922E-05 2.711E-02

     total cpu time spent up to now is     3478.7 secs

     total energy              =  -21072.25387263 Ry
     Harris-Foulkes estimate   =  -21072.27033726 Ry
     estimated scf accuracy    <       0.47253689 Ry

     total magnetization       =   158.97 Bohr mag/cell
     absolute magnetization    =   162.75 Bohr mag/cell

     iteration # 12     ecut=    60.00 Ry     beta= 0.20
     Davidson diagonalization with overlap
     ethr =  4.61E-05,  avg # of iterations =  2.2

     negative rho (up, down):  1.553E-02 4.330E-02

     total cpu time spent up to now is     3657.7 secs

     total energy              =  -21072.23226190 Ry
     Harris-Foulkes estimate   =  -21072.26566892 Ry
     estimated scf accuracy    <       0.23881155 Ry

     total magnetization       =   159.61 Bohr mag/cell
     absolute magnetization    =   163.44 Bohr mag/cell

     iteration # 13     ecut=    60.00 Ry     beta= 0.20
     Davidson diagonalization with overlap
     c_bands:  4 eigenvalues not converged
     ethr =  2.33E-05,  avg # of iterations = 15.0

     negative rho (up, down):  2.568E-03 3.037E-02

     total cpu time spent up to now is     4542.6 secs

     total energy              =  -21072.30993177 Ry
     Harris-Foulkes estimate   =  -21072.31817412 Ry
     estimated scf accuracy    <       0.18785831 Ry

     total magnetization       =   161.72 Bohr mag/cell
     absolute magnetization    =   166.90 Bohr mag/cell

     iteration # 14     ecut=    60.00 Ry     beta= 0.20
     Davidson diagonalization with overlap
     ethr =  1.83E-05,  avg # of iterations =  3.9

     negative rho (up, down):  1.328E-01 2.592E-02

     total cpu time spent up to now is     4720.1 secs

     total energy              =  -21072.28585942 Ry
     Harris-Foulkes estimate   =  -21072.31592440 Ry
     estimated scf accuracy    <       0.10710454 Ry

     total magnetization       =   161.41 Bohr mag/cell
     absolute magnetization    =   166.57 Bohr mag/cell

     iteration # 15     ecut=    60.00 Ry     beta= 0.20
     Davidson diagonalization with overlap
     ethr =  1.05E-05,  avg # of iterations =  8.2

     negative rho (up, down):  7.972E-02 1.670E-02

     total cpu time spent up to now is     5013.6 secs

     total energy              =  -21072.30198858 Ry
     Harris-Foulkes estimate   =  -21072.30530379 Ry
     estimated scf accuracy    <       0.11161906 Ry

     total magnetization       =   162.04 Bohr mag/cell
     absolute magnetization    =   167.13 Bohr mag/cell

     iteration # 16     ecut=    60.00 Ry     beta= 0.20
     Davidson diagonalization with overlap
     ethr =  1.05E-05,  avg # of iterations =  1.2

     negative rho (up, down):  1.211E-01 2.182E-02

     total cpu time spent up to now is     5159.8 secs

     total energy              =  -21072.28978907 Ry
     Harris-Foulkes estimate   =  -21072.30595995 Ry
     estimated scf accuracy    <       0.05283314 Ry

     total magnetization       =   161.87 Bohr mag/cell
     absolute magnetization    =   167.03 Bohr mag/cell

     iteration # 17     ecut=    60.00 Ry     beta= 0.20
     Davidson diagonalization with overlap
     ethr =  5.16E-06,  avg # of iterations =  9.8

     negative rho (up, down):  1.226E-01 2.036E-02

     total cpu time spent up to now is     5985.8 secs

     total energy              =  -21072.25836954 Ry
     Harris-Foulkes estimate   =  -21072.31075581 Ry
     estimated scf accuracy    <       0.11692466 Ry

     total magnetization       =   163.66 Bohr mag/cell
     absolute magnetization    =   169.75 Bohr mag/cell

     iteration # 18     ecut=    60.00 Ry     beta= 0.20
     Davidson diagonalization with overlap
     ethr =  5.16E-06,  avg # of iterations = 11.6

     negative rho (up, down):  1.808E-01 1.863E-02

     total cpu time spent up to now is     6512.7 secs

     total energy              =  -21072.26149622 Ry
     Harris-Foulkes estimate   =  -21072.27582536 Ry
     estimated scf accuracy    <       0.05048514 Ry

     total magnetization       =   162.84 Bohr mag/cell
     absolute magnetization    =   169.39 Bohr mag/cell

     iteration # 19     ecut=    60.00 Ry     beta= 0.20
     Davidson diagonalization with overlap
     ethr =  4.93E-06,  avg # of iterations =  5.8

     negative rho (up, down):  2.062E-01 1.677E-02

     total cpu time spent up to now is     6840.1 secs

     total energy              =  -21072.26314555 Ry
     Harris-Foulkes estimate   =  -21072.26710857 Ry
     estimated scf accuracy    <       0.04207791 Ry

     total magnetization       =   163.15 Bohr mag/cell
     absolute magnetization    =   169.65 Bohr mag/cell

     iteration # 20     ecut=    60.00 Ry     beta= 0.20
     Davidson diagonalization with overlap
     ethr =  4.11E-06,  avg # of iterations =  2.0

     negative rho (up, down):  1.509E-01 1.633E-02

     total cpu time spent up to now is     7030.7 secs

     total energy              =  -21072.24649312 Ry
     Harris-Foulkes estimate   =  -21072.26440995 Ry
     estimated scf accuracy    <       0.04196097 Ry

     total magnetization       =   163.73 Bohr mag/cell
     absolute magnetization    =   170.21 Bohr mag/cell

     iteration # 21     ecut=    60.00 Ry     beta= 0.20
     Davidson diagonalization with overlap
     ethr =  4.10E-06,  avg # of iterations =  1.9

     negative rho (up, down):  9.480E-02 3.141E-02

     total cpu time spent up to now is     7217.0 secs

     total energy              =  -21072.21649557 Ry
     Harris-Foulkes estimate   =  -21072.24735416 Ry
     estimated scf accuracy    <       0.03096891 Ry

     total magnetization       =   163.55 Bohr mag/cell
     absolute magnetization    =   170.02 Bohr mag/cell

     iteration # 22     ecut=    60.00 Ry     beta= 0.20
     Davidson diagonalization with overlap
     ethr =  3.02E-06,  avg # of iterations = 26.9

     negative rho (up, down):  8.506E-02 2.526E-02

     total cpu time spent up to now is     8285.4 secs

     total energy              =  -21072.22224381 Ry
     Harris-Foulkes estimate   =  -21072.22083596 Ry
     estimated scf accuracy    <       0.00302668 Ry

     total magnetization       =   163.16 Bohr mag/cell
     absolute magnetization    =   169.64 Bohr mag/cell

     iteration # 23     ecut=    60.00 Ry     beta= 0.20
     Davidson diagonalization with overlap
     ethr =  2.96E-07,  avg # of iterations = 29.1

     negative rho (up, down):  7.784E-02 2.100E-02

     total cpu time spent up to now is     9990.4 secs

     total energy              =  -21072.22800911 Ry
     Harris-Foulkes estimate   =  -21072.22477720 Ry
     estimated scf accuracy    <       0.00253052 Ry

     total magnetization       =   162.93 Bohr mag/cell
     absolute magnetization    =   169.31 Bohr mag/cell

     iteration # 24     ecut=    60.00 Ry     beta= 0.20
     Davidson diagonalization with overlap
     ethr =  2.47E-07,  avg # of iterations =  8.8

     negative rho (up, down):  7.297E-02 1.906E-02

     total cpu time spent up to now is    10274.3 secs

     total energy              =  -21072.22782818 Ry
     Harris-Foulkes estimate   =  -21072.22813416 Ry
     estimated scf accuracy    <       0.00159345 Ry

     total magnetization       =   162.99 Bohr mag/cell
     absolute magnetization    =   169.37 Bohr mag/cell

     iteration # 25     ecut=    60.00 Ry     beta= 0.20
     Davidson diagonalization with overlap
     ethr =  1.56E-07,  avg # of iterations =  7.0

     negative rho (up, down):  5.883E-02 1.807E-02

     total cpu time spent up to now is    10529.9 secs

     total energy              =  -21072.23025620 Ry
     Harris-Foulkes estimate   =  -21072.22791588 Ry
     estimated scf accuracy    <       0.00118995 Ry

     total magnetization       =   162.80 Bohr mag/cell
     absolute magnetization    =   169.18 Bohr mag/cell

     iteration # 26     ecut=    60.00 Ry     beta= 0.20
     Davidson diagonalization with overlap
     ethr =  1.16E-07,  avg # of iterations =  8.3

     negative rho (up, down):  3.637E-02 1.864E-02

     total cpu time spent up to now is    10854.1 secs

     total energy              =  -21072.23579963 Ry
     Harris-Foulkes estimate   =  -21072.23032976 Ry
     estimated scf accuracy    <       0.00073009 Ry

     total magnetization       =   162.78 Bohr mag/cell
     absolute magnetization    =   169.16 Bohr mag/cell

     iteration # 27     ecut=    60.00 Ry     beta= 0.20
     Davidson diagonalization with overlap
     ethr =  7.13E-08,  avg # of iterations = 10.6

     negative rho (up, down):  2.668E-02 1.898E-02

     total cpu time spent up to now is    11182.6 secs

     total energy              =  -21072.23604993 Ry
     Harris-Foulkes estimate   =  -21072.23593595 Ry
     estimated scf accuracy    <       0.00034915 Ry

     total magnetization       =   162.86 Bohr mag/cell
     absolute magnetization    =   169.23 Bohr mag/cell

     iteration # 28     ecut=    60.00 Ry     beta= 0.20
     Davidson diagonalization with overlap
     ethr =  3.41E-08,  avg # of iterations =  9.4

     negative rho (up, down):  2.444E-02 1.894E-02

     total cpu time spent up to now is    11868.9 secs

     total energy              =  -21072.23788285 Ry
     Harris-Foulkes estimate   =  -21072.23621286 Ry
     estimated scf accuracy    <       0.00014157 Ry

     total magnetization       =   162.85 Bohr mag/cell
     absolute magnetization    =   169.22 Bohr mag/cell

     iteration # 29     ecut=    60.00 Ry     beta= 0.20
     Davidson diagonalization with overlap
     ethr =  1.38E-08,  avg # of iterations =  9.0

     negative rho (up, down):  2.388E-02 1.875E-02

     total cpu time spent up to now is    12381.5 secs

     total energy              =  -21072.23798897 Ry
     Harris-Foulkes estimate   =  -21072.23796772 Ry
     estimated scf accuracy    <       0.00017759 Ry

     total magnetization       =   162.84 Bohr mag/cell
     absolute magnetization    =   169.21 Bohr mag/cell

     iteration # 30     ecut=    60.00 Ry     beta= 0.20
     Davidson diagonalization with overlap
     ethr =  1.38E-08,  avg # of iterations =  2.2

     negative rho (up, down):  2.226E-02 1.885E-02

     total cpu time spent up to now is    12535.3 secs

     total energy              =  -21072.23915200 Ry
     Harris-Foulkes estimate   =  -21072.23800108 Ry
     estimated scf accuracy    <       0.00007043 Ry

     total magnetization       =   162.83 Bohr mag/cell
     absolute magnetization    =   169.21 Bohr mag/cell

     iteration # 31     ecut=    60.00 Ry     beta= 0.20
     Davidson diagonalization with overlap
     c_bands:  2 eigenvalues not converged
     ethr =  6.88E-09,  avg # of iterations = 11.9

     negative rho (up, down):  2.304E-02 1.886E-02

     total cpu time spent up to now is    13481.9 secs

     total energy              =  -21072.24029859 Ry
     Harris-Foulkes estimate   =  -21072.23919350 Ry
     estimated scf accuracy    <       0.00015379 Ry

     total magnetization       =   162.85 Bohr mag/cell
     absolute magnetization    =   169.21 Bohr mag/cell

     iteration # 32     ecut=    60.00 Ry     beta= 0.20
     Davidson diagonalization with overlap
     c_bands:  2 eigenvalues not converged
     ethr =  6.88E-09,  avg # of iterations = 11.6

     negative rho (up, down):  2.400E-02 1.871E-02

     total cpu time spent up to now is    14066.6 secs

     total energy              =  -21072.24046386 Ry
     Harris-Foulkes estimate   =  -21072.24035139 Ry
     estimated scf accuracy    <       0.00007158 Ry

     total magnetization       =   162.86 Bohr mag/cell
     absolute magnetization    =   169.22 Bohr mag/cell

     iteration # 33     ecut=    60.00 Ry     beta= 0.20
     Davidson diagonalization with overlap
     c_bands:  1 eigenvalues not converged
     ethr =  6.88E-09,  avg # of iterations =  4.0

     negative rho (up, down):  2.372E-02 1.869E-02

     total cpu time spent up to now is    14299.9 secs

     total energy              =  -21072.24019227 Ry
     Harris-Foulkes estimate   =  -21072.24046652 Ry
     estimated scf accuracy    <       0.00005038 Ry

     total magnetization       =   162.88 Bohr mag/cell
     absolute magnetization    =   169.24 Bohr mag/cell

     iteration # 34     ecut=    60.00 Ry     beta= 0.20
     Davidson diagonalization with overlap
     ethr =  4.92E-09,  avg # of iterations =  7.2

     negative rho (up, down):  2.335E-02 1.865E-02

     total cpu time spent up to now is    14544.7 secs

     total energy              =  -21072.24031049 Ry
     Harris-Foulkes estimate   =  -21072.24019771 Ry
     estimated scf accuracy    <       0.00000855 Ry

     total magnetization       =   162.88 Bohr mag/cell
     absolute magnetization    =   169.24 Bohr mag/cell

     iteration # 35     ecut=    60.00 Ry     beta= 0.20
     Davidson diagonalization with overlap
     ethr =  8.35E-10,  avg # of iterations = 14.3

     negative rho (up, down):  2.328E-02 1.867E-02

     total cpu time spent up to now is    15565.5 secs

     total energy              =  -21072.24034899 Ry
     Harris-Foulkes estimate   =  -21072.24031641 Ry
     estimated scf accuracy    <       0.00000730 Ry

     total magnetization       =   162.88 Bohr mag/cell
     absolute magnetization    =   169.23 Bohr mag/cell

     iteration # 36     ecut=    60.00 Ry     beta= 0.20
     Davidson diagonalization with overlap
     ethr =  7.13E-10,  avg # of iterations =  7.0

     negative rho (up, down):  2.335E-02 1.862E-02

     total cpu time spent up to now is    15846.8 secs

     total energy              =  -21072.24030588 Ry
     Harris-Foulkes estimate   =  -21072.24034921 Ry
     estimated scf accuracy    <       0.00000826 Ry

     total magnetization       =   162.89 Bohr mag/cell
     absolute magnetization    =   169.24 Bohr mag/cell

     iteration # 37     ecut=    60.00 Ry     beta= 0.20
     Davidson diagonalization with overlap
     ethr =  7.13E-10,  avg # of iterations =  3.9

     negative rho (up, down):  2.399E-02 1.865E-02

     total cpu time spent up to now is    16100.2 secs

     total energy              =  -21072.24023395 Ry
     Harris-Foulkes estimate   =  -21072.24030606 Ry
     estimated scf accuracy    <       0.00000695 Ry

     total magnetization       =   162.88 Bohr mag/cell
     absolute magnetization    =   169.23 Bohr mag/cell

     iteration # 38     ecut=    60.00 Ry     beta= 0.20
     Davidson diagonalization with overlap
     ethr =  6.79E-10,  avg # of iterations =  6.1

     negative rho (up, down):  2.391E-02 1.863E-02

     total cpu time spent up to now is    16331.5 secs

     total energy              =  -21072.24026553 Ry
     Harris-Foulkes estimate   =  -21072.24023490 Ry
     estimated scf accuracy    <       0.00000841 Ry

     total magnetization       =   162.88 Bohr mag/cell
     absolute magnetization    =   169.23 Bohr mag/cell

     iteration # 39     ecut=    60.00 Ry     beta= 0.20
     Davidson diagonalization with overlap
     ethr =  6.79E-10,  avg # of iterations =  2.6

     negative rho (up, down):  2.392E-02 1.866E-02

     total cpu time spent up to now is    16511.5 secs

     total energy              =  -21072.24025150 Ry
     Harris-Foulkes estimate   =  -21072.24026565 Ry
     estimated scf accuracy    <       0.00000739 Ry

     total magnetization       =   162.88 Bohr mag/cell
     absolute magnetization    =   169.23 Bohr mag/cell

     iteration # 40     ecut=    60.00 Ry     beta= 0.20
     Davidson diagonalization with overlap
     ethr =  6.79E-10,  avg # of iterations =  1.0

     negative rho (up, down):  2.397E-02 1.871E-02

     total cpu time spent up to now is    16654.5 secs

     total energy              =  -21072.24013044 Ry
     Harris-Foulkes estimate   =  -21072.24025162 Ry
     estimated scf accuracy    <       0.00000735 Ry

     total magnetization       =   162.88 Bohr mag/cell
     absolute magnetization    =   169.23 Bohr mag/cell

     iteration # 41     ecut=    60.00 Ry     beta= 0.20
     Davidson diagonalization with overlap
     ethr =  6.79E-10,  avg # of iterations =  1.0

     negative rho (up, down):  2.466E-02 1.873E-02

     total cpu time spent up to now is    16799.5 secs

     total energy              =  -21072.23988272 Ry
     Harris-Foulkes estimate   =  -21072.24013072 Ry
     estimated scf accuracy    <       0.00000355 Ry

     total magnetization       =   162.87 Bohr mag/cell
     absolute magnetization    =   169.23 Bohr mag/cell

     iteration # 42     ecut=    60.00 Ry     beta= 0.20
     Davidson diagonalization with overlap
     c_bands:  2 eigenvalues not converged
     ethr =  3.47E-10,  avg # of iterations = 12.7

     negative rho (up, down):  2.459E-02 1.871E-02

     total cpu time spent up to now is    17786.7 secs

     total energy              =  -21072.23995595 Ry
     Harris-Foulkes estimate   =  -21072.23988479 Ry
     estimated scf accuracy    <       0.00000415 Ry

     total magnetization       =   162.89 Bohr mag/cell
     absolute magnetization    =   169.25 Bohr mag/cell

     iteration # 43     ecut=    60.00 Ry     beta= 0.20
     Davidson diagonalization with overlap
     c_bands:  2 eigenvalues not converged
     ethr =  3.47E-10,  avg # of iterations =  6.2

     negative rho (up, down):  2.459E-02 1.871E-02

     total cpu time spent up to now is    18081.8 secs

     total energy              =  -21072.23996054 Ry
     Harris-Foulkes estimate   =  -21072.23995627 Ry
     estimated scf accuracy    <       0.00000141 Ry

     total magnetization       =   162.90 Bohr mag/cell
     absolute magnetization    =   169.25 Bohr mag/cell

     iteration # 44     ecut=    60.00 Ry     beta= 0.20
     Davidson diagonalization with overlap
     ethr =  1.38E-10,  avg # of iterations =  3.9

     negative rho (up, down):  2.459E-02 1.871E-02

     total cpu time spent up to now is    18263.2 secs

     total energy              =  -21072.24000201 Ry
     Harris-Foulkes estimate   =  -21072.23996060 Ry
     estimated scf accuracy    <       0.00000137 Ry

     total magnetization       =   162.90 Bohr mag/cell
     absolute magnetization    =   169.25 Bohr mag/cell

     iteration # 45     ecut=    60.00 Ry     beta= 0.20
     Davidson diagonalization with overlap
     ethr =  1.33E-10,  avg # of iterations =  1.0

     negative rho (up, down):  2.460E-02 1.869E-02

     total cpu time spent up to now is    18406.4 secs

     total energy              =  -21072.24003834 Ry
     Harris-Foulkes estimate   =  -21072.24000204 Ry
     estimated scf accuracy    <       0.00000113 Ry

     total magnetization       =   162.90 Bohr mag/cell
     absolute magnetization    =   169.26 Bohr mag/cell

     iteration # 46     ecut=    60.00 Ry     beta= 0.20
     Davidson diagonalization with overlap
     c_bands:  1 eigenvalues not converged
     ethr =  1.10E-10,  avg # of iterations =  7.9

     negative rho (up, down):  2.498E-02 1.871E-02

     total cpu time spent up to now is    18923.7 secs

     total energy              =  -21072.23987941 Ry
     Harris-Foulkes estimate   =  -21072.24003864 Ry
     estimated scf accuracy    <       0.00000044 Ry

     total magnetization       =   162.90 Bohr mag/cell
     absolute magnetization    =   169.26 Bohr mag/cell

     iteration # 47     ecut=    60.00 Ry     beta= 0.20
     Davidson diagonalization with overlap
     c_bands:  1 eigenvalues not converged
     ethr =  4.25E-11,  avg # of iterations = 11.2

     negative rho (up, down):  2.497E-02 1.871E-02

     total cpu time spent up to now is    19520.6 secs

     total energy              =  -21072.23981254 Ry
     Harris-Foulkes estimate   =  -21072.23987955 Ry
     estimated scf accuracy    <       0.00000040 Ry

     total magnetization       =   162.90 Bohr mag/cell
     absolute magnetization    =   169.26 Bohr mag/cell

     iteration # 48     ecut=    60.00 Ry     beta= 0.20
     Davidson diagonalization with overlap
     ethr =  3.89E-11,  avg # of iterations =  3.1

     negative rho (up, down):  2.493E-02 1.871E-02

     total cpu time spent up to now is    19699.0 secs

     total energy              =  -21072.23978042 Ry
     Harris-Foulkes estimate   =  -21072.23981255 Ry
     estimated scf accuracy    <       0.00000027 Ry

     total magnetization       =   162.90 Bohr mag/cell
     absolute magnetization    =   169.26 Bohr mag/cell

     iteration # 49     ecut=    60.00 Ry     beta= 0.20
     Davidson diagonalization with overlap
     ethr =  2.68E-11,  avg # of iterations =  4.3

     negative rho (up, down):  2.492E-02 1.872E-02

     total cpu time spent up to now is    19892.1 secs

     total energy              =  -21072.23976725 Ry
     Harris-Foulkes estimate   =  -21072.23978044 Ry
     estimated scf accuracy    <       0.00000014 Ry

     total magnetization       =   162.90 Bohr mag/cell
     absolute magnetization    =   169.26 Bohr mag/cell

     iteration # 50     ecut=    60.00 Ry     beta= 0.20
     Davidson diagonalization with overlap
     ethr =  1.41E-11,  avg # of iterations =  9.1

     negative rho (up, down):  2.494E-02 1.872E-02

     total cpu time spent up to now is    20546.7 secs

     total energy              =  -21072.23974708 Ry
     Harris-Foulkes estimate   =  -21072.23976731 Ry
     estimated scf accuracy    <       0.00000005 Ry

     total magnetization       =   162.91 Bohr mag/cell
     absolute magnetization    =   169.27 Bohr mag/cell

     iteration # 51     ecut=    60.00 Ry     beta= 0.20
     Davidson diagonalization with overlap
     ethr =  4.68E-12,  avg # of iterations =  9.7

     negative rho (up, down):  2.495E-02 1.872E-02

     total cpu time spent up to now is    21046.4 secs

     total energy              =  -21072.23974227 Ry
     Harris-Foulkes estimate   =  -21072.23974710 Ry
     estimated scf accuracy    <       0.00000002 Ry

     total magnetization       =   162.91 Bohr mag/cell
     absolute magnetization    =   169.27 Bohr mag/cell

     iteration # 52     ecut=    60.00 Ry     beta= 0.20
     Davidson diagonalization with overlap
     ethr =  2.16E-12,  avg # of iterations =  7.3

     negative rho (up, down):  2.496E-02 1.871E-02

     total cpu time spent up to now is    21295.1 secs

     total energy              =  -21072.23973432 Ry
     Harris-Foulkes estimate   =  -21072.23974226 Ry
     estimated scf accuracy    <       0.00000002 Ry

     total magnetization       =   162.91 Bohr mag/cell
     absolute magnetization    =   169.27 Bohr mag/cell

     iteration # 53     ecut=    60.00 Ry     beta= 0.20
     Davidson diagonalization with overlap
     ethr =  1.62E-12,  avg # of iterations =  8.0

     negative rho (up, down):  2.496E-02 1.871E-02

     Magnetic moment per site:
     atom:    1    charge:   14.2641    magn:    2.6645    constr:    0.0000
     atom:    2    charge:   14.3386    magn:    2.4380    constr:    0.0000
     atom:    3    charge:   14.2640    magn:    2.6645    constr:    0.0000
     atom:    4    charge:   14.3388    magn:    2.4378    constr:    0.0000
     atom:    5    charge:   14.3533    magn:    2.4119    constr:    0.0000
     atom:    6    charge:   14.2800    magn:    2.6456    constr:    0.0000
     atom:    7    charge:   14.3531    magn:    2.4125    constr:    0.0000
     atom:    8    charge:   14.2803    magn:    2.6453    constr:    0.0000
     atom:    9    charge:   14.2642    magn:    2.6645    constr:    0.0000
     atom:   10    charge:   14.2642    magn:    2.6644    constr:    0.0000
     atom:   11    charge:   14.3387    magn:    2.4383    constr:    0.0000
     atom:   12    charge:   14.3388    magn:    2.4379    constr:    0.0000
     atom:   13    charge:   14.3533    magn:    2.4119    constr:    0.0000
     atom:   14    charge:   14.3533    magn:    2.4115    constr:    0.0000
     atom:   15    charge:   14.2803    magn:    2.6451    constr:    0.0000
     atom:   16    charge:   14.2801    magn:    2.6457    constr:    0.0000
     atom:   17    charge:   14.2641    magn:    2.6645    constr:    0.0000
     atom:   18    charge:   14.3390    magn:    2.4379    constr:    0.0000
     atom:   19    charge:   14.2641    magn:    2.6645    constr:    0.0000
     atom:   20    charge:   14.3385    magn:    2.4382    constr:    0.0000
     atom:   21    charge:   14.3531    magn:    2.4124    constr:    0.0000
     atom:   22    charge:   14.2806    magn:    2.6450    constr:    0.0000
     atom:   23    charge:   14.3531    magn:    2.4124    constr:    0.0000
     atom:   24    charge:   14.2802    magn:    2.6453    constr:    0.0000
     atom:   25    charge:   14.2639    magn:    2.6645    constr:    0.0000
     atom:   26    charge:   14.2639    magn:    2.6644    constr:    0.0000
     atom:   27    charge:   14.3387    magn:    2.4382    constr:    0.0000
     atom:   28    charge:   14.3387    magn:    2.4383    constr:    0.0000
     atom:   29    charge:   14.3533    magn:    2.4115    constr:    0.0000
     atom:   30    charge:   14.3532    magn:    2.4119    constr:    0.0000
     atom:   31    charge:   14.2799    magn:    2.6463    constr:    0.0000
     atom:   32    charge:   14.2803    magn:    2.6451    constr:    0.0000
     atom:   33    charge:   14.2641    magn:    2.6645    constr:    0.0000
     atom:   34    charge:   14.3390    magn:    2.4379    constr:    0.0000
     atom:   35    charge:   14.2641    magn:    2.6645    constr:    0.0000
     atom:   36    charge:   14.3386    magn:    2.4380    constr:    0.0000
     atom:   37    charge:   14.3533    magn:    2.4119    constr:    0.0000
     atom:   38    charge:   14.2806    magn:    2.6450    constr:    0.0000
     atom:   39    charge:   14.3533    magn:    2.4119    constr:    0.0000
     atom:   40    charge:   14.2799    magn:    2.6460    constr:    0.0000
     atom:   41    charge:   14.2639    magn:    2.6644    constr:    0.0000
     atom:   42    charge:   14.2639    magn:    2.6644    constr:    0.0000
     atom:   43    charge:   14.3388    magn:    2.4380    constr:    0.0000
     atom:   44    charge:   14.3387    magn:    2.4383    constr:    0.0000
     atom:   45    charge:   14.3533    magn:    2.4116    constr:    0.0000
     atom:   46    charge:   14.3531    magn:    2.4124    constr:    0.0000
     atom:   47    charge:   14.2802    magn:    2.6457    constr:    0.0000
     atom:   48    charge:   14.2804    magn:    2.6450    constr:    0.0000
     atom:   49    charge:   14.2640    magn:    2.6645    constr:    0.0000
     atom:   50    charge:   14.3387    magn:    2.4383    constr:    0.0000
     atom:   51    charge:   14.2641    magn:    2.6645    constr:    0.0000
     atom:   52    charge:   14.3388    magn:    2.4379    constr:    0.0000
     atom:   53    charge:   14.3531    magn:    2.4124    constr:    0.0000
     atom:   54    charge:   14.2806    magn:    2.6448    constr:    0.0000
     atom:   55    charge:   14.3533    magn:    2.4120    constr:    0.0000
     atom:   56    charge:   14.2803    magn:    2.6453    constr:    0.0000
     atom:   57    charge:   14.2642    magn:    2.6645    constr:    0.0000
     atom:   58    charge:   14.2642    magn:    2.6644    constr:    0.0000
     atom:   59    charge:   14.3387    magn:    2.4383    constr:    0.0000
     atom:   60    charge:   14.3387    magn:    2.4381    constr:    0.0000
     atom:   61    charge:   14.3533    magn:    2.4119    constr:    0.0000
     atom:   62    charge:   14.3533    magn:    2.4115    constr:    0.0000
     atom:   63    charge:   14.2804    magn:    2.6450    constr:    0.0000
     atom:   64    charge:   14.2799    magn:    2.6463    constr:    0.0000

     total cpu time spent up to now is    21634.2 secs

     End of self-consistent calculation

 ------ SPIN UP ------------


          k = 0.0000 0.0000 0.0000 (128403 PWs)   bands (ev):

   -95.0950 -95.0793 -95.0771 -95.0771 -95.0771 -95.0771 -95.0650 -95.0650
   -95.0612 -95.0611 -95.0607 -95.0606 -95.0592 -95.0592 -95.0591 -95.0591
   -95.0491 -95.0490 -95.0472 -95.0472 -95.0472 -95.0471 -95.0425 -95.0425
   -95.0424 -95.0422 -95.0352 -95.0310 -95.0308 -95.0304 -95.0303 -95.0189
   -94.9576 -94.9371 -94.9371 -94.9370 -94.9370 -94.9265 -94.9264 -94.9166
   -94.9139 -94.9139 -94.9136 -94.9135 -94.9057 -94.9056 -94.9056 -94.9055
   -94.9052 -94.9052 -94.9051 -94.9051 -94.8976 -94.8972 -94.8972 -94.8968
   -94.8953 -94.8898 -94.8895 -94.8795 -94.8795 -94.8793 -94.8793 -94.8628
   -61.2876 -61.2666 -61.2587 -61.2587 -61.2587 -61.2587 -61.2526 -61.2525
   -61.2499 -61.2497 -61.2492 -61.2492 -61.2481 -61.2481 -61.2423 -61.2421
   -61.2387 -61.2387 -61.2370 -61.2368 -61.2322 -61.2322 -61.2322 -61.2322
   -61.2291 -61.2288 -61.2208 -61.2206 -61.2202 -61.2201 -61.2184 -61.2165
   -61.2102 -61.2044 -61.2042 -61.2042 -61.1962 -61.1962 -61.1800 -61.1800
   -61.1800 -61.1800 -61.1707 -61.1707 -61.1706 -61.1706 -61.1397 -61.1091
   -61.1091 -61.1083 -61.1083 -61.1083 -61.1083 -61.0998 -61.0984 -61.0983
   -61.0978 -61.0978 -61.0977 -61.0977 -61.0916 -61.0916 -61.0877 -61.0844
   -61.0782 -61.0781 -61.0745 -61.0745 -61.0745 -61.0745 -61.0655 -61.0654
   -61.0654 -61.0654 -61.0539 -61.0539 -61.0477 -61.0476 -61.0470 -61.0470
   -61.0409 -61.0409 -61.0370 -61.0370 -61.0370 -61.0370 -61.0319 -61.0319
   -61.0290 -61.0229 -61.0229 -61.0228 -61.0228 -61.0164 -61.0163 -61.0133
   -61.0133 -61.0031 -61.0031 -61.0031 -61.0031 -60.9980 -60.9979 -60.9965
   -60.9802 -60.9802 -60.9780 -60.9780 -60.9779 -60.9779 -60.9727 -60.9727
   -60.9724 -60.9650 -60.9650 -60.9649 -60.9649 -60.9645 -60.9644 -60.9638
   -60.9568 -60.9567 -60.9484 -60.9484 -60.9483 -60.9483 -60.9483 -60.9483
   -60.9479 -60.9468 -60.9466 -60.9438 -60.9436 -60.9299 -60.9298 -60.9246
   -60.9246 -60.9246 -60.9246 -60.9242 -60.9145 -60.9145 -60.9145 -60.9144
   -60.9107 -60.9107 -60.9106 -60.9106 -60.9023 -60.9023 -60.8903 -60.8833
   -60.8825 -60.8823 -60.8802 -60.8801 -60.8800 -60.8800 -60.8673 -60.8671
   -60.8629 -60.8613 -60.8611 -60.8580 -60.8580 -60.8578 -60.8578 -60.8511
   -60.8508 -60.8485 -60.8429 -60.8428 -60.8427 -60.8427 -60.8392 -60.8389
   -60.8339 -60.8183 -60.8182 -60.8182 -60.8182 -60.8132 -60.8131 -60.8112
   -60.8072 -60.8071 -60.8051 -60.8050 -60.8050 -60.8050 -60.8008 -60.7978
   -14.8632 -13.6360 -13.1826 -13.1826 -13.1825 -13.1824 -12.7075 -12.7074
   -12.2458 -12.1987 -12.1987 -12.1986 -12.1985 -11.7751 -11.7624 -11.7623
   -11.5589 -11.5588 -11.5375 -11.5374 -11.5228 -11.4728 -11.4506 -11.3745
   -11.3744 -11.1266 -11.1266 -11.1266 -11.1265 -11.0818 -11.0373 -10.9802
   -10.9801 -10.9780 -10.9780 -10.9778 -10.9776 -10.9652 -10.9651 -10.9648
   -10.9648 -10.9563 -10.9560 -10.9554 -10.9553 -10.9165 -10.9165 -10.8974
   -10.8973 -10.8771 -10.8770 -10.8770 -10.8770 -10.8434 -10.7700 -10.7699
   -10.7699 -10.7699 -10.6942 -10.6941 -10.6940 -10.6940 -10.4137 -10.4137
   -10.3812 -10.3811 -10.3810 -10.3810 -10.2677 -10.2675 -10.2247 -10.2240
   -10.2057 -10.2057 -10.1995 -10.1994 -10.1863 -10.1862 -10.1860 -10.1860
   -10.1720 -10.1537 -10.1536 -10.1495 -10.1494 -10.1492 -10.1491 -10.1293
   -10.1293 -10.1233 -10.1233 -10.1016 -10.1015 -10.1015 -10.1013 -10.0678
   -10.0678 -10.0676 -10.0676 -10.0512 -10.0478 -10.0475 -10.0356 -10.0356
   -10.0086 -10.0086 -10.0085 -10.0083  -9.9332  -9.8658  -9.8656  -9.8285
    -9.8284  -9.8283  -9.8282  -9.8076  -9.7189  -9.7185  -9.6314  -9.6313
    -9.6236  -9.6235  -9.6233  -9.6233  -9.5915  -9.5892  -9.5891  -9.5453
    -9.5453  -9.5451  -9.5451  -9.5408  -9.5404  -9.4877  -9.4875  -9.4873
    -9.4872  -9.4859  -9.4857  -9.4857  -9.4856  -9.4512  -9.4508  -9.4265
    -9.3415  -9.3365  -9.3365  -9.3363  -9.3363  -9.3217  -9.3217  -9.3215
    -9.3214  -9.2910  -9.2707  -9.2513  -9.2507  -9.2034  -9.2033  -9.1805
    -9.1804  -9.1774  -9.1774  -9.1715  -9.1710  -9.1243  -9.1113  -9.1110
    -9.1108  -9.1108  -9.0835  -9.0834  -9.0832  -9.0832  -9.0589  -9.0586
    -9.0585  -9.0470  -9.0469  -9.0440  -9.0439  -9.0044  -9.0043  -9.0041
    -9.0040  -8.9187  -8.9185  -8.8052  -8.8052  -8.6536  -8.6535  -8.5125
    -8.5123  -8.5118  -8.5118  -8.5117  -8.5116  -8.4974  -8.4906  -8.4749
    -8.4748  -8.4744  -8.4744  -8.4432  -8.4275  -8.4273  -8.3957  -8.3955
    -8.3474  -8.3474  -8.3473  -8.3472  -8.3174  -8.3172  -8.3050  -8.3049
    -8.3046  -8.3045  -8.2927  -8.2925  -8.2897  -8.2373  -8.2299  -8.2299
    -8.2077  -8.2077  -8.2076  -8.2074  -8.1679  -8.1677  -8.1675  -8.1675
    -8.1639  -8.1639  -8.1605  -8.1605  -8.1472  -8.1240  -8.1113  -8.1112
    -8.1112  -8.1111  -8.0937  -8.0936  -8.0864  -8.0835  -8.0834  -8.0833
    -8.0830  -8.0806  -8.0805  -8.0705  -8.0609  -8.0607  -8.0606  -8.0604
    -8.0600  -8.0594  -8.0491  -8.0442  -8.0383  -8.0381  -8.0181  -8.0177
    -8.0177  -8.0176  -7.9749  -7.9742  -7.9742  -7.9734  -7.9733  -7.9692
    -7.9691  -7.9637  -7.9634  -7.9633  -7.9633  -7.9479  -7.9177  -7.9175
    -7.9175  -7.9173  -7.8608  -7.8556  -7.8556  -7.8555  -7.8554  -7.8313
    -7.8310  -7.8201  -7.8200  -7.7049  -7.7049  -7.6961  -7.6961  -7.6960
    -7.6959  -7.6722  -7.6721  -7.6692  -7.6691  -7.6690  -7.6688  -7.6614
    -7.6334  -7.6334  -7.6333  -7.6331  -7.6094  -7.6092  -7.6070  -7.6069
    -7.5873  -7.5129  -7.5128  -7.2280  -7.2049  -7.1759  -7.1758  -7.1596
    -7.1594  -7.0863  -7.0861  -7.0861  -7.0860  -7.0144  -7.0138  -6.9477
    -6.9476  -6.9475  -6.9474  -6.8812  -6.8809  -6.8807  -6.8807  -6.8674
    -6.8533  -6.8290  -6.7268  -6.6581  -6.6581  -6.6221  -6.5455  -6.5454
    -6.5431  -6.1029  -5.9344  -5.9343  -5.9010  -5.9009  -5.8832  -5.8829
    -5.7250  -4.9799  -4.9798  -4.9657  -4.9275  -4.9274

          k = 0.0000 0.2652 0.0000 (128375 PWs)   bands (ev):

   -95.0937 -95.0839 -95.0779 -95.0771 -95.0748 -95.0705 -95.0702 -95.0679
   -95.0652 -95.0610 -95.0605 -95.0591 -95.0585 -95.0582 -95.0546 -95.0538
   -95.0537 -95.0517 -95.0494 -95.0485 -95.0471 -95.0439 -95.0430 -95.0426
   -95.0414 -95.0369 -95.0361 -95.0352 -95.0330 -95.0305 -95.0262 -95.0198
   -94.9561 -94.9451 -94.9378 -94.9336 -94.9320 -94.9286 -94.9210 -94.9201
   -94.9158 -94.9156 -94.9130 -94.9096 -94.9087 -94.9086 -94.9081 -94.9058
   -94.9036 -94.9035 -94.9019 -94.9015 -94.9013 -94.8978 -94.8961 -94.8959
   -94.8950 -94.8919 -94.8860 -94.8847 -94.8820 -94.8790 -94.8730 -94.8640
   -61.2852 -61.2680 -61.2655 -61.2606 -61.2581 -61.2567 -61.2556 -61.2530
   -61.2504 -61.2493 -61.2477 -61.2452 -61.2450 -61.2449 -61.2428 -61.2415
   -61.2393 -61.2392 -61.2391 -61.2342 -61.2335 -61.2332 -61.2323 -61.2313
   -61.2260 -61.2256 -61.2249 -61.2234 -61.2193 -61.2193 -61.2154 -61.2099
   -61.2067 -61.2030 -61.2026 -61.1964 -61.1935 -61.1887 -61.1861 -61.1802
   -61.1775 -61.1759 -61.1732 -61.1665 -61.1660 -61.1576 -61.1370 -61.1339
   -61.1266 -61.1177 -61.1169 -61.1148 -61.1103 -61.1074 -61.1027 -61.0993
   -61.0988 -61.0985 -61.0959 -61.0922 -61.0886 -61.0884 -61.0862 -61.0858
   -61.0850 -61.0835 -61.0812 -61.0768 -61.0741 -61.0715 -61.0714 -61.0701
   -61.0687 -61.0668 -61.0667 -61.0648 -61.0614 -61.0559 -61.0509 -61.0450
   -61.0449 -61.0444 -61.0393 -61.0354 -61.0342 -61.0325 -61.0316 -61.0283
   -61.0187 -61.0183 -61.0165 -61.0146 -61.0121 -61.0118 -61.0100 -61.0083
   -61.0080 -61.0050 -61.0042 -61.0024 -60.9998 -60.9962 -60.9942 -60.9864
   -60.9855 -60.9839 -60.9833 -60.9782 -60.9778 -60.9767 -60.9752 -60.9742
   -60.9739 -60.9737 -60.9729 -60.9678 -60.9676 -60.9665 -60.9621 -60.9620
   -60.9577 -60.9557 -60.9531 -60.9501 -60.9473 -60.9460 -60.9444 -60.9429
   -60.9415 -60.9378 -60.9373 -60.9338 -60.9336 -60.9321 -60.9298 -60.9272
   -60.9272 -60.9243 -60.9208 -60.9168 -60.9166 -60.9157 -60.9116 -60.9089
   -60.9086 -60.9085 -60.9064 -60.9033 -60.8982 -60.8980 -60.8961 -60.8892
   -60.8856 -60.8806 -60.8800 -60.8773 -60.8770 -60.8750 -60.8709 -60.8707
   -60.8683 -60.8680 -60.8608 -60.8574 -60.8550 -60.8546 -60.8473 -60.8454
   -60.8452 -60.8420 -60.8412 -60.8409 -60.8402 -60.8398 -60.8397 -60.8383
   -60.8347 -60.8265 -60.8220 -60.8215 -60.8190 -60.8174 -60.8159 -60.8155
   -60.8140 -60.8133 -60.8089 -60.8082 -60.8071 -60.8061 -60.8036 -60.7999
   -14.7468 -13.8658 -13.5253 -13.3280 -13.0693 -12.8569 -12.7279 -12.4604
   -12.2971 -12.2455 -12.1426 -12.0432 -11.9452 -11.8525 -11.7948 -11.6910
   -11.5999 -11.5531 -11.4995 -11.4767 -11.4713 -11.4544 -11.4500 -11.4205
   -11.4060 -11.2697 -11.1948 -11.1682 -11.1251 -11.1235 -11.1105 -11.0890
   -11.0838 -11.0788 -11.0656 -11.0579 -11.0530 -11.0309 -11.0224 -11.0176
   -10.9894 -10.9780 -10.9660 -10.9437 -10.9430 -10.9254 -10.9033 -10.8978
   -10.8768 -10.8590 -10.8357 -10.8238 -10.8060 -10.8046 -10.7968 -10.7918
   -10.7698 -10.6742 -10.6469 -10.6319 -10.6232 -10.6019 -10.5813 -10.4956
   -10.4654 -10.4408 -10.3877 -10.3751 -10.3267 -10.3189 -10.2794 -10.2301
   -10.2208 -10.2162 -10.2068 -10.1966 -10.1947 -10.1830 -10.1670 -10.1649
   -10.1581 -10.1503 -10.1497 -10.1461 -10.1247 -10.1189 -10.1167 -10.1145
   -10.1081 -10.1011 -10.0857 -10.0762 -10.0754 -10.0691 -10.0661 -10.0645
   -10.0630 -10.0562 -10.0521 -10.0504 -10.0151  -9.9873  -9.9724  -9.9692
    -9.9617  -9.9558  -9.9342  -9.9250  -9.9225  -9.9041  -9.9014  -9.8957
    -9.8157  -9.8113  -9.7923  -9.7561  -9.7298  -9.7256  -9.7215  -9.7072
    -9.6959  -9.6235  -9.6232  -9.6087  -9.6003  -9.5973  -9.5859  -9.5853
    -9.5828  -9.5803  -9.5639  -9.5620  -9.5484  -9.5319  -9.5140  -9.5132
    -9.5073  -9.5025  -9.4737  -9.4661  -9.4593  -9.4168  -9.4103  -9.3837
    -9.3791  -9.3610  -9.3572  -9.3398  -9.3284  -9.3237  -9.3215  -9.3155
    -9.3066  -9.3056  -9.2984  -9.2844  -9.2797  -9.2706  -9.2642  -9.2574
    -9.2542  -9.2334  -9.2124  -9.2021  -9.1659  -9.1468  -9.1439  -9.1237
    -9.1100  -9.0999  -9.0801  -9.0707  -9.0703  -9.0597  -9.0499  -9.0387
    -9.0278  -8.9831  -8.9759  -8.9402  -8.9371  -8.9294  -8.8998  -8.8685
    -8.8493  -8.8474  -8.8261  -8.7667  -8.6515  -8.6405  -8.6377  -8.5943
    -8.5903  -8.5700  -8.5560  -8.5378  -8.5113  -8.5068  -8.5030  -8.4801
    -8.4722  -8.4712  -8.4532  -8.4503  -8.4486  -8.4429  -8.4309  -8.4285
    -8.3982  -8.3900  -8.3638  -8.3308  -8.3229  -8.3098  -8.3048  -8.3019
    -8.3009  -8.2948  -8.2743  -8.2721  -8.2718  -8.2683  -8.2668  -8.2550
    -8.2433  -8.2433  -8.2053  -8.1994  -8.1915  -8.1835  -8.1735  -8.1679
    -8.1533  -8.1528  -8.1470  -8.1388  -8.1387  -8.1315  -8.1256  -8.1238
    -8.1211  -8.1088  -8.1028  -8.1013  -8.0973  -8.0877  -8.0873  -8.0717
    -8.0643  -8.0559  -8.0532  -8.0457  -8.0441  -8.0391  -8.0364  -8.0350
    -8.0318  -8.0293  -8.0257  -8.0229  -8.0049  -8.0034  -7.9981  -7.9937
    -7.9842  -7.9748  -7.9728  -7.9680  -7.9676  -7.9594  -7.9573  -7.9545
    -7.9530  -7.9340  -7.9316  -7.9160  -7.9051  -7.9040  -7.8976  -7.8759
    -7.8513  -7.8447  -7.8302  -7.8131  -7.8098  -7.8085  -7.8013  -7.7883
    -7.7836  -7.7785  -7.7694  -7.7665  -7.7658  -7.7657  -7.7432  -7.7119
    -7.6934  -7.6903  -7.6864  -7.6857  -7.6828  -7.6634  -7.6572  -7.6480
    -7.6428  -7.6382  -7.6310  -7.6162  -7.5993  -7.5344  -7.4992  -7.4984
    -7.4951  -7.2864  -7.2708  -7.2604  -7.2406  -7.2280  -7.2162  -7.1967
    -7.1902  -7.1862  -7.1772  -7.1101  -7.1080  -7.1003  -7.0815  -7.0800
    -7.0683  -7.0591  -7.0554  -7.0211  -7.0190  -7.0101  -6.9755  -6.9706
    -6.9539  -6.8862  -6.8574  -6.8269  -6.7679  -6.7167  -6.5253  -6.4615
    -6.2388  -6.0746  -6.0731  -6.0000  -5.9592  -5.8140  -5.8047  -5.6490
    -5.6447  -5.5530  -5.5096  -5.4531  -5.3101  -5.2790

          k = 0.0000-0.5303 0.0000 (128388 PWs)   bands (ev):

   -95.0898 -95.0898 -95.0747 -95.0747 -95.0740 -95.0739 -95.0707 -95.0707
   -95.0644 -95.0644 -95.0589 -95.0586 -95.0556 -95.0556 -95.0543 -95.0540
   -95.0536 -95.0536 -95.0494 -95.0494 -95.0478 -95.0478 -95.0390 -95.0390
   -95.0387 -95.0387 -95.0374 -95.0373 -95.0328 -95.0326 -95.0224 -95.0223
   -94.9518 -94.9517 -94.9361 -94.9360 -94.9280 -94.9280 -94.9211 -94.9211
   -94.9140 -94.9139 -94.9133 -94.9132 -94.9114 -94.9114 -94.9046 -94.9046
   -94.9044 -94.9043 -94.8999 -94.8998 -94.8992 -94.8991 -94.8983 -94.8982
   -94.8919 -94.8918 -94.8865 -94.8864 -94.8810 -94.8809 -94.8677 -94.8676
   -61.2780 -61.2780 -61.2620 -61.2620 -61.2608 -61.2608 -61.2511 -61.2510
   -61.2505 -61.2505 -61.2479 -61.2476 -61.2449 -61.2449 -61.2392 -61.2389
   -61.2378 -61.2378 -61.2373 -61.2373 -61.2326 -61.2326 -61.2325 -61.2325
   -61.2270 -61.2267 -61.2214 -61.2214 -61.2213 -61.2210 -61.2104 -61.2103
   -61.1975 -61.1975 -61.1939 -61.1939 -61.1880 -61.1880 -61.1864 -61.1864
   -61.1728 -61.1728 -61.1575 -61.1575 -61.1556 -61.1556 -61.1454 -61.1453
   -61.1370 -61.1370 -61.1288 -61.1286 -61.1231 -61.1231 -61.1115 -61.1115
   -61.0955 -61.0954 -61.0941 -61.0941 -61.0869 -61.0869 -61.0853 -61.0853
   -61.0817 -61.0817 -61.0743 -61.0743 -61.0737 -61.0737 -61.0666 -61.0666
   -61.0649 -61.0649 -61.0644 -61.0644 -61.0586 -61.0586 -61.0518 -61.0517
   -61.0512 -61.0512 -61.0467 -61.0467 -61.0435 -61.0435 -61.0425 -61.0425
   -61.0300 -61.0300 -61.0192 -61.0192 -61.0056 -61.0056 -61.0033 -61.0033
   -61.0007 -61.0007 -60.9928 -60.9927 -60.9891 -60.9891 -60.9840 -60.9840
   -60.9779 -60.9778 -60.9757 -60.9757 -60.9748 -60.9748 -60.9742 -60.9742
   -60.9707 -60.9707 -60.9689 -60.9689 -60.9619 -60.9619 -60.9619 -60.9619
   -60.9583 -60.9583 -60.9551 -60.9550 -60.9544 -60.9542 -60.9508 -60.9507
   -60.9374 -60.9374 -60.9373 -60.9373 -60.9365 -60.9365 -60.9262 -60.9262
   -60.9199 -60.9198 -60.9116 -60.9115 -60.9107 -60.9107 -60.9059 -60.9059
   -60.9057 -60.9057 -60.9034 -60.9033 -60.8957 -60.8957 -60.8954 -60.8954
   -60.8949 -60.8949 -60.8769 -60.8768 -60.8756 -60.8756 -60.8724 -60.8723
   -60.8659 -60.8658 -60.8523 -60.8522 -60.8409 -60.8408 -60.8396 -60.8395
   -60.8384 -60.8383 -60.8379 -60.8379 -60.8370 -60.8369 -60.8345 -60.8345
   -60.8343 -60.8343 -60.8308 -60.8308 -60.8305 -60.8304 -60.8251 -60.8250
   -60.8226 -60.8225 -60.8140 -60.8140 -60.8068 -60.8067 -60.8019 -60.8018
   -14.4056 -14.4055 -13.2861 -13.2860 -13.2066 -13.2065 -12.3874 -12.3873
   -12.2371 -12.2370 -11.8757 -11.8755 -11.8520 -11.8518 -11.7433 -11.7433
   -11.6088 -11.6088 -11.5793 -11.5792 -11.4533 -11.4532 -11.3374 -11.3372
   -11.3250 -11.3249 -11.3090 -11.3090 -11.2778 -11.2777 -11.2692 -11.2691
   -11.1807 -11.1807 -11.1180 -11.1180 -11.1073 -11.1072 -10.9554 -10.9554
   -10.9481 -10.9480 -10.8787 -10.8787 -10.8683 -10.8682 -10.8504 -10.8504
   -10.8469 -10.8467 -10.8243 -10.8242 -10.8230 -10.8229 -10.7095 -10.7094
   -10.7070 -10.7070 -10.6834 -10.6833 -10.6788 -10.6787 -10.5781 -10.5781
   -10.5118 -10.5117 -10.4695 -10.4695 -10.3962 -10.3961 -10.2521 -10.2520
   -10.2122 -10.2122 -10.1885 -10.1885 -10.1747 -10.1747 -10.1648 -10.1647
   -10.1453 -10.1451 -10.1365 -10.1362 -10.1305 -10.1301 -10.1045 -10.1044
   -10.1032 -10.1031 -10.0997 -10.0994 -10.0580 -10.0579 -10.0075 -10.0075
    -9.9713  -9.9712  -9.9629  -9.9628  -9.9349  -9.9348  -9.9168  -9.9167
    -9.9057  -9.9055  -9.9033  -9.9032  -9.9028  -9.9028  -9.8921  -9.8920
    -9.8458  -9.8458  -9.8413  -9.8412  -9.8352  -9.8350  -9.6859  -9.6856
    -9.6376  -9.6373  -9.5857  -9.5856  -9.5855  -9.5854  -9.5731  -9.5730
    -9.5625  -9.5624  -9.5565  -9.5563  -9.5492  -9.5492  -9.5389  -9.5388
    -9.5256  -9.5256  -9.4955  -9.4955  -9.4899  -9.4898  -9.4830  -9.4828
    -9.4308  -9.4307  -9.4201  -9.4199  -9.3993  -9.3992  -9.3583  -9.3583
    -9.3560  -9.3557  -9.3436  -9.3434  -9.3004  -9.3003  -9.2687  -9.2683
    -9.2408  -9.2407  -9.2187  -9.2186  -9.1106  -9.1104  -9.0905  -9.0903
    -9.0799  -9.0798  -9.0551  -9.0548  -9.0498  -9.0496  -9.0196  -9.0194
    -8.9141  -8.9140  -8.7757  -8.7755  -8.7723  -8.7721  -8.7590  -8.7589
    -8.7126  -8.7125  -8.7004  -8.7003  -8.6235  -8.6234  -8.6083  -8.6083
    -8.5878  -8.5877  -8.5839  -8.5839  -8.5806  -8.5805  -8.5615  -8.5615
    -8.5477  -8.5475  -8.5243  -8.5242  -8.4441  -8.4439  -8.4123  -8.4121
    -8.4097  -8.4095  -8.4007  -8.4006  -8.3711  -8.3710  -8.2842  -8.2839
    -8.2777  -8.2773  -8.2732  -8.2731  -8.2611  -8.2610  -8.2592  -8.2592
    -8.2570  -8.2568  -8.2517  -8.2517  -8.2274  -8.2272  -8.2267  -8.2266
    -8.2203  -8.2200  -8.2184  -8.2182  -8.1376  -8.1374  -8.0979  -8.0977
    -8.0975  -8.0973  -8.0956  -8.0955  -8.0706  -8.0706  -8.0579  -8.0579
    -8.0578  -8.0576  -8.0510  -8.0510  -8.0445  -8.0442  -8.0402  -8.0402
    -8.0181  -8.0178  -8.0159  -8.0157  -7.9801  -7.9799  -7.9691  -7.9690
    -7.9595  -7.9594  -7.9145  -7.9144  -7.9041  -7.9039  -7.9004  -7.9003
    -7.8668  -7.8667  -7.8478  -7.8476  -7.8182  -7.8182  -7.8155  -7.8154
    -7.8135  -7.8135  -7.7993  -7.7992  -7.7972  -7.7971  -7.7935  -7.7933
    -7.7909  -7.7909  -7.7844  -7.7843  -7.7799  -7.7798  -7.7743  -7.7742
    -7.7134  -7.7132  -7.6831  -7.6829  -7.6131  -7.6130  -7.5657  -7.5657
    -7.5226  -7.5222  -7.5166  -7.5166  -7.3959  -7.3958  -7.3932  -7.3931
    -7.3674  -7.3674  -7.3141  -7.3140  -7.3063  -7.3063  -7.2927  -7.2927
    -7.2648  -7.2647  -7.2390  -7.2389  -7.2239  -7.2239  -7.1377  -7.1375
    -7.1086  -7.1084  -7.0694  -7.0694  -7.0343  -7.0342  -7.0225  -7.0225
    -6.9967  -6.9966  -6.9847  -6.9846  -6.9566  -6.9565  -6.6414  -6.6413
    -6.4952  -6.4951  -5.9894  -5.9894  -5.9715  -5.9713  -5.6747  -5.6740
    -5.3444  -5.3442  -5.1867  -5.1865  -5.1339  -5.1336

          k = 0.2500-0.0884 0.0000 (128371 PWs)   bands (ev):

   -95.0937 -95.0839 -95.0779 -95.0771 -95.0748 -95.0705 -95.0702 -95.0679
   -95.0652 -95.0610 -95.0605 -95.0591 -95.0585 -95.0582 -95.0546 -95.0538
   -95.0537 -95.0517 -95.0494 -95.0485 -95.0471 -95.0439 -95.0430 -95.0426
   -95.0414 -95.0369 -95.0361 -95.0352 -95.0330 -95.0305 -95.0262 -95.0198
   -94.9561 -94.9451 -94.9378 -94.9336 -94.9320 -94.9286 -94.9210 -94.9201
   -94.9158 -94.9156 -94.9130 -94.9096 -94.9087 -94.9086 -94.9081 -94.9058
   -94.9036 -94.9035 -94.9019 -94.9015 -94.9013 -94.8978 -94.8961 -94.8959
   -94.8950 -94.8919 -94.8860 -94.8847 -94.8820 -94.8790 -94.8730 -94.8640
   -61.2852 -61.2680 -61.2655 -61.2606 -61.2581 -61.2567 -61.2556 -61.2530
   -61.2504 -61.2493 -61.2477 -61.2452 -61.2450 -61.2449 -61.2428 -61.2415
   -61.2393 -61.2392 -61.2391 -61.2342 -61.2335 -61.2332 -61.2323 -61.2313
   -61.2260 -61.2256 -61.2249 -61.2234 -61.2193 -61.2193 -61.2154 -61.2099
   -61.2067 -61.2030 -61.2026 -61.1964 -61.1935 -61.1887 -61.1861 -61.1802
   -61.1775 -61.1759 -61.1732 -61.1665 -61.1660 -61.1576 -61.1370 -61.1339
   -61.1266 -61.1177 -61.1169 -61.1148 -61.1103 -61.1074 -61.1027 -61.0993
   -61.0988 -61.0985 -61.0959 -61.0922 -61.0886 -61.0884 -61.0862 -61.0858
   -61.0850 -61.0835 -61.0812 -61.0768 -61.0741 -61.0715 -61.0714 -61.0701
   -61.0687 -61.0668 -61.0667 -61.0648 -61.0614 -61.0559 -61.0509 -61.0450
   -61.0449 -61.0444 -61.0393 -61.0354 -61.0342 -61.0325 -61.0316 -61.0283
   -61.0187 -61.0183 -61.0165 -61.0146 -61.0121 -61.0118 -61.0100 -61.0083
   -61.0080 -61.0050 -61.0042 -61.0024 -60.9998 -60.9962 -60.9942 -60.9863
   -60.9855 -60.9839 -60.9833 -60.9782 -60.9778 -60.9767 -60.9751 -60.9742
   -60.9739 -60.9737 -60.9729 -60.9678 -60.9676 -60.9665 -60.9621 -60.9620
   -60.9577 -60.9557 -60.9531 -60.9501 -60.9473 -60.9460 -60.9444 -60.9429
   -60.9415 -60.9378 -60.9373 -60.9338 -60.9336 -60.9321 -60.9298 -60.9272
   -60.9272 -60.9243 -60.9208 -60.9168 -60.9166 -60.9156 -60.9116 -60.9089
   -60.9086 -60.9085 -60.9064 -60.9033 -60.8982 -60.8980 -60.8961 -60.8892
   -60.8856 -60.8806 -60.8800 -60.8773 -60.8770 -60.8750 -60.8709 -60.8707
   -60.8683 -60.8680 -60.8608 -60.8574 -60.8550 -60.8547 -60.8473 -60.8454
   -60.8452 -60.8420 -60.8412 -60.8409 -60.8402 -60.8398 -60.8397 -60.8383
   -60.8347 -60.8265 -60.8220 -60.8215 -60.8190 -60.8174 -60.8159 -60.8155
   -60.8140 -60.8133 -60.8089 -60.8082 -60.8071 -60.8061 -60.8036 -60.7999
   -14.7468 -13.8659 -13.5253 -13.3280 -13.0693 -12.8569 -12.7279 -12.4604
   -12.2971 -12.2455 -12.1426 -12.0432 -11.9452 -11.8525 -11.7948 -11.6910
   -11.5999 -11.5531 -11.4995 -11.4767 -11.4713 -11.4544 -11.4500 -11.4205
   -11.4060 -11.2698 -11.1948 -11.1682 -11.1251 -11.1235 -11.1105 -11.0890
   -11.0838 -11.0788 -11.0656 -11.0579 -11.0530 -11.0309 -11.0224 -11.0176
   -10.9894 -10.9780 -10.9660 -10.9437 -10.9430 -10.9254 -10.9033 -10.8978
   -10.8768 -10.8590 -10.8357 -10.8238 -10.8060 -10.8046 -10.7968 -10.7918
   -10.7698 -10.6742 -10.6469 -10.6319 -10.6232 -10.6019 -10.5813 -10.4956
   -10.4654 -10.4408 -10.3877 -10.3751 -10.3267 -10.3189 -10.2794 -10.2300
   -10.2208 -10.2162 -10.2068 -10.1966 -10.1947 -10.1830 -10.1670 -10.1649
   -10.1581 -10.1503 -10.1497 -10.1461 -10.1247 -10.1190 -10.1167 -10.1145
   -10.1081 -10.1011 -10.0857 -10.0762 -10.0754 -10.0691 -10.0661 -10.0645
   -10.0630 -10.0562 -10.0521 -10.0504 -10.0151  -9.9873  -9.9724  -9.9692
    -9.9617  -9.9558  -9.9342  -9.9250  -9.9225  -9.9041  -9.9014  -9.8957
    -9.8157  -9.8113  -9.7923  -9.7560  -9.7298  -9.7256  -9.7215  -9.7071
    -9.6959  -9.6235  -9.6232  -9.6087  -9.6003  -9.5972  -9.5859  -9.5853
    -9.5828  -9.5803  -9.5639  -9.5620  -9.5484  -9.5319  -9.5140  -9.5132
    -9.5073  -9.5025  -9.4737  -9.4661  -9.4593  -9.4168  -9.4103  -9.3837
    -9.3791  -9.3610  -9.3572  -9.3398  -9.3284  -9.3237  -9.3215  -9.3154
    -9.3066  -9.3056  -9.2984  -9.2844  -9.2797  -9.2706  -9.2642  -9.2574
    -9.2542  -9.2334  -9.2124  -9.2021  -9.1659  -9.1468  -9.1439  -9.1237
    -9.1100  -9.0999  -9.0801  -9.0707  -9.0703  -9.0597  -9.0499  -9.0387
    -9.0278  -8.9831  -8.9759  -8.9402  -8.9371  -8.9294  -8.8998  -8.8685
    -8.8493  -8.8474  -8.8261  -8.7667  -8.6515  -8.6405  -8.6377  -8.5943
    -8.5903  -8.5700  -8.5560  -8.5378  -8.5113  -8.5068  -8.5030  -8.4801
    -8.4722  -8.4712  -8.4532  -8.4503  -8.4486  -8.4429  -8.4309  -8.4285
    -8.3982  -8.3900  -8.3638  -8.3308  -8.3229  -8.3098  -8.3048  -8.3019
    -8.3009  -8.2948  -8.2743  -8.2721  -8.2718  -8.2683  -8.2668  -8.2550
    -8.2433  -8.2433  -8.2053  -8.1994  -8.1915  -8.1835  -8.1735  -8.1679
    -8.1533  -8.1528  -8.1470  -8.1388  -8.1387  -8.1315  -8.1256  -8.1238
    -8.1211  -8.1088  -8.1028  -8.1013  -8.0973  -8.0877  -8.0873  -8.0717
    -8.0643  -8.0559  -8.0532  -8.0457  -8.0441  -8.0391  -8.0364  -8.0349
    -8.0318  -8.0293  -8.0256  -8.0229  -8.0049  -8.0034  -7.9981  -7.9937
    -7.9842  -7.9748  -7.9728  -7.9680  -7.9676  -7.9594  -7.9573  -7.9545
    -7.9530  -7.9340  -7.9316  -7.9160  -7.9051  -7.9040  -7.8976  -7.8759
    -7.8513  -7.8447  -7.8302  -7.8131  -7.8099  -7.8085  -7.8013  -7.7883
    -7.7836  -7.7785  -7.7694  -7.7665  -7.7658  -7.7657  -7.7432  -7.7119
    -7.6934  -7.6903  -7.6864  -7.6857  -7.6828  -7.6634  -7.6572  -7.6480
    -7.6429  -7.6382  -7.6310  -7.6162  -7.5993  -7.5344  -7.4992  -7.4984
    -7.4951  -7.2864  -7.2708  -7.2604  -7.2406  -7.2280  -7.2162  -7.1967
    -7.1902  -7.1862  -7.1772  -7.1101  -7.1080  -7.1003  -7.0815  -7.0800
    -7.0683  -7.0591  -7.0554  -7.0211  -7.0190  -7.0101  -6.9755  -6.9706
    -6.9539  -6.8862  -6.8574  -6.8269  -6.7679  -6.7167  -6.5253  -6.4616
    -6.2388  -6.0746  -6.0731  -6.0001  -5.9592  -5.8140  -5.8047  -5.6490
    -5.6447  -5.5531  -5.5096  -5.4531  -5.3101  -5.2790

          k = 0.2500 0.1768 0.0000 (128340 PWs)   bands (ev):

   -95.0927 -95.0817 -95.0817 -95.0770 -95.0764 -95.0702 -95.0702 -95.0658
   -95.0653 -95.0606 -95.0592 -95.0592 -95.0592 -95.0591 -95.0541 -95.0540
   -95.0540 -95.0536 -95.0536 -95.0425 -95.0425 -95.0425 -95.0425 -95.0425
   -95.0422 -95.0379 -95.0375 -95.0374 -95.0373 -95.0263 -95.0257 -95.0212
   -94.9553 -94.9420 -94.9419 -94.9383 -94.9297 -94.9296 -94.9146 -94.9145
   -94.9139 -94.9139 -94.9137 -94.9136 -94.9125 -94.9124 -94.9097 -94.9095
   -94.9002 -94.9001 -94.9000 -94.8997 -94.8995 -94.8977 -94.8975 -94.8973
   -94.8972 -94.8969 -94.8855 -94.8853 -94.8795 -94.8754 -94.8752 -94.8649
   -61.2849 -61.2658 -61.2644 -61.2629 -61.2628 -61.2538 -61.2533 -61.2529
   -61.2529 -61.2484 -61.2466 -61.2466 -61.2435 -61.2430 -61.2399 -61.2399
   -61.2399 -61.2397 -61.2396 -61.2395 -61.2394 -61.2307 -61.2305 -61.2283
   -61.2278 -61.2258 -61.2257 -61.2252 -61.2215 -61.2139 -61.2134 -61.2081
   -61.2033 -61.1970 -61.1953 -61.1952 -61.1871 -61.1870 -61.1741 -61.1741
   -61.1731 -61.1731 -61.1659 -61.1657 -61.1629 -61.1629 -61.1340 -61.1339
   -61.1281 -61.1264 -61.1264 -61.1243 -61.1242 -61.1169 -61.1168 -61.1150
   -61.1095 -61.1059 -61.1058 -61.0947 -61.0907 -61.0907 -61.0865 -61.0864
   -61.0842 -61.0842 -61.0792 -61.0784 -61.0784 -61.0772 -61.0718 -61.0717
   -61.0716 -61.0715 -61.0645 -61.0645 -61.0580 -61.0485 -61.0477 -61.0477
   -61.0424 -61.0379 -61.0379 -61.0324 -61.0324 -61.0323 -61.0323 -61.0283
   -61.0282 -61.0275 -61.0201 -61.0141 -61.0141 -61.0067 -61.0066 -61.0058
   -61.0025 -60.9972 -60.9972 -60.9954 -60.9954 -60.9914 -60.9902 -60.9891
   -60.9871 -60.9870 -60.9849 -60.9848 -60.9818 -60.9810 -60.9781 -60.9781
   -60.9755 -60.9754 -60.9740 -60.9689 -60.9632 -60.9632 -60.9554 -60.9536
   -60.9536 -60.9531 -60.9522 -60.9520 -60.9450 -60.9449 -60.9447 -60.9446
   -60.9410 -60.9409 -60.9318 -60.9317 -60.9294 -60.9293 -60.9278 -60.9278
   -60.9195 -60.9179 -60.9177 -60.9175 -60.9175 -60.9104 -60.9096 -60.9095
   -60.9075 -60.9074 -60.9042 -60.9027 -60.8959 -60.8934 -60.8932 -60.8931
   -60.8885 -60.8884 -60.8853 -60.8779 -60.8779 -60.8679 -60.8645 -60.8643
   -60.8574 -60.8572 -60.8565 -60.8564 -60.8557 -60.8555 -60.8480 -60.8468
   -60.8466 -60.8445 -60.8443 -60.8407 -60.8389 -60.8388 -60.8372 -60.8369
   -60.8343 -60.8231 -60.8230 -60.8229 -60.8221 -60.8220 -60.8196 -60.8195
   -60.8154 -60.8154 -60.8148 -60.8147 -60.8124 -60.8105 -60.8105 -60.8026
   -14.7075 -13.5574 -13.5574 -13.5488 -13.4888 -12.6037 -12.6037 -12.4509
   -12.4508 -12.4357 -12.1157 -11.9719 -11.8400 -11.8399 -11.6726 -11.5260
   -11.5165 -11.5164 -11.4809 -11.4808 -11.4075 -11.3937 -11.3884 -11.3883
   -11.2952 -11.2882 -11.2882 -11.2747 -11.1934 -11.1934 -11.1548 -11.1548
   -11.0699 -11.0658 -11.0658 -11.0447 -11.0291 -11.0103 -11.0073 -11.0072
   -10.9992 -10.9969 -10.9968 -10.9914 -10.9912 -10.9876 -10.9874 -10.9148
   -10.9148 -10.9022 -10.9020 -10.8299 -10.8298 -10.8181 -10.8180 -10.7713
   -10.6461 -10.6461 -10.6227 -10.6225 -10.5589 -10.5252 -10.5251 -10.5184
   -10.5183 -10.4952 -10.4952 -10.3498 -10.3496 -10.3102 -10.3102 -10.2403
   -10.2403 -10.2399 -10.2230 -10.2227 -10.2130 -10.2126 -10.2032 -10.2032
   -10.2013 -10.2012 -10.1913 -10.1911 -10.1809 -10.1808 -10.1428 -10.1428
   -10.0801 -10.0800 -10.0773 -10.0688 -10.0685 -10.0168 -10.0097 -10.0096
   -10.0096 -10.0094  -9.9980  -9.9979  -9.9814  -9.9813  -9.9550  -9.9548
    -9.9112  -9.9110  -9.8692  -9.8635  -9.8634  -9.8445  -9.8262  -9.8196
    -9.8046  -9.8045  -9.7951  -9.7947  -9.7895  -9.7894  -9.7826  -9.7825
    -9.7679  -9.7014  -9.7014  -9.6806  -9.6806  -9.6027  -9.6026  -9.5924
    -9.5923  -9.5884  -9.5882  -9.5718  -9.5715  -9.5337  -9.5336  -9.5173
    -9.5173  -9.5116  -9.4869  -9.4823  -9.4822  -9.4482  -9.4482  -9.4335
    -9.4334  -9.4308  -9.4039  -9.3683  -9.3404  -9.3213  -9.3212  -9.3148
    -9.3057  -9.3051  -9.3051  -9.2905  -9.2904  -9.2196  -9.1958  -9.1957
    -9.1903  -9.1884  -9.1884  -9.1743  -9.1742  -9.1680  -9.1642  -9.1640
    -9.1589  -9.1564  -9.1562  -9.1417  -9.1415  -9.1324  -9.1024  -9.0917
    -9.0275  -9.0274  -8.9011  -8.8634  -8.8459  -8.8455  -8.8358  -8.8266
    -8.8263  -8.7650  -8.6983  -8.6705  -8.6703  -8.6435  -8.5954  -8.5937
    -8.5935  -8.5935  -8.5676  -8.5675  -8.5150  -8.5111  -8.4955  -8.4954
    -8.4817  -8.4817  -8.4677  -8.4667  -8.4069  -8.4054  -8.4052  -8.3902
    -8.3902  -8.3726  -8.3725  -8.3699  -8.3697  -8.3523  -8.3522  -8.3365
    -8.3236  -8.3178  -8.2764  -8.2460  -8.2460  -8.2451  -8.2451  -8.2307
    -8.2246  -8.2245  -8.2220  -8.2219  -8.2089  -8.1952  -8.1951  -8.1803
    -8.1487  -8.1483  -8.1456  -8.1418  -8.1415  -8.1265  -8.1263  -8.1200
    -8.1198  -8.1136  -8.1136  -8.0706  -8.0705  -8.0637  -8.0636  -8.0597
    -8.0594  -8.0483  -8.0481  -8.0173  -8.0158  -8.0082  -7.9962  -7.9961
    -7.9858  -7.9853  -7.9852  -7.9789  -7.9630  -7.9629  -7.9453  -7.9452
    -7.9266  -7.9208  -7.9207  -7.9159  -7.9157  -7.9154  -7.9152  -7.9111
    -7.9110  -7.8842  -7.8841  -7.8755  -7.8749  -7.8634  -7.8632  -7.8289
    -7.8288  -7.8285  -7.8283  -7.8282  -7.8276  -7.8274  -7.8112  -7.8111
    -7.7987  -7.7866  -7.7864  -7.7810  -7.7809  -7.7543  -7.7542  -7.7241
    -7.7166  -7.7165  -7.6801  -7.6679  -7.6678  -7.6431  -7.6431  -7.6283
    -7.5993  -7.5992  -7.5835  -7.5834  -7.5344  -7.4957  -7.4955  -7.4752
    -7.4750  -7.3295  -7.3295  -7.3071  -7.2408  -7.2220  -7.2218  -7.1588
    -7.1450  -7.1372  -7.1371  -7.0813  -7.0812  -7.0701  -7.0544  -7.0543
    -7.0462  -7.0460  -7.0388  -7.0349  -6.9596  -6.9593  -6.9542  -6.9537
    -6.8658  -6.8554  -6.7425  -6.6520  -6.6516  -6.6396  -6.6396  -6.3854
    -6.2150  -6.2149  -6.0703  -6.0702  -6.0427  -5.9723  -5.9722  -5.9584
    -5.9394  -5.9394  -5.8846  -5.8845  -5.6188  -5.6104

          k = 0.2500-0.6187 0.0000 (128424 PWs)   bands (ev):

   -95.0893 -95.0877 -95.0811 -95.0774 -95.0735 -95.0717 -95.0680 -95.0653
   -95.0643 -95.0642 -95.0627 -95.0610 -95.0584 -95.0577 -95.0561 -95.0545
   -95.0519 -95.0486 -95.0478 -95.0475 -95.0460 -95.0447 -95.0422 -95.0411
   -95.0405 -95.0394 -95.0388 -95.0377 -95.0324 -95.0280 -95.0242 -95.0224
   -94.9516 -94.9490 -94.9430 -94.9363 -94.9284 -94.9222 -94.9200 -94.9182
   -94.9181 -94.9151 -94.9130 -94.9118 -94.9107 -94.9091 -94.9090 -94.9080
   -94.9045 -94.9010 -94.9007 -94.9006 -94.8995 -94.8975 -94.8968 -94.8956
   -94.8941 -94.8927 -94.8912 -94.8870 -94.8798 -94.8753 -94.8697 -94.8680
   -61.2799 -61.2722 -61.2703 -61.2612 -61.2601 -61.2571 -61.2533 -61.2515
   -61.2498 -61.2481 -61.2469 -61.2461 -61.2454 -61.2431 -61.2421 -61.2420
   -61.2376 -61.2371 -61.2370 -61.2350 -61.2347 -61.2335 -61.2327 -61.2318
   -61.2290 -61.2274 -61.2245 -61.2207 -61.2204 -61.2145 -61.2116 -61.2098
   -61.1912 -61.1869 -61.1860 -61.1849 -61.1825 -61.1810 -61.1802 -61.1738
   -61.1719 -61.1660 -61.1635 -61.1617 -61.1548 -61.1498 -61.1498 -61.1461
   -61.1427 -61.1419 -61.1405 -61.1402 -61.1316 -61.1251 -61.1181 -61.1148
   -61.1145 -61.1124 -61.1012 -61.0961 -61.0934 -61.0921 -61.0890 -61.0885
   -61.0871 -61.0853 -61.0819 -61.0748 -61.0687 -61.0683 -61.0667 -61.0665
   -61.0659 -61.0644 -61.0639 -61.0629 -61.0614 -61.0595 -61.0574 -61.0534
   -61.0492 -61.0478 -61.0477 -61.0437 -61.0406 -61.0335 -61.0333 -61.0320
   -61.0313 -61.0311 -61.0263 -61.0242 -61.0174 -61.0106 -61.0039 -61.0019
   -61.0013 -60.9965 -60.9935 -60.9885 -60.9849 -60.9844 -60.9836 -60.9817
   -60.9801 -60.9796 -60.9791 -60.9756 -60.9756 -60.9747 -60.9738 -60.9736
   -60.9728 -60.9672 -60.9634 -60.9621 -60.9619 -60.9612 -60.9603 -60.9573
   -60.9560 -60.9557 -60.9551 -60.9542 -60.9504 -60.9490 -60.9487 -60.9475
   -60.9440 -60.9426 -60.9386 -60.9378 -60.9303 -60.9286 -60.9229 -60.9179
   -60.9169 -60.9164 -60.9148 -60.9132 -60.9117 -60.9109 -60.9081 -60.9080
   -60.9075 -60.9058 -60.9043 -60.9035 -60.9016 -60.8943 -60.8880 -60.8871
   -60.8857 -60.8856 -60.8845 -60.8804 -60.8758 -60.8729 -60.8725 -60.8608
   -60.8555 -60.8541 -60.8498 -60.8479 -60.8431 -60.8429 -60.8416 -60.8407
   -60.8407 -60.8403 -60.8381 -60.8375 -60.8367 -60.8354 -60.8352 -60.8346
   -60.8343 -60.8332 -60.8327 -60.8324 -60.8294 -60.8288 -60.8280 -60.8273
   -60.8259 -60.8221 -60.8201 -60.8197 -60.8155 -60.8139 -60.8120 -60.8057
   -14.4412 -14.1475 -13.8576 -13.2402 -13.0689 -12.9637 -12.7102 -12.5997
   -12.0224 -11.9459 -11.8962 -11.8266 -11.7922 -11.7688 -11.6954 -11.6787
   -11.6124 -11.5880 -11.5096 -11.4976 -11.4902 -11.4654 -11.4407 -11.3624
   -11.3520 -11.3390 -11.3054 -11.3006 -11.3001 -11.2923 -11.2630 -11.1815
   -11.1775 -11.1752 -11.1606 -11.1453 -11.1077 -11.0903 -11.0642 -11.0578
   -11.0501 -11.0398 -11.0171 -10.9340 -10.9157 -10.8983 -10.8858 -10.8615
   -10.8211 -10.8157 -10.7895 -10.7875 -10.7324 -10.7284 -10.7036 -10.7012
   -10.6933 -10.6618 -10.6505 -10.6290 -10.6242 -10.5941 -10.5624 -10.5418
   -10.5328 -10.5167 -10.5141 -10.5078 -10.4273 -10.4086 -10.3938 -10.3294
   -10.2545 -10.2433 -10.2300 -10.2236 -10.2200 -10.2150 -10.2074 -10.1948
   -10.1937 -10.1700 -10.1247 -10.1178 -10.0828 -10.0778 -10.0730 -10.0634
   -10.0538 -10.0500 -10.0163 -10.0127 -10.0102 -10.0051 -10.0007  -9.9978
    -9.9932  -9.9928  -9.9853  -9.9735  -9.9623  -9.9438  -9.9212  -9.9204
    -9.9142  -9.9061  -9.8802  -9.8755  -9.8689  -9.8596  -9.8581  -9.8495
    -9.8320  -9.8117  -9.7909  -9.7689  -9.7686  -9.7604  -9.7505  -9.7408
    -9.7363  -9.7344  -9.7290  -9.7197  -9.6991  -9.6929  -9.6908  -9.6831
    -9.6811  -9.6786  -9.6574  -9.6332  -9.6202  -9.6196  -9.6038  -9.5755
    -9.5730  -9.4735  -9.4502  -9.4395  -9.4389  -9.4367  -9.4203  -9.4045
    -9.4033  -9.3982  -9.3939  -9.3934  -9.3713  -9.3683  -9.3599  -9.3574
    -9.3495  -9.3464  -9.3460  -9.3409  -9.2982  -9.2905  -9.2898  -9.2764
    -9.2720  -9.2618  -9.2036  -9.1838  -9.1484  -9.1317  -9.1150  -9.0962
    -9.0892  -9.0440  -9.0282  -9.0132  -9.0012  -9.0011  -8.9306  -8.9103
    -8.8877  -8.8682  -8.8518  -8.8474  -8.8149  -8.7664  -8.7594  -8.7339
    -8.7321  -8.6932  -8.6890  -8.6863  -8.6814  -8.6630  -8.6456  -8.6407
    -8.6359  -8.6236  -8.6186  -8.6084  -8.5544  -8.5504  -8.5298  -8.5044
    -8.5036  -8.4762  -8.4707  -8.4610  -8.4521  -8.4409  -8.4194  -8.4118
    -8.4018  -8.3858  -8.3853  -8.3777  -8.3757  -8.3595  -8.3511  -8.3398
    -8.3337  -8.3007  -8.3006  -8.2812  -8.2698  -8.2605  -8.2555  -8.2511
    -8.2484  -8.2460  -8.2444  -8.2393  -8.2263  -8.2168  -8.2163  -8.2070
    -8.1938  -8.1749  -8.1482  -8.1386  -8.1376  -8.1286  -8.1187  -8.1127
    -8.1048  -8.1014  -8.0940  -8.0929  -8.0784  -8.0748  -8.0719  -8.0596
    -8.0409  -8.0326  -8.0300  -8.0233  -8.0182  -8.0157  -8.0140  -7.9838
    -7.9778  -7.9773  -7.9703  -7.9701  -7.9637  -7.9551  -7.9352  -7.9315
    -7.9311  -7.9308  -7.9231  -7.9119  -7.9110  -7.8957  -7.8931  -7.8834
    -7.8737  -7.8667  -7.8645  -7.8598  -7.8572  -7.8442  -7.8385  -7.8330
    -7.8311  -7.8288  -7.8199  -7.8175  -7.8136  -7.7991  -7.7822  -7.7601
    -7.7552  -7.7425  -7.7335  -7.7225  -7.7060  -7.7046  -7.6902  -7.6729
    -7.6626  -7.6459  -7.6136  -7.5792  -7.5707  -7.5616  -7.5522  -7.5477
    -7.5080  -7.4744  -7.4641  -7.4536  -7.4188  -7.4087  -7.3991  -7.3865
    -7.3706  -7.3228  -7.3200  -7.3185  -7.3146  -7.3045  -7.2748  -7.2403
    -7.2336  -7.2279  -7.1899  -7.1809  -7.1736  -7.1695  -7.1264  -7.1068
    -7.0979  -7.0975  -7.0762  -7.0666  -7.0578  -7.0529  -7.0192  -7.0098
    -6.9962  -6.9807  -6.9756  -6.9450  -6.8096  -6.8089  -6.6669  -6.5968
    -6.5280  -6.4428  -6.3173  -6.1765  -6.1304  -6.1226  -6.0543  -5.9558
    -5.7103  -5.6948  -5.6557  -5.4706  -5.3491  -5.2651

          k = 0.2500-0.3536 0.0000 (128397 PWs)   bands (ev):

   -95.0919 -95.0838 -95.0838 -95.0761 -95.0715 -95.0681 -95.0681 -95.0679
   -95.0678 -95.0641 -95.0641 -95.0600 -95.0600 -95.0550 -95.0519 -95.0519
   -95.0516 -95.0515 -95.0486 -95.0482 -95.0480 -95.0447 -95.0447 -95.0434
[...]
    -6.6795  -6.6658  -6.6546  -6.6170  -6.6078  -6.5249  -6.5228  -6.3677
    -6.3121  -6.3050  -6.2979  -6.2969  -6.2397  -6.1933  -6.1362  -6.1147
    -6.0934  -6.0806  -6.0404  -6.0260  -6.0097  -5.9928  -5.9607  -5.9604
    -5.9594  -5.9579  -5.9564  -5.9293  -5.8947  -5.8934  -5.8876  -5.8342
    -5.7662  -5.7510  -5.7473  -5.7331  -5.7182  -5.7170  -5.7166  -5.7027
    -5.7016  -5.6962  -5.6886  -5.6841  -5.6817  -5.6598  -5.6561  -5.6167
    -5.5889  -5.5420  -5.5145  -5.5059  -5.4812  -5.4798  -5.4761  -5.4656
    -5.4565  -5.4415  -5.4305  -5.4197  -5.4152  -5.4088  -5.3944  -5.3917
    -5.3810  -5.3762  -5.3435  -5.3358  -5.3324  -5.3190  -5.3189  -5.2915
    -5.2902  -5.2878  -5.2642  -5.2402  -5.2279  -5.2137  -5.2134  -5.2042
    -5.2038  -5.2010  -5.1914  -5.1910  -5.1654  -5.1649  -5.1616  -5.1522
    -5.1459  -5.1340  -5.1283  -5.1253  -5.1235  -5.1082  -5.0913  -5.0886
    -5.0687  -5.0676  -5.0589  -5.0532  -5.0510  -5.0470  -5.0078  -4.9880
    -4.9863  -4.9821  -4.9767  -4.9760  -4.9600  -4.9586  -4.9569  -4.9537
    -4.9489  -4.9363  -4.9350  -4.9227  -4.9148  -4.9042  -4.8853  -4.8731
    -4.8701  -4.8571  -4.8560  -4.8511  -4.8407  -4.8394  -4.8381  -4.8369
    -4.8336  -4.8235  -4.8020  -4.8017  -4.7941  -4.7770  -4.7674  -4.7615
    -4.7579  -4.7532  -4.7463  -4.7199  -4.7171  -4.7159  -4.6747  -4.6640
    -4.6579  -4.6404  -4.6299  -4.6123  -4.6113  -4.6086  -4.6023  -4.6015
    -4.5921  -4.5805  -4.5788  -4.5375  -4.5259  -4.5225  -4.5110  -4.5101
    -4.4852  -4.4781  -4.4506  -4.3599  -4.3079  -4.2744  -4.2696  -4.2452
    -4.2315  -4.1330  -4.0600  -3.9932  -3.8662  -3.8267

          k =-0.5000-0.3536 0.0000 (128560 PWs)   bands (ev):

   -92.0877 -92.0877 -92.0795 -92.0794 -92.0532 -92.0531 -92.0530 -92.0530
   -92.0479 -92.0479 -92.0468 -92.0467 -92.0409 -92.0408 -92.0407 -92.0407
   -92.0368 -92.0367 -92.0275 -92.0274 -92.0273 -92.0273 -92.0268 -92.0268
   -92.0249 -92.0249 -92.0248 -92.0247 -92.0033 -92.0032 -92.0032 -92.0031
   -91.9912 -91.9912 -91.9911 -91.9910 -91.9854 -91.9853 -91.9852 -91.9851
   -91.9694 -91.9694 -91.9692 -91.9692 -91.9692 -91.9692 -91.9691 -91.9690
   -91.9631 -91.9631 -91.9631 -91.9631 -91.9626 -91.9626 -91.9626 -91.9626
   -91.9472 -91.9471 -91.9471 -91.9471 -91.9414 -91.9414 -91.9409 -91.9409
   -58.3389 -58.3388 -58.3387 -58.3387 -58.3289 -58.3287 -58.3287 -58.3286
   -58.3266 -58.3265 -58.3223 -58.3222 -58.3210 -58.3209 -58.3139 -58.3138
   -58.3137 -58.3136 -58.3055 -58.3055 -58.3054 -58.3053 -58.2977 -58.2977
   -58.2850 -58.2850 -58.2848 -58.2848 -58.2786 -58.2786 -58.2619 -58.2618
   -58.2568 -58.2568 -58.2489 -58.2488 -58.2488 -58.2487 -58.2469 -58.2468
   -58.2468 -58.2467 -58.2388 -58.2387 -58.2387 -58.2386 -58.2377 -58.2376
   -58.2376 -58.2376 -58.2348 -58.2348 -58.2309 -58.2309 -58.2262 -58.2261
   -58.2243 -58.2243 -58.2225 -58.2225 -58.2225 -58.2224 -58.1871 -58.1870
   -58.1759 -58.1759 -58.1758 -58.1758 -58.1750 -58.1749 -58.1647 -58.1647
   -58.1641 -58.1640 -58.1467 -58.1467 -58.1290 -58.1290 -58.1289 -58.1289
   -58.1284 -58.1283 -58.1276 -58.1276 -58.1183 -58.1183 -58.1183 -58.1183
   -58.1159 -58.1159 -58.1158 -58.1157 -58.1008 -58.1008 -58.0984 -58.0984
   -58.0934 -58.0934 -58.0933 -58.0933 -58.0854 -58.0853 -58.0844 -58.0844
   -58.0844 -58.0844 -58.0745 -58.0745 -58.0745 -58.0744 -58.0711 -58.0710
   -58.0628 -58.0628 -58.0595 -58.0594 -58.0496 -58.0496 -58.0492 -58.0492
   -58.0492 -58.0491 -58.0423 -58.0423 -58.0340 -58.0339 -58.0333 -58.0333
   -58.0266 -58.0266 -58.0241 -58.0241 -58.0193 -58.0192 -58.0192 -58.0192
   -58.0169 -58.0169 -58.0166 -58.0166 -58.0166 -58.0165 -58.0124 -58.0124
   -58.0124 -58.0124 -58.0101 -58.0100 -58.0052 -58.0051 -58.0018 -58.0018
   -58.0017 -58.0017 -57.9954 -57.9954 -57.9944 -57.9944 -57.9941 -57.9941
   -57.9941 -57.9940 -57.9924 -57.9924 -57.9924 -57.9923 -57.9874 -57.9873
   -57.9873 -57.9873 -57.9824 -57.9824 -57.9811 -57.9811 -57.9810 -57.9810
   -57.9809 -57.9808 -57.9808 -57.9808 -57.9709 -57.9709 -57.9662 -57.9662
   -57.9661 -57.9661 -57.9652 -57.9652 -57.9617 -57.9617 -57.9609 -57.9608
   -14.0426 -14.0425 -13.4574 -13.4574 -12.7479 -12.7478 -12.2045 -12.2044
   -11.4546 -11.4546 -11.4545 -11.4544 -11.0429 -11.0427 -10.6053 -10.6052
   -10.6043 -10.6042 -10.6042 -10.6042 -10.5070 -10.5070 -10.4718 -10.4718
   -10.4717 -10.4716 -10.0438 -10.0436 -10.0428 -10.0427 -10.0426 -10.0426
    -9.8328  -9.8328  -9.5738  -9.5737  -9.5396  -9.5395  -9.5394  -9.5392
    -9.4825  -9.4824  -9.4387  -9.4387  -9.4387  -9.4386  -9.2815  -9.2813
    -9.2708  -9.2706  -9.2512  -9.2510  -9.0067  -9.0063  -8.9878  -8.9878
    -8.9877  -8.9877  -8.7681  -8.7680  -8.7179  -8.7177  -8.6678  -8.6677
    -8.5608  -8.5606  -8.4805  -8.4805  -8.4801  -8.4800  -8.4705  -8.4704
    -8.4550  -8.4546  -8.4469  -8.4464  -8.3468  -8.3468  -8.3467  -8.3466
    -8.3409  -8.3407  -8.3405  -8.3405  -8.3339  -8.3338  -8.3337  -8.3336
    -8.1209  -8.1208  -8.1139  -8.1139  -7.9822  -7.9820  -7.9818  -7.9817
    -7.9662  -7.9660  -7.9188  -7.9186  -7.9185  -7.9184  -7.9081  -7.9080
    -7.9069  -7.9067  -7.8806  -7.8806  -7.8803  -7.8803  -7.8485  -7.8485
    -7.8483  -7.8481  -7.8434  -7.8434  -7.8434  -7.8434  -7.8392  -7.8389
    -7.7930  -7.7928  -7.7926  -7.7924  -7.7347  -7.7347  -7.7345  -7.7345
    -7.7344  -7.7344  -7.7342  -7.7341  -7.7313  -7.7309  -7.7154  -7.7149
    -7.6561  -7.6559  -7.5234  -7.5232  -7.4614  -7.4613  -7.4612  -7.4611
    -7.4396  -7.4394  -7.4014  -7.4013  -7.4012  -7.4011  -7.2951  -7.2951
    -7.2775  -7.2775  -7.2774  -7.2773  -7.2731  -7.2728  -7.2228  -7.2225
    -7.2148  -7.2147  -7.1718  -7.1716  -7.0327  -7.0327  -7.0196  -7.0196
    -6.9506  -6.9505  -6.9439  -6.9437  -6.9209  -6.9208  -6.9207  -6.9207
    -6.9139  -6.9138  -6.8888  -6.8886  -6.8247  -6.8247  -6.8247  -6.8246
    -6.8003  -6.8001  -6.5516  -6.5515  -6.4764  -6.4757  -6.4338  -6.4332
    -6.3654  -6.3653  -6.1838  -6.1836  -6.1647  -6.1645  -6.1150  -6.1148
    -6.0412  -6.0411  -6.0055  -6.0054  -6.0051  -6.0049  -5.9292  -5.9289
    -5.9262  -5.9262  -5.8811  -5.8811  -5.8713  -5.8711  -5.7693  -5.7693
    -5.7654  -5.7653  -5.7651  -5.7650  -5.6656  -5.6656  -5.6654  -5.6653
    -5.6637  -5.6636  -5.6636  -5.6635  -5.6382  -5.6377  -5.6366  -5.6365
    -5.5632  -5.5631  -5.5630  -5.5630  -5.5399  -5.5391  -5.4939  -5.4938
    -5.4936  -5.4934  -5.4596  -5.4594  -5.4164  -5.4163  -5.3645  -5.3642
    -5.3072  -5.3072  -5.2273  -5.2273  -5.2236  -5.2235  -5.2234  -5.2233
    -5.2216  -5.2214  -5.2049  -5.2049  -5.1771  -5.1770  -5.1658  -5.1657
    -5.1655  -5.1654  -5.1613  -5.1612  -5.1612  -5.1612  -5.1359  -5.1357
    -5.0860  -5.0860  -5.0857  -5.0855  -5.0844  -5.0840  -5.0632  -5.0629
    -5.0595  -5.0589  -5.0550  -5.0548  -5.0240  -5.0239  -5.0116  -5.0115
    -4.9904  -4.9903  -4.9903  -4.9902  -4.9803  -4.9802  -4.9752  -4.9751
    -4.9750  -4.9750  -4.9646  -4.9644  -4.9358  -4.9358  -4.8693  -4.8692
    -4.8539  -4.8538  -4.8326  -4.8323  -4.8236  -4.8234  -4.7889  -4.7888
    -4.7888  -4.7887  -4.7881  -4.7881  -4.7881  -4.7881  -4.7737  -4.7736
    -4.7701  -4.7701  -4.7700  -4.7700  -4.7623  -4.7622  -4.7182  -4.7182
    -4.7082  -4.7081  -4.7081  -4.7079  -4.6942  -4.6942  -4.6858  -4.6856
    -4.6855  -4.6854  -4.5954  -4.5953  -4.5917  -4.5917  -4.5917  -4.5915
    -4.4165  -4.4161  -4.3788  -4.3788  -4.1664  -4.1663  -4.1663  -4.1663
    -4.0948  -4.0947  -4.0945  -4.0944  -4.0772  -4.0771

     the Fermi energy is    -6.9345 ev

!    total energy              =  -21072.23974924 Ry
     Harris-Foulkes estimate   =  -21072.23973433 Ry
     estimated scf accuracy    <          5.1E-09 Ry

     total all-electron energy =   -162915.218021 Ry

     The total energy is the sum of the following terms:

     one-electron contribution = -737720.89252232 Ry
     hartree contribution      =  368593.88749932 Ry
     xc contribution           =   -2228.22541225 Ry
     ewald contribution        =  355157.78721247 Ry
     Dispersion Correction     =      -1.37062179 Ry
     one-center paw contrib.   =   -4873.42568083 Ry
     smearing contrib. (-TS)   =      -0.00022384 Ry

     total magnetization       =   162.91 Bohr mag/cell
     absolute magnetization    =   169.27 Bohr mag/cell

     convergence has been achieved in  53 iterations

     negative rho (up, down):  2.496E-02 1.871E-02

     Forces acting on atoms (cartesian axes, Ry/au):

     atom    1 type  1   force =     0.00000417    0.00000595    0.00911094
     atom    2 type  1   force =    -0.00000770    0.00003039   -0.00925401
     atom    3 type  1   force =    -0.00000432   -0.00000876    0.00918553
     atom    4 type  1   force =    -0.00001169   -0.00002428   -0.00929525
     atom    5 type  1   force =    -0.00006422    0.00002495    0.00010911
     atom    6 type  1   force =    -0.00000264   -0.00001063   -0.00009211
     atom    7 type  1   force =    -0.00003057    0.00002383    0.00007986
     atom    8 type  1   force =     0.00003338   -0.00003482   -0.00003637
     atom    9 type  1   force =    -0.00001582    0.00001998    0.00917171
     atom   10 type  1   force =     0.00001370   -0.00001837    0.00917356
     atom   11 type  1   force =    -0.00001248   -0.00007027   -0.00923311
     atom   12 type  1   force =    -0.00008350    0.00004836   -0.00928876
     atom   13 type  1   force =    -0.00000626   -0.00001842    0.00019181
     atom   14 type  1   force =    -0.00001917   -0.00001637    0.00010275
     atom   15 type  1   force =    -0.00001278   -0.00002004   -0.00002034
     atom   16 type  1   force =    -0.00008603   -0.00006948   -0.00007272
     atom   17 type  1   force =     0.00001738   -0.00002636    0.00912579
     atom   18 type  1   force =    -0.00001171    0.00004185   -0.00927553
     atom   19 type  1   force =     0.00001962   -0.00002415    0.00912525
     atom   20 type  1   force =     0.00010600   -0.00013000   -0.00921677
     atom   21 type  1   force =     0.00002196   -0.00003313    0.00009401
     atom   22 type  1   force =    -0.00000544    0.00002177   -0.00006509
     atom   23 type  1   force =     0.00001096   -0.00003536    0.00009392
     atom   24 type  1   force =    -0.00002474    0.00002100    0.00002590
     atom   25 type  1   force =     0.00002143   -0.00002912    0.00919491
     atom   26 type  1   force =     0.00001610   -0.00002048    0.00909759
     atom   27 type  1   force =     0.00005085   -0.00004937   -0.00919788
     atom   28 type  1   force =     0.00008827    0.00000199   -0.00923037
     atom   29 type  1   force =     0.00000384   -0.00001021    0.00011406
     atom   30 type  1   force =     0.00002639   -0.00004496   -0.00003147
     atom   31 type  1   force =     0.00003295   -0.00000116   -0.00016564
     atom   32 type  1   force =     0.00000822   -0.00000339   -0.00001844
     atom   33 type  1   force =    -0.00001840    0.00003608    0.00912163
     atom   34 type  1   force =    -0.00001361    0.00003825   -0.00927680
     atom   35 type  1   force =    -0.00002530    0.00003129    0.00911995
     atom   36 type  1   force =    -0.00007656    0.00012839   -0.00922007
     atom   37 type  1   force =     0.00007070   -0.00004610    0.00012484
     atom   38 type  1   force =    -0.00003309    0.00000454   -0.00006618
     atom   39 type  1   force =     0.00001299   -0.00008921    0.00012313
     atom   40 type  1   force =    -0.00000552   -0.00000477   -0.00011575
     atom   41 type  1   force =    -0.00001860    0.00002883    0.00911029
     atom   42 type  1   force =    -0.00002026    0.00003156    0.00919046
     atom   43 type  1   force =    -0.00000010    0.00010859   -0.00928682
     atom   44 type  1   force =    -0.00003694    0.00007472   -0.00919956
     atom   45 type  1   force =    -0.00000153   -0.00000829    0.00014748
     atom   46 type  1   force =    -0.00003665    0.00004348   -0.00001790
     atom   47 type  1   force =     0.00007994    0.00004919   -0.00007091
     atom   48 type  1   force =     0.00000006    0.00000546   -0.00000432
     atom   49 type  1   force =     0.00001371    0.00000398    0.00918677
     atom   50 type  1   force =    -0.00001351    0.00003899   -0.00918388
     atom   51 type  1   force =    -0.00000377   -0.00000032    0.00911331
     atom   52 type  1   force =     0.00004637    0.00001760   -0.00929400
     atom   53 type  1   force =    -0.00002055    0.00002661    0.00007971
     atom   54 type  1   force =     0.00002778   -0.00005303    0.00002615
     atom   55 type  1   force =    -0.00000766    0.00006303    0.00010725
     atom   56 type  1   force =     0.00000905   -0.00005267   -0.00003513
     atom   57 type  1   force =    -0.00001129    0.00002374    0.00916956
     atom   58 type  1   force =     0.00001474   -0.00001683    0.00917322
     atom   59 type  1   force =    -0.00003909    0.00007599   -0.00920119
     atom   60 type  1   force =     0.00005025   -0.00005052   -0.00919951
     atom   61 type  1   force =     0.00000958   -0.00000514    0.00019185
     atom   62 type  1   force =     0.00001238    0.00000577    0.00010595
     atom   63 type  1   force =    -0.00001738   -0.00000846   -0.00000617
     atom   64 type  1   force =    -0.00002390   -0.00004170   -0.00016019

     Total force =     0.000624     Total SCF correction =     0.000051

     BFGS Geometry Optimization

     bfgs converged in   1 scf cycles and   0 bfgs steps
     (criteria: energy <  7.3E-07 Ry, force <  3.9E-04 Ry/Bohr)

     End of BFGS Geometry Optimization

     Final energy   =  -21072.2397492409 Ry
Begin final coordinates

ATOMIC_POSITIONS (angstrom)
Fe       1.654912953   1.170200133   0.000000000    0   0   0
Fe       0.000000000   0.000000000   2.026984232    0   0   0
Fe       4.964738858   3.510600399   0.000000000    0   0   0
Fe       3.309825906   2.340400266   2.026984232    0   0   0
Fe       1.655131513   1.170255800   4.026893789
Fe       3.310185890   9.361715274   6.004812258
Fe       4.964954072   3.510645742   4.026864800
Fe       3.309968878   2.341373774   6.004558667
Fe       2.482363858   3.510600399   0.000000000    0   0   0
Fe       4.137287953   1.170200133   0.000000000    0   0   0
Fe       0.827450906   2.340400266   2.026984232    0   0   0
Fe       2.482375000   0.000000000   2.026984232    0   0   0
Fe       2.482431022   3.510784594   4.026382395
Fe       4.137423723   1.170575205   4.026844020
Fe       0.827793995   2.340671494   6.004582483
Fe       2.483081194   0.000914643   6.004972519
Fe       6.619662953   1.170200133   0.000000000    0   0   0
Fe       4.964750000   0.000000000   2.026984232    0   0   0
Fe       9.929488858   3.510600399   0.000000000    0   0   0
Fe       8.274575906   2.340400266   2.026984232    0   0   0
Fe       6.619907777   1.170455049   4.027049583
Fe       4.965211570   0.000234207   6.004131526
Fe       9.929608704   3.510738088   4.027034307
Fe       8.275000021   2.340478798   6.004316858
Fe       7.447113858   3.510600399   0.000000000    0   0   0
Fe       9.102037953   1.170200133   0.000000000    0   0   0
Fe       5.792200906   2.340400266   2.026984232    0   0   0
Fe       7.447125000   0.000000000   2.026984232    0   0   0
Fe       7.447420479   3.510611505   4.026647087
Fe       9.102346018   1.170211882   4.027134491
Fe       5.792401460   2.340819564   6.005512548
Fe      10.757173775   9.361831542   6.004597452
Fe       3.309814764   5.851000664   0.000000000    0   0   0
Fe       1.654901811   4.680800531   2.026984232    0   0   0
Fe       6.619640670   8.191400930   0.000000000    0   0   0
Fe       4.964727717   7.021200797   2.026984232    0   0   0
Fe       3.309526336   5.851690833   4.026744262
Fe      11.584679108   4.680855349   6.004144765
Fe       6.619499617   8.192215343   4.026748908
Fe       4.964546232   7.022148233   6.005235814
Fe       4.137265670   8.191400930   0.000000000    0   0   0
Fe       5.792189764   5.851000664   0.000000000    0   0   0
Fe       2.482352717   7.021200797   2.026984232    0   0   0
Fe       4.137276811   4.680800531   2.026984232    0   0   0
Fe       4.137270576   8.191845130   4.026814179
Fe       5.792069812   5.851617064   4.026946478
Fe      12.411409722   7.021258406   6.004962008
Fe       4.137385969   4.681560913   6.004055304
Fe       8.274564764   5.851000664   0.000000000    0   0   0
Fe       6.619651811   4.680800531   2.026984232    0   0   0
Fe      11.584390670   8.191400930   0.000000000    0   0   0
Fe       9.929477717   7.021200797   2.026984232    0   0   0
Fe       8.274868094   5.851126765   4.026848823
Fe       6.619665354   4.681477222   6.003380070
Fe      11.584678547   8.191514616   4.026910800
Fe       9.929155900   7.021837365   6.004536714
Fe       9.102015670   8.191400930   0.000000000    0   0   0
Fe      10.756939764   5.851000664   0.000000000    0   0   0
Fe       7.447102717   7.021200797   2.026984232    0   0   0
Fe       9.102026811   4.680800531   2.026984232    0   0   0
Fe       9.102234964   8.191714800   4.026377367
Fe      10.756978908   5.851283372   4.026838019
Fe       7.446997598   7.021815629   6.004046457
Fe       9.102218468   4.681205756   6.005444946
End final coordinates



     Writing output data file Fe_paper_480c_ESM_pn25.save/

     init_run     :     83.21s CPU     84.86s WALL (       1 calls)
     electrons    :  21404.65s CPU  21548.41s WALL (       1 calls)
     forces       :     43.38s CPU     43.62s WALL (       1 calls)

     Called by init_run:
     wfcinit      :     57.53s CPU     58.82s WALL (       1 calls)
     potinit      :      6.01s CPU      6.06s WALL (       1 calls)
     hinit0       :      9.31s CPU      9.34s WALL (       1 calls)

     Called by electrons:
     c_bands      :  19798.42s CPU  19923.95s WALL (      53 calls)
     sum_band     :    887.42s CPU    899.02s WALL (      53 calls)
     v_of_rho     :     87.66s CPU     88.04s WALL (      54 calls)
     newd         :     16.34s CPU     16.49s WALL (      54 calls)
     PAW_pot      :     29.90s CPU     29.96s WALL (      54 calls)
     mix_rho      :    552.95s CPU    558.45s WALL (      53 calls)

     Called by c_bands:
     init_us_2    :     23.78s CPU     24.26s WALL (     324 calls)
     cegterg      :  12604.77s CPU  12689.99s WALL (     159 calls)

     Called by sum_band:
     sum_band:bec :      1.92s CPU      1.93s WALL (     159 calls)
     addusdens    :     18.38s CPU     18.68s WALL (      53 calls)

     Called by *egterg:
     h_psi        :   3597.72s CPU   3629.63s WALL (    1163 calls)
     s_psi        :    745.28s CPU    746.17s WALL (    1163 calls)
     g_psi        :      9.75s CPU      9.79s WALL (    1001 calls)
     cdiaghg      :   5511.56s CPU   5535.32s WALL (    1160 calls)

     Called by h_psi:
     h_psi:pot    :   3580.48s CPU   3600.55s WALL (    1163 calls)
     h_psi:calbec :    762.40s CPU    764.65s WALL (    1163 calls)
     vloc_psi     :   2071.25s CPU   2087.48s WALL (    1163 calls)
     add_vuspsi   :    746.82s CPU    748.41s WALL (    1163 calls)

     General routines
     calbec       :   1064.10s CPU   1066.58s WALL (    1334 calls)
     fft          :     54.52s CPU     54.83s WALL (    1363 calls)
     ffts         :    286.23s CPU    288.13s WALL (   34146 calls)
     fftw         :   1992.33s CPU   2007.98s WALL (  599480 calls)
     interpolate  :      5.35s CPU      5.38s WALL (     108 calls)
     davcio       :      0.31s CPU     32.96s WALL (    1622 calls)

     Parallel routines
     fft_scatt_xy :    426.35s CPU    428.39s WALL (  634989 calls)
     fft_scatt_yz :    565.05s CPU    572.49s WALL (  634989 calls)

     PWSCF        :      5h58m CPU      6h 1m WALL


   This run was terminated on:   3: 2:11  13Jun2022            

=------------------------------------------------------------------------------=
   JOB DONE.
=------------------------------------------------------------------------------=
