
     Program PWSCF v.6.7MaX starts on 16Jun2022 at 19:29:45 

     This program is part of the open-source Quantum ESPRESSO suite
     for quantum simulation of materials; please cite
         "P. Giannozzi et al., J. Phys.:Condens. Matter 21 395502 (2009);
         "P. Giannozzi et al., J. Phys.:Condens. Matter 29 465901 (2017);
          URL http://www.quantum-espresso.org", 
     in publications or presentations arising from this work. More details at
     http://www.quantum-espresso.org/quote

     Parallel version (MPI), running on   256 processors

     MPI processes distributed on     2 nodes
     K-points division:     npool     =       8
     R & G space division:  proc/nbgrp/npool/nimage =      32
     Waiting for input...
     Reading input from standard input
Warning: card &CELL ignored
Warning: card / ignored

     Current dimensions of program PWSCF are:
     Max number of different atomic species (ntypx) = 10
     Max number of k-points (npk) =  40000
     Max angular momentum in pseudopotentials (lmaxx) =  3
     file Fe.pbe-spn-kjpaw_psl.0.2.1.UPF: wavefunction(s)  3D renormalized

     IMPORTANT: XC functional enforced from input :
     Exchange-correlation= PBE
                           (   1   4   3   4   0   0   0)
     Any further DFT definition will be discarded
     Please, verify this is what you really want


     -------------------------------------------------
     Parameters for Dispersion (Grimme-D2) Correction:
     -------------------------------------------------
       atom      VdW radius       C_6     

        Fe         2.952        374.666
        N          2.640         42.670
        H          1.892          4.857

     Subspace diagonalization in iterative solution of the eigenvalue problem:
     one sub-group per band group will be used
     scalapack distributed-memory algorithm (size of sub-group:  5*  5 procs)


     Parallelization info
     --------------------
     sticks:   dense  smooth     PW     G-vecs:    dense   smooth      PW
     Min         396     198     52                90796    32100    4368
     Max         397     199     53                90807    32109    4377
     Sum       12685    6351   1677              2905599  1027285  139897



     bravais-lattice index     =            0
     lattice parameter (alat)  =      18.7640  a.u.
     unit-cell volume          =   16360.3161 (a.u.)^3
     number of atoms/cell      =           67
     number of atomic types    =            3
     number of electrons       =      1031.00
     number of Kohn-Sham states=          619
     kinetic-energy cutoff     =      60.0000  Ry
     charge density cutoff     =     480.0000  Ry
     scf convergence threshold =      1.0E-08
     mixing beta               =       0.2000
     number of iterations used =           10  local-TF  mixing
     energy convergence thresh.=      7.3E-07
     force convergence thresh. =      3.9E-04
     Exchange-correlation= PBE
                           (   1   4   3   4   0   0   0)
     nstep                     =           50


     Effective Screening Medium Method
     =================================
     Boundary Conditions: Metal-Slab-Metal
     field strength                   =     0.02 Ry/a.u.
     grid points for fit at edges     =        4 


     celldm(1)=  18.764036  celldm(2)=   0.000000  celldm(3)=   0.000000
     celldm(4)=   0.000000  celldm(5)=   0.000000  celldm(6)=   0.000000

     crystal axes: (cart. coord. in units of alat)
               a(1) = (   1.000000   0.000000   0.000000 )  
               a(2) = (   0.333330   0.942807   0.000000 )  
               a(3) = (   0.000000   0.000000   2.626577 )  

     reciprocal axes: (cart. coord. in units 2 pi/alat)
               b(1) = (  1.000000 -0.353551  0.000000 )  
               b(2) = (  0.000000  1.060663  0.000000 )  
               b(3) = (  0.000000  0.000000  0.380724 )  


     PseudoPot. # 1 for Fe read from file:
     ../../SSSP/Fe.pbe-spn-kjpaw_psl.0.2.1.UPF
     MD5 check sum: e86618425769142926afa95317d90200
     Pseudo is Projector augmented-wave + core cor, Zval = 16.0
     Generated using "atomic" code by A. Dal Corso  v.5.0.99 svn rev. 10869
     Shape of augmentation charge: PSQ
     Using radial grid of 1191 points,  6 beta functions with: 
                l(1) =   0
                l(2) =   0
                l(3) =   1
                l(4) =   1
                l(5) =   2
                l(6) =   2
     Q(r) pseudized with 0 coefficients 


     PseudoPot. # 2 for N  read from file:
     ../../SSSP/N.pbe-n-radius_5.UPF
     MD5 check sum: 16739722b17309cd8fe442a2ace49922
     Pseudo is Ultrasoft + core correction, Zval =  5.0
     Generated using "atomic" code by A. Dal Corso  v.5.1
     Using radial grid of 1085 points,  4 beta functions with: 
                l(1) =   0
                l(2) =   0
                l(3) =   1
                l(4) =   1
     Q(r) pseudized with 0 coefficients 


     PseudoPot. # 3 for H  read from file:
     ../../SSSP/H.pbe-rrkjus_psl.1.0.0.UPF
     MD5 check sum: f52b6d4d1c606e5624b1dc7b2218f220
     Pseudo is Ultrasoft, Zval =  1.0
     Generated using "atomic" code by A. Dal Corso  v.5.1
     Using radial grid of  929 points,  2 beta functions with: 
                l(1) =   0
                l(2) =   0
     Q(r) pseudized with 0 coefficients 


     atomic species   valence    mass     pseudopotential
        Fe            16.00    55.84500     Fe( 1.00)
        N              5.00    14.00700     N ( 1.00)
        H              1.00     1.00800     H ( 1.00)

     Starting magnetic structure 
     atomic species   magnetization
        Fe           0.100
        N            0.100
        H            0.100

     No symmetry found



   Cartesian axes

     site n.     atom                  positions (alat units)
         1           Fe  tau(   1) = (   0.1666663   0.1178509   0.0000000  )
         2           Fe  tau(   2) = (   0.0000000   0.0000000   0.2041376  )
         3           Fe  tau(   3) = (   0.4999989   0.3535526   0.0000000  )
         4           Fe  tau(   4) = (   0.3333326   0.2357017   0.2041376  )
         5           Fe  tau(   5) = (   0.1659520   0.1175810   0.4053421  )
         6           Fe  tau(   6) = (   0.3326483   0.9437822   0.6045480  )
         7           Fe  tau(   7) = (   0.4994773   0.3539991   0.4040113  )
         8           Fe  tau(   8) = (   0.3326212   0.2349085   0.6046659  )
         9           Fe  tau(   9) = (   0.2499989   0.3535526   0.0000000  )
        10           Fe  tau(  10) = (   0.4166663   0.1178509   0.0000000  )
        11           Fe  tau(  11) = (   0.0833326   0.2357017   0.2041376  )
        12           Fe  tau(  12) = (   0.2500000   0.0000000   0.2041376  )
        13           Fe  tau(  13) = (   0.2500038   0.3535555   0.4055726  )
        14           Fe  tau(  14) = (   0.4158438   0.1172672   0.4046832  )
        15           Fe  tau(  15) = (   0.0821558   0.2362200   0.6034882  )
        16           Fe  tau(  16) = (   0.2495789  -0.0002859   0.6056089  )
        17           Fe  tau(  17) = (   0.6666663   0.1178509   0.0000000  )
        18           Fe  tau(  18) = (   0.5000000   0.0000000   0.2041376  )
        19           Fe  tau(  19) = (   0.9999989   0.3535526   0.0000000  )
        20           Fe  tau(  20) = (   0.8333326   0.2357017   0.2041376  )
        21           Fe  tau(  21) = (   0.6669167   0.1172041   0.4040203  )
        22           Fe  tau(  22) = (   0.4990102  -0.0004232   0.6046479  )
        23           Fe  tau(  23) = (   1.0005395   0.3531053   0.4040173  )
        24           Fe  tau(  24) = (   0.8339271   0.2349135   0.6127668  )
        25           Fe  tau(  25) = (   0.7499989   0.3535526   0.0000000  )
        26           Fe  tau(  26) = (   0.9166663   0.1178509   0.0000000  )
        27           Fe  tau(  27) = (   0.5833326   0.2357017   0.2041376  )
        28           Fe  tau(  28) = (   0.7500000   0.0000000   0.2041376  )
        29           Fe  tau(  29) = (   0.7500145   0.3535431   0.4073932  )
        30           Fe  tau(  30) = (   0.9156153   0.1193455   0.4076658  )
        31           Fe  tau(  31) = (   0.5780307   0.2319510   0.5972529  )
        32           Fe  tau(  32) = (   1.0832464   0.9441187   0.6034971  )
        33           Fe  tau(  33) = (   0.3333315   0.5892543   0.0000000  )
        34           Fe  tau(  34) = (   0.1666652   0.4714034   0.2041376  )
        35           Fe  tau(  35) = (   0.6666640   0.8249560   0.0000000  )
        36           Fe  tau(  36) = (   0.4999978   0.7071052   0.2041376  )
        37           Fe  tau(  37) = (   0.3340349   0.5895474   0.4053449  )
        38           Fe  tau(  38) = (   1.1674066   0.4722071   0.6046468  )
        39           Fe  tau(  39) = (   0.6661593   0.8243969   0.4053404  )
        40           Fe  tau(  40) = (   0.5006542   0.7061856   0.6045406  )
        41           Fe  tau(  41) = (   0.4166640   0.8249560   0.0000000  )
        42           Fe  tau(  42) = (   0.5833315   0.5892543   0.0000000  )
        43           Fe  tau(  43) = (   0.2499978   0.7071052   0.2041376  )
        44           Fe  tau(  44) = (   0.4166652   0.4714034   0.2041376  )
        45           Fe  tau(  45) = (   0.4166468   0.8249857   0.4059703  )
        46           Fe  tau(  46) = (   0.5843729   0.5877891   0.4076607  )
        47           Fe  tau(  47) = (   1.2504146   0.7074198   0.6056091  )
        48           Fe  tau(  48) = (   0.4178713   0.4709022   0.6035054  )
        49           Fe  tau(  49) = (   0.8333315   0.5892543   0.0000000  )
        50           Fe  tau(  50) = (   0.6666652   0.4714034   0.2041376  )
        51           Fe  tau(  51) = (   1.1666640   0.8249560   0.0000000  )
        52           Fe  tau(  52) = (   0.9999978   0.7071052   0.2041376  )
        53           Fe  tau(  53) = (   0.8330954   0.5899023   0.4040064  )
        54           Fe  tau(  54) = (   0.6661509   0.4721609   0.6127345  )
        55           Fe  tau(  55) = (   1.1671606   0.8255483   0.4053449  )
        56           Fe  tau(  56) = (   1.0009941   0.7075301   0.6046618  )
        57           Fe  tau(  57) = (   0.9166640   0.8249560   0.0000000  )
        58           Fe  tau(  58) = (   1.0833315   0.5892543   0.0000000  )
        59           Fe  tau(  59) = (   0.7499978   0.7071052   0.2041376  )
        60           Fe  tau(  60) = (   0.9166652   0.4714034   0.2041376  )
        61           Fe  tau(  61) = (   0.9166668   0.8249631   0.4055693  )
        62           Fe  tau(  62) = (   1.0841657   0.5898408   0.4046826  )
        63           Fe  tau(  63) = (   0.7500805   0.7058177   0.6034959  )
        64           Fe  tau(  64) = (   0.9219865   0.4751687   0.5972441  )
        65           N   tau(  65) = (   0.7501233   0.3536228   0.7530313  )
        66           H   tau(  66) = (   0.8171004   0.4010472   0.8162431  )
        67           H   tau(  67) = (   0.6831528   0.3062511   0.8162907  )

     number of k points=    10  Methfessel-Paxton smearing, width (Ry)=  0.0100
                       cart. coord. in units 2pi/alat
        k(    1) = (   0.0000000   0.0000000   0.0000000), wk =   0.0625000
        k(    2) = (   0.0000000   0.2651656   0.0000000), wk =   0.1250000
        k(    3) = (   0.0000000  -0.5303313   0.0000000), wk =   0.0625000
        k(    4) = (   0.2500000  -0.0883878   0.0000000), wk =   0.1250000
        k(    5) = (   0.2500000   0.1767779   0.0000000), wk =   0.1250000
        k(    6) = (   0.2500000  -0.6187190   0.0000000), wk =   0.1250000
        k(    7) = (   0.2500000  -0.3535534   0.0000000), wk =   0.1250000
        k(    8) = (  -0.5000000   0.1767755   0.0000000), wk =   0.0625000
        k(    9) = (  -0.5000000   0.4419412   0.0000000), wk =   0.1250000
        k(   10) = (  -0.5000000  -0.3535558   0.0000000), wk =   0.0625000

     Dense  grid:  2905599 G-vectors     FFT dimensions: ( 135, 135, 360)

     Smooth grid:  1027285 G-vectors     FFT dimensions: (  96,  96, 243)

     Estimated max dynamical RAM per process >     640.95 MB

     Estimated total dynamical RAM >     160.24 GB

     Check: negative core charge=   -0.000039
     Generating pointlists ...
     new r_m :   0.0833 (alat units)  1.5632 (a.u.) for type    1
     new r_m :   0.0427 (alat units)  0.8018 (a.u.) for type    2
     new r_m :   0.0427 (alat units)  0.8018 (a.u.) for type    3

     Initial potential from superposition of free atoms

     starting charge 1030.97192, renormalised to 1031.00000

     negative rho (up, down):  1.340E-02 1.096E-02
     Starting wfcs are  838 randomized atomic wfcs
     Checking if some PAW data can be deallocated... 

     total cpu time spent up to now is       33.1 secs

     Self-consistent Calculation

     iteration #  1     ecut=    60.00 Ry     beta= 0.20
     Davidson diagonalization with overlap
     ethr =  1.00E-04,  avg # of iterations = 17.9

     negative rho (up, down):  7.423E-03 5.982E-03

     total cpu time spent up to now is      333.4 secs

     total energy              =  -21078.24275184 Ry
     estimated scf accuracy    <    1283.89777252 Ry

     total magnetization       =    66.86 Bohr mag/cell
     absolute magnetization    =    68.82 Bohr mag/cell

     iteration #  2     ecut=    60.00 Ry     beta= 0.20
     Davidson diagonalization with overlap
     ethr =  1.00E-02,  avg # of iterations =  1.0

     negative rho (up, down):  5.940E-03 7.334E-03

     total cpu time spent up to now is      379.0 secs

     total energy              =  -21092.00558283 Ry
     estimated scf accuracy    <     371.69858988 Ry

     total magnetization       =    78.71 Bohr mag/cell
     absolute magnetization    =    81.01 Bohr mag/cell

     iteration #  3     ecut=    60.00 Ry     beta= 0.20
     Davidson diagonalization with overlap
     ethr =  1.00E-02,  avg # of iterations =  1.0

     negative rho (up, down):  6.956E-03 9.103E-03

     total cpu time spent up to now is      426.4 secs

     total energy              =  -21094.87581774 Ry
     estimated scf accuracy    <      15.43433018 Ry

     total magnetization       =   121.18 Bohr mag/cell
     absolute magnetization    =   121.79 Bohr mag/cell

     iteration #  4     ecut=    60.00 Ry     beta= 0.20
     Davidson diagonalization with overlap
     ethr =  1.50E-03,  avg # of iterations =  1.0

     negative rho (up, down):  5.214E-03 6.527E-03

     total cpu time spent up to now is      473.3 secs

     total energy              =  -21094.91464010 Ry
     estimated scf accuracy    <      19.14909721 Ry

     total magnetization       =   127.59 Bohr mag/cell
     absolute magnetization    =   128.17 Bohr mag/cell

     iteration #  5     ecut=    60.00 Ry     beta= 0.20
     Davidson diagonalization with overlap
     ethr =  1.50E-03,  avg # of iterations =  1.0

     negative rho (up, down):  3.075E-02 7.447E-02

     total cpu time spent up to now is      520.7 secs

     total energy              =  -21093.26193761 Ry
     estimated scf accuracy    <      24.36811378 Ry

     total magnetization       =   132.43 Bohr mag/cell
     absolute magnetization    =   133.05 Bohr mag/cell

     iteration #  6     ecut=    60.00 Ry     beta= 0.20
     Davidson diagonalization with overlap
     ethr =  1.50E-03,  avg # of iterations =  4.8

     negative rho (up, down):  1.845E-02 5.847E-02

     total cpu time spent up to now is      577.9 secs

     total energy              =  -21093.94564645 Ry
     estimated scf accuracy    <       7.94991828 Ry

     total magnetization       =   152.23 Bohr mag/cell
     absolute magnetization    =   153.49 Bohr mag/cell

     iteration #  7     ecut=    60.00 Ry     beta= 0.20
     Davidson diagonalization with overlap
     ethr =  7.71E-04,  avg # of iterations =  3.8

     negative rho (up, down):  3.822E-04 2.456E-02

     total cpu time spent up to now is      634.8 secs

     total energy              =  -21093.92473289 Ry
     estimated scf accuracy    <       3.03021753 Ry

     total magnetization       =   152.20 Bohr mag/cell
     absolute magnetization    =   153.90 Bohr mag/cell

     iteration #  8     ecut=    60.00 Ry     beta= 0.20
     Davidson diagonalization with overlap
     ethr =  2.94E-04,  avg # of iterations = 13.6

     negative rho (up, down):  2.191E-04 3.603E-03

     total cpu time spent up to now is      806.8 secs

     total energy              =  -21094.54194826 Ry
     estimated scf accuracy    <       7.93936303 Ry

     total magnetization       =   151.34 Bohr mag/cell
     absolute magnetization    =   156.64 Bohr mag/cell

     iteration #  9     ecut=    60.00 Ry     beta= 0.20
     Davidson diagonalization with overlap
     ethr =  2.94E-04,  avg # of iterations =  3.5

     negative rho (up, down):  1.599E-04 1.372E-03

     total cpu time spent up to now is      864.3 secs

     total energy              =  -21094.85189340 Ry
     estimated scf accuracy    <       0.55543666 Ry

     total magnetization       =   147.88 Bohr mag/cell
     absolute magnetization    =   152.39 Bohr mag/cell

     iteration # 10     ecut=    60.00 Ry     beta= 0.20
     Davidson diagonalization with overlap
     ethr =  5.39E-05,  avg # of iterations =  9.5

     negative rho (up, down):  9.417E-05 1.657E-03

     total cpu time spent up to now is      963.1 secs

     total energy              =  -21094.95731958 Ry
     estimated scf accuracy    <       0.62724346 Ry

     total magnetization       =   147.87 Bohr mag/cell
     absolute magnetization    =   151.91 Bohr mag/cell

     iteration # 11     ecut=    60.00 Ry     beta= 0.20
     Davidson diagonalization with overlap
     ethr =  5.39E-05,  avg # of iterations =  4.5

     negative rho (up, down):  2.994E-04 1.709E-03

     total cpu time spent up to now is     1020.4 secs

     total energy              =  -21094.99232846 Ry
     estimated scf accuracy    <       0.32530341 Ry

     total magnetization       =   152.56 Bohr mag/cell
     absolute magnetization    =   156.69 Bohr mag/cell

     iteration # 12     ecut=    60.00 Ry     beta= 0.20
     Davidson diagonalization with overlap
     ethr =  3.16E-05,  avg # of iterations =  5.7

     negative rho (up, down):  1.916E-04 2.132E-03

     total cpu time spent up to now is     1079.3 secs

     total energy              =  -21094.98663338 Ry
     estimated scf accuracy    <       0.52381184 Ry

     total magnetization       =   155.76 Bohr mag/cell
     absolute magnetization    =   159.91 Bohr mag/cell

     iteration # 13     ecut=    60.00 Ry     beta= 0.20
     Davidson diagonalization with overlap
     ethr =  3.16E-05,  avg # of iterations =  2.5

     negative rho (up, down):  3.009E-03 3.150E-03

     total cpu time spent up to now is     1133.3 secs

     total energy              =  -21094.99400791 Ry
     estimated scf accuracy    <       0.51556159 Ry

     total magnetization       =   158.40 Bohr mag/cell
     absolute magnetization    =   162.58 Bohr mag/cell

     iteration # 14     ecut=    60.00 Ry     beta= 0.20
     Davidson diagonalization with overlap
     ethr =  3.16E-05,  avg # of iterations =  8.8

     negative rho (up, down):  3.651E-03 4.345E-03

     total cpu time spent up to now is     1248.3 secs

     total energy              =  -21095.04596527 Ry
     estimated scf accuracy    <       0.79656787 Ry

     total magnetization       =   161.25 Bohr mag/cell
     absolute magnetization    =   166.62 Bohr mag/cell

     iteration # 15     ecut=    60.00 Ry     beta= 0.20
     Davidson diagonalization with overlap
     ethr =  3.16E-05,  avg # of iterations =  1.3

     negative rho (up, down):  2.582E-02 3.163E-02

     total cpu time spent up to now is     1297.6 secs

     total energy              =  -21095.04974210 Ry
     estimated scf accuracy    <       0.62635657 Ry

     total magnetization       =   162.07 Bohr mag/cell
     absolute magnetization    =   167.46 Bohr mag/cell

     iteration # 16     ecut=    60.00 Ry     beta= 0.20
     Davidson diagonalization with overlap
     ethr =  3.16E-05,  avg # of iterations =  2.2

     negative rho (up, down):  3.130E-02 3.585E-02

     total cpu time spent up to now is     1350.3 secs

     total energy              =  -21094.99986538 Ry
     estimated scf accuracy    <       0.61756838 Ry

     total magnetization       =   162.29 Bohr mag/cell
     absolute magnetization    =   167.76 Bohr mag/cell

     iteration # 17     ecut=    60.00 Ry     beta= 0.20
     Davidson diagonalization with overlap
     ethr =  3.16E-05,  avg # of iterations =  2.8

     negative rho (up, down):  1.870E-02 2.196E-02

     total cpu time spent up to now is     1400.9 secs

     total energy              =  -21094.95950092 Ry
     estimated scf accuracy    <       0.38422027 Ry

     total magnetization       =   162.83 Bohr mag/cell
     absolute magnetization    =   168.34 Bohr mag/cell

     iteration # 18     ecut=    60.00 Ry     beta= 0.20
     Davidson diagonalization with overlap
     ethr =  3.16E-05,  avg # of iterations =  3.5

     negative rho (up, down):  4.881E-02 5.091E-02

     total cpu time spent up to now is     1458.2 secs

     total energy              =  -21094.92255226 Ry
     estimated scf accuracy    <       0.21273542 Ry

     total magnetization       =   163.08 Bohr mag/cell
     absolute magnetization    =   168.64 Bohr mag/cell

     iteration # 19     ecut=    60.00 Ry     beta= 0.20
     Davidson diagonalization with overlap
     ethr =  2.06E-05,  avg # of iterations = 16.4

     negative rho (up, down):  3.911E-02 3.981E-02

     total cpu time spent up to now is     1619.1 secs

     total energy              =  -21094.95015592 Ry
     estimated scf accuracy    <       0.04079816 Ry

     total magnetization       =   162.11 Bohr mag/cell
     absolute magnetization    =   167.97 Bohr mag/cell

     iteration # 20     ecut=    60.00 Ry     beta= 0.20
     Davidson diagonalization with overlap
     c_bands:  1 eigenvalues not converged
     c_bands:  2 eigenvalues not converged
     ethr =  3.96E-06,  avg # of iterations = 21.2

     negative rho (up, down):  3.784E-02 3.831E-02

     total cpu time spent up to now is     1866.7 secs

     total energy              =  -21094.95996525 Ry
     estimated scf accuracy    <       0.09723320 Ry

     total magnetization       =   161.26 Bohr mag/cell
     absolute magnetization    =   167.49 Bohr mag/cell

     iteration # 21     ecut=    60.00 Ry     beta= 0.20
     Davidson diagonalization with overlap
     ethr =  3.96E-06,  avg # of iterations =  9.8

     negative rho (up, down):  5.772E-02 5.890E-02

     total cpu time spent up to now is     1954.8 secs

     total energy              =  -21094.96249591 Ry
     estimated scf accuracy    <       0.03118884 Ry

     total magnetization       =   161.37 Bohr mag/cell
     absolute magnetization    =   167.51 Bohr mag/cell

     iteration # 22     ecut=    60.00 Ry     beta= 0.20
     Davidson diagonalization with overlap
     ethr =  3.03E-06,  avg # of iterations =  3.6

     negative rho (up, down):  6.211E-02 6.457E-02

     total cpu time spent up to now is     2027.5 secs

     total energy              =  -21094.95999185 Ry
     estimated scf accuracy    <       0.06402813 Ry

     total magnetization       =   161.88 Bohr mag/cell
     absolute magnetization    =   168.08 Bohr mag/cell

     iteration # 23     ecut=    60.00 Ry     beta= 0.20
     Davidson diagonalization with overlap
     ethr =  3.03E-06,  avg # of iterations =  4.0

     negative rho (up, down):  6.581E-02 6.963E-02

     total cpu time spent up to now is     2091.6 secs

     total energy              =  -21094.95315742 Ry
     estimated scf accuracy    <       0.03797048 Ry

     total magnetization       =   161.82 Bohr mag/cell
     absolute magnetization    =   168.05 Bohr mag/cell

     iteration # 24     ecut=    60.00 Ry     beta= 0.20
     Davidson diagonalization with overlap
     ethr =  3.03E-06,  avg # of iterations = 13.5

     negative rho (up, down):  6.048E-02 6.421E-02

     total cpu time spent up to now is     2255.5 secs

     total energy              =  -21094.95957423 Ry
     estimated scf accuracy    <       0.02106280 Ry

     total magnetization       =   161.44 Bohr mag/cell
     absolute magnetization    =   168.01 Bohr mag/cell

     iteration # 25     ecut=    60.00 Ry     beta= 0.20
     Davidson diagonalization with overlap
     ethr =  2.04E-06,  avg # of iterations =  9.8

     negative rho (up, down):  7.167E-02 7.557E-02

     total cpu time spent up to now is     2345.0 secs

     total energy              =  -21094.95964140 Ry
     estimated scf accuracy    <       0.02219437 Ry

     total magnetization       =   161.35 Bohr mag/cell
     absolute magnetization    =   167.92 Bohr mag/cell

     iteration # 26     ecut=    60.00 Ry     beta= 0.20
     Davidson diagonalization with overlap
     ethr =  2.04E-06,  avg # of iterations =  3.6

     negative rho (up, down):  7.291E-02 7.703E-02

     total cpu time spent up to now is     2411.7 secs

     total energy              =  -21094.96132166 Ry
     estimated scf accuracy    <       0.02321080 Ry

     total magnetization       =   161.49 Bohr mag/cell
     absolute magnetization    =   168.05 Bohr mag/cell

     iteration # 27     ecut=    60.00 Ry     beta= 0.20
     Davidson diagonalization with overlap
     ethr =  2.04E-06,  avg # of iterations =  1.1

     negative rho (up, down):  8.018E-02 8.387E-02

     total cpu time spent up to now is     2459.7 secs

     total energy              =  -21094.95771978 Ry
     estimated scf accuracy    <       0.02390750 Ry

     total magnetization       =   161.62 Bohr mag/cell
     absolute magnetization    =   168.18 Bohr mag/cell

     iteration # 28     ecut=    60.00 Ry     beta= 0.20
     Davidson diagonalization with overlap
     ethr =  2.04E-06,  avg # of iterations =  4.0

     negative rho (up, down):  7.155E-02 7.508E-02

     total cpu time spent up to now is     2513.8 secs

     total energy              =  -21094.95848025 Ry
     estimated scf accuracy    <       0.02802977 Ry

     total magnetization       =   161.58 Bohr mag/cell
     absolute magnetization    =   168.10 Bohr mag/cell

     iteration # 29     ecut=    60.00 Ry     beta= 0.20
     Davidson diagonalization with overlap
     ethr =  2.04E-06,  avg # of iterations =  2.8

     negative rho (up, down):  7.203E-02 7.561E-02

     total cpu time spent up to now is     2564.8 secs

     total energy              =  -21094.95949397 Ry
     estimated scf accuracy    <       0.01730886 Ry

     total magnetization       =   161.51 Bohr mag/cell
     absolute magnetization    =   168.02 Bohr mag/cell

     iteration # 30     ecut=    60.00 Ry     beta= 0.20
     Davidson diagonalization with overlap
     ethr =  1.68E-06,  avg # of iterations =  1.0

     negative rho (up, down):  6.181E-02 6.497E-02

     total cpu time spent up to now is     2610.8 secs

     total energy              =  -21094.95610523 Ry
     estimated scf accuracy    <       0.01932341 Ry

     total magnetization       =   161.47 Bohr mag/cell
     absolute magnetization    =   167.96 Bohr mag/cell

     iteration # 31     ecut=    60.00 Ry     beta= 0.20
     Davidson diagonalization with overlap
     ethr =  1.68E-06,  avg # of iterations =  3.9

     negative rho (up, down):  4.448E-02 4.771E-02

     total cpu time spent up to now is     2668.9 secs

     total energy              =  -21094.95806605 Ry
     estimated scf accuracy    <       0.00865930 Ry

     total magnetization       =   161.68 Bohr mag/cell
     absolute magnetization    =   168.21 Bohr mag/cell

     iteration # 32     ecut=    60.00 Ry     beta= 0.20
     Davidson diagonalization with overlap
     c_bands:  3 eigenvalues not converged
     ethr =  8.40E-07,  avg # of iterations =  7.9

     negative rho (up, down):  3.327E-02 3.649E-02

     total cpu time spent up to now is     2752.7 secs

     total energy              =  -21094.95768732 Ry
     estimated scf accuracy    <       0.00630084 Ry

     total magnetization       =   161.77 Bohr mag/cell
     absolute magnetization    =   168.32 Bohr mag/cell

     iteration # 33     ecut=    60.00 Ry     beta= 0.20
     Davidson diagonalization with overlap
     ethr =  6.11E-07,  avg # of iterations =  2.5

     negative rho (up, down):  2.935E-02 3.258E-02

     total cpu time spent up to now is     2807.1 secs

     total energy              =  -21094.95561555 Ry
     estimated scf accuracy    <       0.00358463 Ry

     total magnetization       =   161.79 Bohr mag/cell
     absolute magnetization    =   168.37 Bohr mag/cell

     iteration # 34     ecut=    60.00 Ry     beta= 0.20
     Davidson diagonalization with overlap
     c_bands:  1 eigenvalues not converged
     c_bands:  1 eigenvalues not converged
     ethr =  3.48E-07,  avg # of iterations = 20.6

     negative rho (up, down):  2.360E-02 2.698E-02

     total cpu time spent up to now is     2963.3 secs

     total energy              =  -21094.95573191 Ry
     estimated scf accuracy    <       0.00105939 Ry

     total magnetization       =   161.86 Bohr mag/cell
     absolute magnetization    =   168.43 Bohr mag/cell

     iteration # 35     ecut=    60.00 Ry     beta= 0.20
     Davidson diagonalization with overlap
     c_bands:  1 eigenvalues not converged
     ethr =  1.03E-07,  avg # of iterations = 14.6

     negative rho (up, down):  1.957E-02 2.313E-02

     total cpu time spent up to now is     3189.9 secs

     total energy              =  -21094.95582607 Ry
     estimated scf accuracy    <       0.00091605 Ry

     total magnetization       =   161.82 Bohr mag/cell
     absolute magnetization    =   168.38 Bohr mag/cell

     iteration # 36     ecut=    60.00 Ry     beta= 0.20
     Davidson diagonalization with overlap
     ethr =  8.89E-08,  avg # of iterations =  3.1

     negative rho (up, down):  1.740E-02 2.135E-02

     total cpu time spent up to now is     3253.9 secs

     total energy              =  -21094.95424443 Ry
     estimated scf accuracy    <       0.00049859 Ry

     total magnetization       =   161.85 Bohr mag/cell
     absolute magnetization    =   168.42 Bohr mag/cell

     iteration # 37     ecut=    60.00 Ry     beta= 0.20
     Davidson diagonalization with overlap
     c_bands:  2 eigenvalues not converged
     ethr =  4.84E-08,  avg # of iterations =  9.4

     negative rho (up, down):  1.520E-02 1.947E-02

     total cpu time spent up to now is     3347.7 secs

     total energy              =  -21094.95231054 Ry
     estimated scf accuracy    <       0.00033654 Ry

     total magnetization       =   161.87 Bohr mag/cell
     absolute magnetization    =   168.45 Bohr mag/cell

     iteration # 38     ecut=    60.00 Ry     beta= 0.20
     Davidson diagonalization with overlap
     c_bands:  2 eigenvalues not converged
     ethr =  3.26E-08,  avg # of iterations =  9.1

     negative rho (up, down):  1.345E-02 1.776E-02

     total cpu time spent up to now is     3527.6 secs

     total energy              =  -21094.95224599 Ry
     estimated scf accuracy    <       0.00012844 Ry

     total magnetization       =   161.81 Bohr mag/cell
     absolute magnetization    =   168.43 Bohr mag/cell

     iteration # 39     ecut=    60.00 Ry     beta= 0.20
     Davidson diagonalization with overlap
     ethr =  1.25E-08,  avg # of iterations =  7.3

     negative rho (up, down):  1.321E-02 1.749E-02

     total cpu time spent up to now is     3623.4 secs

     total energy              =  -21094.95170132 Ry
     estimated scf accuracy    <       0.00010547 Ry

     total magnetization       =   161.82 Bohr mag/cell
     absolute magnetization    =   168.44 Bohr mag/cell

     iteration # 40     ecut=    60.00 Ry     beta= 0.20
     Davidson diagonalization with overlap
     ethr =  1.02E-08,  avg # of iterations =  2.1

     negative rho (up, down):  1.266E-02 1.692E-02

     total cpu time spent up to now is     3684.6 secs

     total energy              =  -21094.95034532 Ry
     estimated scf accuracy    <       0.00006483 Ry

     total magnetization       =   161.81 Bohr mag/cell
     absolute magnetization    =   168.43 Bohr mag/cell

     iteration # 41     ecut=    60.00 Ry     beta= 0.20
     Davidson diagonalization with overlap
     ethr =  6.29E-09,  avg # of iterations =  6.4

     negative rho (up, down):  1.282E-02 1.707E-02

     total cpu time spent up to now is     3750.0 secs

     total energy              =  -21094.94971504 Ry
     estimated scf accuracy    <       0.00003673 Ry

     total magnetization       =   161.80 Bohr mag/cell
     absolute magnetization    =   168.42 Bohr mag/cell

     iteration # 42     ecut=    60.00 Ry     beta= 0.20
     Davidson diagonalization with overlap
     c_bands:  1 eigenvalues not converged
     ethr =  3.56E-09,  avg # of iterations = 11.2

     negative rho (up, down):  1.248E-02 1.674E-02

     total cpu time spent up to now is     3854.1 secs

     total energy              =  -21094.94969709 Ry
     estimated scf accuracy    <       0.00002534 Ry

     total magnetization       =   161.78 Bohr mag/cell
     absolute magnetization    =   168.41 Bohr mag/cell

     iteration # 43     ecut=    60.00 Ry     beta= 0.20
     Davidson diagonalization with overlap
     c_bands:  1 eigenvalues not converged
     ethr =  2.46E-09,  avg # of iterations = 10.6

     negative rho (up, down):  1.132E-02 1.558E-02

     total cpu time spent up to now is     3965.6 secs

     total energy              =  -21094.94913212 Ry
     estimated scf accuracy    <       0.00001656 Ry

     total magnetization       =   161.79 Bohr mag/cell
     absolute magnetization    =   168.42 Bohr mag/cell

     iteration # 44     ecut=    60.00 Ry     beta= 0.20
     Davidson diagonalization with overlap
     ethr =  1.61E-09,  avg # of iterations =  7.5

     negative rho (up, down):  1.124E-02 1.549E-02

     total cpu time spent up to now is     4095.7 secs

     total energy              =  -21094.94877780 Ry
     estimated scf accuracy    <       0.00000836 Ry

     total magnetization       =   161.78 Bohr mag/cell
     absolute magnetization    =   168.41 Bohr mag/cell

     iteration # 45     ecut=    60.00 Ry     beta= 0.20
     Davidson diagonalization with overlap
     ethr =  8.11E-10,  avg # of iterations =  7.0

     negative rho (up, down):  1.122E-02 1.545E-02

     total cpu time spent up to now is     4168.2 secs

     total energy              =  -21094.94854834 Ry
     estimated scf accuracy    <       0.00000286 Ry

     total magnetization       =   161.78 Bohr mag/cell
     absolute magnetization    =   168.41 Bohr mag/cell

     iteration # 46     ecut=    60.00 Ry     beta= 0.20
     Davidson diagonalization with overlap
     ethr =  2.77E-10,  avg # of iterations =  8.9

     negative rho (up, down):  1.124E-02 1.547E-02

     total cpu time spent up to now is     4310.5 secs

     total energy              =  -21094.94850889 Ry
     estimated scf accuracy    <       0.00000191 Ry

     total magnetization       =   161.79 Bohr mag/cell
     absolute magnetization    =   168.42 Bohr mag/cell

     iteration # 47     ecut=    60.00 Ry     beta= 0.20
     Davidson diagonalization with overlap
     ethr =  1.85E-10,  avg # of iterations =  5.0

     negative rho (up, down):  1.130E-02 1.552E-02

     total cpu time spent up to now is     4377.7 secs

     total energy              =  -21094.94844974 Ry
     estimated scf accuracy    <       0.00000092 Ry

     total magnetization       =   161.79 Bohr mag/cell
     absolute magnetization    =   168.43 Bohr mag/cell

     iteration # 48     ecut=    60.00 Ry     beta= 0.20
     Davidson diagonalization with overlap
     ethr =  8.95E-11,  avg # of iterations = 10.2

     negative rho (up, down):  1.124E-02 1.545E-02

     total cpu time spent up to now is     4496.4 secs

     total energy              =  -21094.94840020 Ry
     estimated scf accuracy    <       0.00000032 Ry

     total magnetization       =   161.80 Bohr mag/cell
     absolute magnetization    =   168.44 Bohr mag/cell

     iteration # 49     ecut=    60.00 Ry     beta= 0.20
     Davidson diagonalization with overlap
     ethr =  3.15E-11,  avg # of iterations =  7.5

     negative rho (up, down):  1.125E-02 1.545E-02

     total cpu time spent up to now is     4639.0 secs

     total energy              =  -21094.94835242 Ry
     estimated scf accuracy    <       0.00000025 Ry

     total magnetization       =   161.80 Bohr mag/cell
     absolute magnetization    =   168.44 Bohr mag/cell

     iteration # 50     ecut=    60.00 Ry     beta= 0.20
     Davidson diagonalization with overlap
     ethr =  2.39E-11,  avg # of iterations =  1.3

     negative rho (up, down):  1.125E-02 1.544E-02

     total cpu time spent up to now is     4689.2 secs

     total energy              =  -21094.94833612 Ry
     estimated scf accuracy    <       0.00000014 Ry

     total magnetization       =   161.80 Bohr mag/cell
     absolute magnetization    =   168.44 Bohr mag/cell

     iteration # 51     ecut=    60.00 Ry     beta= 0.20
     Davidson diagonalization with overlap
     ethr =  1.37E-11,  avg # of iterations =  8.0

     negative rho (up, down):  1.125E-02 1.545E-02

     total cpu time spent up to now is     4782.5 secs

     total energy              =  -21094.94831910 Ry
     estimated scf accuracy    <       0.00000004 Ry

     total magnetization       =   161.81 Bohr mag/cell
     absolute magnetization    =   168.44 Bohr mag/cell

     iteration # 52     ecut=    60.00 Ry     beta= 0.20
     Davidson diagonalization with overlap
     ethr =  3.79E-12,  avg # of iterations = 10.5

     negative rho (up, down):  1.125E-02 1.544E-02

     total cpu time spent up to now is     4928.0 secs

     total energy              =  -21094.94831383 Ry
     estimated scf accuracy    <       0.00000002 Ry

     total magnetization       =   161.80 Bohr mag/cell
     absolute magnetization    =   168.44 Bohr mag/cell

     iteration # 53     ecut=    60.00 Ry     beta= 0.20
     Davidson diagonalization with overlap
     ethr =  2.14E-12,  avg # of iterations =  4.3

     negative rho (up, down):  1.127E-02 1.545E-02

     total cpu time spent up to now is     4992.7 secs

     total energy              =  -21094.94829285 Ry
     estimated scf accuracy    <       0.00000002 Ry

     total magnetization       =   161.80 Bohr mag/cell
     absolute magnetization    =   168.44 Bohr mag/cell

     iteration # 54     ecut=    60.00 Ry     beta= 0.20
     Davidson diagonalization with overlap
     ethr =  1.51E-12,  avg # of iterations =  7.8

     negative rho (up, down):  1.128E-02 1.546E-02

     Magnetic moment per site:
     atom:    1    charge:   13.2747    magn:    2.5065    constr:    0.0000
     atom:    2    charge:   13.2755    magn:    2.3343    constr:    0.0000
     atom:    3    charge:   13.2749    magn:    2.5148    constr:    0.0000
     atom:    4    charge:   13.2781    magn:    2.3106    constr:    0.0000
     atom:    5    charge:   13.2804    magn:    2.2988    constr:    0.0000
     atom:    6    charge:   13.2753    magn:    2.4991    constr:    0.0000
     atom:    7    charge:   13.2863    magn:    2.2608    constr:    0.0000
     atom:    8    charge:   13.2761    magn:    2.4914    constr:    0.0000
     atom:    9    charge:   13.2753    magn:    2.5056    constr:    0.0000
     atom:   10    charge:   13.2750    magn:    2.5105    constr:    0.0000
     atom:   11    charge:   13.2780    magn:    2.3043    constr:    0.0000
     atom:   12    charge:   13.2773    magn:    2.3086    constr:    0.0000
     atom:   13    charge:   13.2807    magn:    2.3134    constr:    0.0000
     atom:   14    charge:   13.2798    magn:    2.3013    constr:    0.0000
     atom:   15    charge:   13.2750    magn:    2.5017    constr:    0.0000
     atom:   16    charge:   13.2762    magn:    2.4990    constr:    0.0000
     atom:   17    charge:   13.2748    magn:    2.5148    constr:    0.0000
     atom:   18    charge:   13.2783    magn:    2.3106    constr:    0.0000
     atom:   19    charge:   13.2748    magn:    2.5148    constr:    0.0000
     atom:   20    charge:   13.2761    magn:    2.3449    constr:    0.0000
     atom:   21    charge:   13.2862    magn:    2.2606    constr:    0.0000
     atom:   22    charge:   13.2760    magn:    2.4913    constr:    0.0000
     atom:   23    charge:   13.2862    magn:    2.2606    constr:    0.0000
     atom:   24    charge:   13.2728    magn:    2.1858    constr:    0.0000
     atom:   25    charge:   13.2743    magn:    2.5169    constr:    0.0000
     atom:   26    charge:   13.2749    magn:    2.5129    constr:    0.0000
     atom:   27    charge:   13.2785    magn:    2.3185    constr:    0.0000
     atom:   28    charge:   13.2780    magn:    2.3044    constr:    0.0000
     atom:   29    charge:   13.2711    magn:    2.4191    constr:    0.0000
     atom:   30    charge:   13.2756    magn:    2.2326    constr:    0.0000
     atom:   31    charge:   13.2898    magn:    2.4708    constr:    0.0000
     atom:   32    charge:   13.2750    magn:    2.5018    constr:    0.0000
     atom:   33    charge:   13.2749    magn:    2.5065    constr:    0.0000
     atom:   34    charge:   13.2783    magn:    2.3106    constr:    0.0000
     atom:   35    charge:   13.2749    magn:    2.5065    constr:    0.0000
     atom:   36    charge:   13.2757    magn:    2.3344    constr:    0.0000
     atom:   37    charge:   13.2804    magn:    2.2990    constr:    0.0000
     atom:   38    charge:   13.2760    magn:    2.4913    constr:    0.0000
     atom:   39    charge:   13.2804    magn:    2.2990    constr:    0.0000
     atom:   40    charge:   13.2752    magn:    2.4991    constr:    0.0000
     atom:   41    charge:   13.2744    magn:    2.5268    constr:    0.0000
     atom:   42    charge:   13.2751    magn:    2.5129    constr:    0.0000
     atom:   43    charge:   13.2773    magn:    2.3087    constr:    0.0000
     atom:   44    charge:   13.2782    magn:    2.3045    constr:    0.0000
     atom:   45    charge:   13.2813    magn:    2.2789    constr:    0.0000
     atom:   46    charge:   13.2757    magn:    2.2329    constr:    0.0000
     atom:   47    charge:   13.2763    magn:    2.4990    constr:    0.0000
     atom:   48    charge:   13.2749    magn:    2.5021    constr:    0.0000
     atom:   49    charge:   13.2749    magn:    2.5148    constr:    0.0000
     atom:   50    charge:   13.2762    magn:    2.3450    constr:    0.0000
     atom:   51    charge:   13.2747    magn:    2.5065    constr:    0.0000
     atom:   52    charge:   13.2781    magn:    2.3106    constr:    0.0000
     atom:   53    charge:   13.2863    magn:    2.2607    constr:    0.0000
     atom:   54    charge:   13.2728    magn:    2.1857    constr:    0.0000
     atom:   55    charge:   13.2804    magn:    2.2989    constr:    0.0000
     atom:   56    charge:   13.2761    magn:    2.4915    constr:    0.0000
     atom:   57    charge:   13.2753    magn:    2.5056    constr:    0.0000
     atom:   58    charge:   13.2750    magn:    2.5105    constr:    0.0000
     atom:   59    charge:   13.2782    magn:    2.3044    constr:    0.0000
     atom:   60    charge:   13.2785    magn:    2.3185    constr:    0.0000
     atom:   61    charge:   13.2807    magn:    2.3134    constr:    0.0000
     atom:   62    charge:   13.2798    magn:    2.3012    constr:    0.0000
     atom:   63    charge:   13.2749    magn:    2.5020    constr:    0.0000
     atom:   64    charge:   13.2898    magn:    2.4706    constr:    0.0000
     atom:   65    charge:    1.3500    magn:   -0.0014    constr:    0.0000
     atom:   66    charge:    0.4403    magn:    0.0075    constr:    0.0000
     atom:   67    charge:    0.4403    magn:    0.0075    constr:    0.0000

     total cpu time spent up to now is     5139.0 secs

     End of self-consistent calculation

 ------ SPIN UP ------------


          k = 0.0000 0.0000 0.0000 (128403 PWs)   bands (ev):

   -88.7955 -88.7910 -88.7820 -88.7801 -88.7769 -88.7760 -88.7760 -88.7745
   -88.7726 -88.7720 -88.7663 -88.7661 -88.7657 -88.7604 -88.7604 -88.7579
   -88.7556 -88.7547 -88.7507 -88.7492 -88.7472 -88.7464 -88.7451 -88.7451
   -88.7424 -88.7379 -88.7367 -88.7363 -88.7347 -88.7345 -88.7284 -88.7208
   -88.7130 -88.6522 -88.6365 -88.6342 -88.6316 -88.6312 -88.6285 -88.6179
   -88.6166 -88.6165 -88.6146 -88.6107 -88.6085 -88.6069 -88.6033 -88.6026
   -88.6007 -88.6003 -88.6002 -88.5986 -88.5939 -88.5939 -88.5937 -88.5903
   -88.5831 -88.5801 -88.5798 -88.5704 -88.5665 -88.5664 -88.5652 -88.5556
   -55.0039 -54.9894 -54.9859 -54.9744 -54.9739 -54.9687 -54.9677 -54.9676
   -54.9665 -54.9619 -54.9594 -54.9585 -54.9573 -54.9531 -54.9512 -54.9508
   -54.9474 -54.9466 -54.9446 -54.9440 -54.9440 -54.9403 -54.9392 -54.9383
   -54.9348 -54.9337 -54.9281 -54.9228 -54.9227 -54.9221 -54.9169 -54.9136
   -54.9070 -54.9064 -54.9000 -54.8988 -54.8986 -54.8974 -54.8798 -54.8795
   -54.8780 -54.8769 -54.8757 -54.8738 -54.8722 -54.8721 -54.8396 -54.8251
   -54.8228 -54.8203 -54.8179 -54.8083 -54.8056 -54.8038 -54.8037 -54.7995
   -54.7987 -54.7984 -54.7983 -54.7941 -54.7889 -54.7888 -54.7885 -54.7877
   -54.7847 -54.7828 -54.7760 -54.7755 -54.7747 -54.7742 -54.7708 -54.7702
   -54.7698 -54.7647 -54.7637 -54.7563 -54.7556 -54.7552 -54.7488 -54.7480
   -54.7438 -54.7404 -54.7378 -54.7367 -54.7319 -54.7313 -54.7309 -54.7307
   -54.7271 -54.7260 -54.7258 -54.7224 -54.7204 -54.7192 -54.7176 -54.7139
   -54.7114 -54.7093 -54.7055 -54.7046 -54.6957 -54.6940 -54.6910 -54.6873
   -54.6858 -54.6857 -54.6816 -54.6769 -54.6757 -54.6746 -54.6719 -54.6695
   -54.6680 -54.6670 -54.6664 -54.6645 -54.6616 -54.6590 -54.6584 -54.6579
   -54.6557 -54.6546 -54.6530 -54.6519 -54.6507 -54.6459 -54.6457 -54.6448
   -54.6425 -54.6383 -54.6370 -54.6369 -54.6330 -54.6329 -54.6296 -54.6250
   -54.6232 -54.6227 -54.6212 -54.6197 -54.6180 -54.6172 -54.6157 -54.6118
   -54.6116 -54.6063 -54.6029 -54.5998 -54.5997 -54.5964 -54.5957 -54.5918
   -54.5872 -54.5839 -54.5757 -54.5754 -54.5746 -54.5742 -54.5741 -54.5721
   -54.5670 -54.5617 -54.5609 -54.5546 -54.5532 -54.5530 -54.5484 -54.5480
   -54.5476 -54.5449 -54.5382 -54.5381 -54.5366 -54.5328 -54.5327 -54.5223
   -54.5222 -54.5133 -54.5118 -54.5112 -54.5094 -54.5094 -54.5079 -54.5040
   -54.5027 -54.5026 -54.5017 -54.5015 -54.5006 -54.4975 -54.4960 -54.4954
   -18.1356  -9.3252  -8.5884  -7.8405  -7.2054  -6.8967  -6.8806  -6.8786
    -6.8150  -6.4064  -6.3705  -5.9905  -5.9205  -5.8917  -5.8829  -5.7792
    -5.4685  -5.4547  -5.3998  -5.3564  -5.2556  -5.2547  -5.2278  -5.2160
    -5.1820  -5.1597  -5.1483  -5.0791  -5.0516  -4.8181  -4.8139  -4.7919
    -4.7782  -4.7575  -4.7125  -4.6957  -4.6839  -4.6828  -4.6801  -4.6730
    -4.6636  -4.6608  -4.6585  -4.6567  -4.6542  -4.6518  -4.6442  -4.6432
    -4.6195  -4.6087  -4.6027  -4.5983  -4.5830  -4.5772  -4.5758  -4.5387
    -4.5277  -4.4909  -4.4695  -4.4629  -4.4529  -4.4153  -4.3987  -4.3944
    -4.3834  -4.3611  -4.1154  -4.0915  -4.0855  -4.0816  -4.0809  -4.0729
    -3.9682  -3.9630  -3.9603  -3.9171  -3.9076  -3.9068  -3.9002  -3.9001
    -3.8962  -3.8802  -3.8785  -3.8720  -3.8667  -3.8593  -3.8588  -3.8506
    -3.8473  -3.8453  -3.8431  -3.8247  -3.8241  -3.8233  -3.8104  -3.8012
    -3.7963  -3.7936  -3.7926  -3.7726  -3.7717  -3.7663  -3.7616  -3.7493
    -3.7363  -3.7270  -3.7214  -3.7028  -3.7016  -3.6998  -3.6768  -3.6766
    -3.6330  -3.5577  -3.5464  -3.5314  -3.5245  -3.5143  -3.5062  -3.4959
    -3.4395  -3.3851  -3.3300  -3.3297  -3.3286  -3.3203  -3.3114  -3.3113
    -3.3055  -3.2894  -3.2804  -3.2611  -3.2436  -3.2430  -3.2413  -3.2386
    -3.2311  -3.1996  -3.1984  -3.1933  -3.1862  -3.1844  -3.1826  -3.1794
    -3.1732  -3.1460  -3.1186  -3.1086  -3.0596  -3.0534  -3.0451  -3.0261
    -3.0259  -3.0254  -3.0223  -3.0132  -2.9854  -2.9692  -2.9599  -2.9360
    -2.9129  -2.9054  -2.8904  -2.8889  -2.8865  -2.8846  -2.8452  -2.8429
    -2.8324  -2.8112  -2.8083  -2.8035  -2.8020  -2.7870  -2.7853  -2.7627
    -2.7624  -2.7599  -2.7540  -2.7534  -2.7499  -2.7419  -2.7230  -2.7229
    -2.7146  -2.7068  -2.6462  -2.6200  -2.6109  -2.5869  -2.5109  -2.5015
    -2.3861  -2.3552  -2.2525  -2.2229  -2.2223  -2.2153  -2.2139  -2.2125
    -2.2089  -2.2022  -2.1920  -2.1908  -2.1716  -2.1471  -2.1298  -2.1270
    -2.1204  -2.1022  -2.1021  -2.0843  -2.0701  -2.0584  -2.0459  -2.0342
    -2.0311  -2.0156  -2.0152  -2.0065  -2.0054  -2.0017  -1.9706  -1.9665
    -1.9495  -1.9406  -1.9283  -1.9127  -1.9079  -1.9041  -1.9026  -1.8889
    -1.8811  -1.8757  -1.8739  -1.8705  -1.8705  -1.8641  -1.8572  -1.8413
    -1.8307  -1.8233  -1.8175  -1.8111  -1.8052  -1.8030  -1.7958  -1.7938
    -1.7896  -1.7877  -1.7834  -1.7824  -1.7817  -1.7787  -1.7672  -1.7656
    -1.7605  -1.7543  -1.7523  -1.7498  -1.7485  -1.7483  -1.7410  -1.7328
    -1.7270  -1.7179  -1.7177  -1.7136  -1.7069  -1.7015  -1.6779  -1.6776
    -1.6756  -1.6752  -1.6712  -1.6638  -1.6612  -1.6554  -1.6545  -1.6475
    -1.6438  -1.6199  -1.6191  -1.6191  -1.5998  -1.5772  -1.5603  -1.5540
    -1.5470  -1.5469  -1.5237  -1.5143  -1.5133  -1.4792  -1.4627  -1.4118
    -1.3995  -1.3976  -1.3919  -1.3912  -1.3872  -1.3741  -1.3688  -1.3645
    -1.3636  -1.3613  -1.3452  -1.3396  -1.3389  -1.3308  -1.3263  -1.3248
    -1.3105  -1.3082  -1.3021  -1.2171  -1.2124  -1.2033  -1.0639  -0.9153
    -0.8981  -0.8773  -0.8514  -0.8328  -0.8117  -0.7838  -0.7836  -0.7739
    -0.7185  -0.7130  -0.6865  -0.6493  -0.6444  -0.6428  -0.6320  -0.5845
    -0.5633  -0.5596  -0.5442  -0.5252  -0.4256  -0.4190  -0.4018  -0.3216
    -0.3212  -0.2614  -0.2484  -0.2282  -0.0007   0.3790   0.3965   0.4041
     0.4050   0.5099   0.5906   0.7443   1.2130   1.2146   1.2269   1.3059
     1.3218   1.3221   1.3295

          k = 0.0000 0.2652 0.0000 (128375 PWs)   bands (ev):

   -88.7942 -88.7900 -88.7852 -88.7817 -88.7782 -88.7762 -88.7749 -88.7719
   -88.7717 -88.7702 -88.7695 -88.7663 -88.7654 -88.7615 -88.7603 -88.7557
   -88.7550 -88.7534 -88.7525 -88.7500 -88.7482 -88.7465 -88.7452 -88.7421
   -88.7417 -88.7387 -88.7379 -88.7362 -88.7356 -88.7337 -88.7279 -88.7213
   -88.7130 -88.6510 -88.6404 -88.6350 -88.6316 -88.6283 -88.6259 -88.6199
   -88.6181 -88.6161 -88.6125 -88.6117 -88.6084 -88.6063 -88.6041 -88.6027
   -88.6018 -88.6009 -88.5999 -88.5978 -88.5954 -88.5927 -88.5914 -88.5907
   -88.5842 -88.5808 -88.5788 -88.5708 -88.5678 -88.5659 -88.5630 -88.5565
   -55.0021 -54.9888 -54.9859 -54.9788 -54.9737 -54.9710 -54.9686 -54.9660
   -54.9637 -54.9622 -54.9587 -54.9577 -54.9565 -54.9537 -54.9518 -54.9511
   -54.9483 -54.9451 -54.9439 -54.9437 -54.9429 -54.9418 -54.9397 -54.9367
   -54.9345 -54.9315 -54.9286 -54.9256 -54.9228 -54.9200 -54.9123 -54.9105
   -54.9057 -54.9014 -54.8978 -54.8962 -54.8939 -54.8892 -54.8863 -54.8810
   -54.8792 -54.8752 -54.8729 -54.8696 -54.8650 -54.8609 -54.8432 -54.8356
   -54.8312 -54.8234 -54.8202 -54.8174 -54.8161 -54.8136 -54.8120 -54.8045
   -54.8008 -54.7966 -54.7958 -54.7947 -54.7926 -54.7914 -54.7888 -54.7874
   -54.7854 -54.7836 -54.7814 -54.7800 -54.7795 -54.7754 -54.7719 -54.7711
   -54.7687 -54.7678 -54.7654 -54.7649 -54.7624 -54.7551 -54.7539 -54.7503
   -54.7478 -54.7447 -54.7406 -54.7374 -54.7364 -54.7354 -54.7296 -54.7262
   -54.7227 -54.7201 -54.7180 -54.7151 -54.7139 -54.7122 -54.7117 -54.7087
   -54.7068 -54.7033 -54.7016 -54.7001 -54.6986 -54.6939 -54.6934 -54.6915
   -54.6850 -54.6837 -54.6827 -54.6781 -54.6770 -54.6759 -54.6749 -54.6723
   -54.6713 -54.6698 -54.6681 -54.6666 -54.6652 -54.6642 -54.6594 -54.6588
   -54.6581 -54.6546 -54.6518 -54.6506 -54.6455 -54.6429 -54.6417 -54.6391
   -54.6382 -54.6364 -54.6356 -54.6342 -54.6280 -54.6273 -54.6269 -54.6247
   -54.6239 -54.6207 -54.6199 -54.6155 -54.6147 -54.6137 -54.6124 -54.6089
   -54.6049 -54.6031 -54.6007 -54.6000 -54.5977 -54.5968 -54.5940 -54.5929
   -54.5824 -54.5814 -54.5787 -54.5776 -54.5749 -54.5738 -54.5735 -54.5706
   -54.5671 -54.5637 -54.5594 -54.5544 -54.5528 -54.5518 -54.5487 -54.5466
   -54.5404 -54.5398 -54.5381 -54.5369 -54.5344 -54.5320 -54.5304 -54.5232
   -54.5229 -54.5166 -54.5163 -54.5145 -54.5129 -54.5116 -54.5113 -54.5091
   -54.5077 -54.5061 -54.5054 -54.5035 -54.5016 -54.5007 -54.4985 -54.4966
   -18.1356  -9.3257  -8.4766  -7.8531  -7.5205  -7.1211  -6.9915  -6.7424
    -6.5572  -6.3845  -6.1642  -5.9931  -5.9317  -5.7922  -5.7027  -5.6762
    -5.5633  -5.5148  -5.3796  -5.3274  -5.2911  -5.2204  -5.1925  -5.1684
    -5.1606  -5.1315  -5.1057  -5.1010  -5.0795  -4.9591  -4.8829  -4.8388
    -4.8243  -4.8180  -4.7950  -4.7906  -4.7730  -4.7690  -4.7591  -4.7538
    -4.7220  -4.7201  -4.7046  -4.6941  -4.6788  -4.6615  -4.6489  -4.6412
    -4.6205  -4.6029  -4.5991  -4.5865  -4.5461  -4.5384  -4.5244  -4.5063
    -4.5004  -4.4971  -4.4891  -4.4551  -4.4434  -4.3648  -4.3347  -4.3238
    -4.3195  -4.2861  -4.2766  -4.1890  -4.1491  -4.1264  -4.0867  -4.0526
    -4.0269  -4.0214  -3.9784  -3.9336  -3.9236  -3.9209  -3.9081  -3.8920
    -3.8867  -3.8713  -3.8661  -3.8620  -3.8590  -3.8547  -3.8481  -3.8374
    -3.8316  -3.8229  -3.8177  -3.8065  -3.8009  -3.7915  -3.7828  -3.7757
    -3.7683  -3.7646  -3.7611  -3.7583  -3.7542  -3.7463  -3.7411  -3.7211
    -3.6937  -3.6844  -3.6640  -3.6625  -3.6547  -3.6341  -3.6293  -3.6231
    -3.6184  -3.6001  -3.5922  -3.5706  -3.5184  -3.4967  -3.4837  -3.4659
    -3.4249  -3.4176  -3.4069  -3.4003  -3.3850  -3.3270  -3.3213  -3.3112
    -3.3025  -3.2950  -3.2928  -3.2807  -3.2725  -3.2678  -3.2645  -3.2586
    -3.2412  -3.2333  -3.2173  -3.2118  -3.2060  -3.1760  -3.1663  -3.1590
    -3.1553  -3.1205  -3.1087  -3.0783  -3.0708  -3.0636  -3.0501  -3.0381
    -3.0278  -3.0213  -3.0195  -3.0073  -3.0000  -2.9969  -2.9848  -2.9708
    -2.9680  -2.9661  -2.9556  -2.9475  -2.9325  -2.9103  -2.8929  -2.8648
    -2.8475  -2.8374  -2.8184  -2.8122  -2.8002  -2.7835  -2.7757  -2.7620
    -2.7578  -2.7446  -2.7190  -2.7121  -2.6995  -2.6618  -2.6498  -2.6362
    -2.6206  -2.5915  -2.5543  -2.5442  -2.5365  -2.5150  -2.4476  -2.3720
    -2.3442  -2.3386  -2.3066  -2.2910  -2.2818  -2.2580  -2.2402  -2.2315
    -2.2127  -2.2040  -2.1988  -2.1803  -2.1776  -2.1725  -2.1545  -2.1530
    -2.1411  -2.1281  -2.1158  -2.0969  -2.0902  -2.0660  -2.0465  -2.0394
    -2.0328  -2.0154  -2.0070  -1.9994  -1.9888  -1.9871  -1.9751  -1.9729
    -1.9691  -1.9606  -1.9504  -1.9444  -1.9383  -1.9272  -1.9114  -1.8947
    -1.8880  -1.8790  -1.8706  -1.8628  -1.8578  -1.8513  -1.8483  -1.8414
    -1.8331  -1.8280  -1.8253  -1.8199  -1.8107  -1.8037  -1.8005  -1.7935
    -1.7898  -1.7803  -1.7759  -1.7670  -1.7641  -1.7502  -1.7474  -1.7437
    -1.7408  -1.7335  -1.7296  -1.7277  -1.7237  -1.7215  -1.7152  -1.7076
    -1.6996  -1.6971  -1.6886  -1.6844  -1.6768  -1.6735  -1.6682  -1.6630
    -1.6575  -1.6546  -1.6502  -1.6381  -1.6352  -1.6257  -1.6128  -1.6083
    -1.6012  -1.5840  -1.5801  -1.5601  -1.5426  -1.5301  -1.5262  -1.5122
    -1.5060  -1.5027  -1.4980  -1.4837  -1.4762  -1.4732  -1.4680  -1.4658
    -1.4459  -1.4304  -1.4053  -1.3998  -1.3898  -1.3862  -1.3796  -1.3748
    -1.3579  -1.3571  -1.3435  -1.3393  -1.3315  -1.3241  -1.3006  -1.2620
    -1.2441  -1.2049  -1.1914  -1.1700  -1.1195  -0.9728  -0.9565  -0.9509
    -0.9411  -0.9195  -0.9067  -0.8946  -0.8871  -0.8620  -0.8255  -0.7986
    -0.7833  -0.7776  -0.7691  -0.7620  -0.7489  -0.7401  -0.7237  -0.7104
    -0.6760  -0.6695  -0.6533  -0.6214  -0.5859  -0.5662  -0.5548  -0.4956
    -0.4068  -0.1817  -0.1522   0.0563   0.0897   0.2332   0.2802   0.3694
     0.5274   0.5355   0.6584   0.7110   0.7740   0.8523   0.9023   0.9997
     1.1625   1.2241   1.2844

          k = 0.0000-0.5303 0.0000 (128388 PWs)   bands (ev):

   -88.7906 -88.7904 -88.7882 -88.7842 -88.7772 -88.7765 -88.7742 -88.7724
   -88.7712 -88.7694 -88.7693 -88.7669 -88.7654 -88.7636 -88.7580 -88.7557
   -88.7553 -88.7523 -88.7520 -88.7502 -88.7495 -88.7482 -88.7433 -88.7420
   -88.7396 -88.7393 -88.7383 -88.7379 -88.7350 -88.7342 -88.7272 -88.7219
   -88.7130 -88.6488 -88.6445 -88.6340 -88.6332 -88.6245 -88.6243 -88.6212
   -88.6207 -88.6149 -88.6135 -88.6098 -88.6080 -88.6071 -88.6038 -88.6029
   -88.6025 -88.6018 -88.6009 -88.5968 -88.5945 -88.5943 -88.5907 -88.5874
   -88.5870 -88.5809 -88.5783 -88.5712 -88.5684 -88.5658 -88.5603 -88.5584
   -54.9995 -54.9894 -54.9840 -54.9837 -54.9745 -54.9702 -54.9700 -54.9651
   -54.9634 -54.9607 -54.9592 -54.9584 -54.9551 -54.9531 -54.9527 -54.9513
   -54.9465 -54.9461 -54.9443 -54.9422 -54.9421 -54.9406 -54.9398 -54.9389
   -54.9309 -54.9305 -54.9298 -54.9273 -54.9231 -54.9191 -54.9110 -54.9048
   -54.8977 -54.8951 -54.8950 -54.8942 -54.8898 -54.8880 -54.8863 -54.8860
   -54.8739 -54.8723 -54.8626 -54.8595 -54.8567 -54.8536 -54.8490 -54.8482
   -54.8398 -54.8363 -54.8354 -54.8342 -54.8242 -54.8190 -54.8168 -54.8149
   -54.8106 -54.8006 -54.7967 -54.7938 -54.7917 -54.7880 -54.7874 -54.7867
   -54.7831 -54.7823 -54.7803 -54.7796 -54.7772 -54.7727 -54.7701 -54.7699
   -54.7655 -54.7643 -54.7636 -54.7631 -54.7603 -54.7591 -54.7546 -54.7527
   -54.7501 -54.7498 -54.7479 -54.7476 -54.7427 -54.7411 -54.7389 -54.7360
   -54.7349 -54.7296 -54.7195 -54.7156 -54.7121 -54.7096 -54.7083 -54.7049
   -54.7016 -54.7013 -54.6984 -54.6933 -54.6918 -54.6880 -54.6861 -54.6830
   -54.6804 -54.6798 -54.6752 -54.6749 -54.6730 -54.6727 -54.6720 -54.6707
   -54.6699 -54.6686 -54.6676 -54.6649 -54.6627 -54.6613 -54.6612 -54.6586
   -54.6578 -54.6557 -54.6545 -54.6511 -54.6503 -54.6501 -54.6474 -54.6438
   -54.6403 -54.6354 -54.6338 -54.6309 -54.6297 -54.6293 -54.6236 -54.6228
   -54.6214 -54.6195 -54.6188 -54.6122 -54.6102 -54.6101 -54.6074 -54.6072
   -54.6036 -54.6022 -54.5981 -54.5979 -54.5954 -54.5942 -54.5916 -54.5896
   -54.5856 -54.5850 -54.5839 -54.5760 -54.5750 -54.5730 -54.5719 -54.5685
   -54.5637 -54.5584 -54.5574 -54.5530 -54.5516 -54.5450 -54.5411 -54.5377
   -54.5374 -54.5333 -54.5331 -54.5326 -54.5314 -54.5297 -54.5288 -54.5278
   -54.5272 -54.5254 -54.5246 -54.5234 -54.5186 -54.5182 -54.5163 -54.5160
   -54.5138 -54.5132 -54.5072 -54.5038 -54.5032 -54.5023 -54.4985 -54.4975
   -18.1356  -9.3261  -8.2052  -8.0999  -7.7215  -6.9839  -6.9669  -6.9031
    -6.7224  -6.1110  -6.0799  -5.9418  -5.8761  -5.6373  -5.5748  -5.5578
    -5.4827  -5.4734  -5.4164  -5.4154  -5.3061  -5.2902  -5.2655  -5.1543
    -5.1334  -5.1095  -5.0373  -5.0240  -5.0181  -5.0150  -5.0068  -4.9777
    -4.9772  -4.9706  -4.9619  -4.9537  -4.8766  -4.8720  -4.8019  -4.8011
    -4.7418  -4.7248  -4.6563  -4.6546  -4.6537  -4.6471  -4.5874  -4.5740
    -4.5699  -4.5634  -4.5512  -4.5460  -4.5455  -4.5274  -4.5231  -4.5193
    -4.4960  -4.4700  -4.4108  -4.3985  -4.3880  -4.3868  -4.3744  -4.3732
    -4.3309  -4.3160  -4.2829  -4.2630  -4.2125  -4.2041  -4.1641  -4.1631
    -4.1043  -4.0532  -3.9634  -3.9464  -3.9130  -3.9125  -3.8955  -3.8861
    -3.8762  -3.8743  -3.8633  -3.8573  -3.8471  -3.8380  -3.8331  -3.8298
    -3.8171  -3.8119  -3.8084  -3.8023  -3.7990  -3.7906  -3.7862  -3.7808
    -3.7480  -3.7471  -3.6991  -3.6972  -3.6738  -3.6707  -3.6587  -3.6558
    -3.6350  -3.6243  -3.6197  -3.6192  -3.6127  -3.6057  -3.5985  -3.5978
    -3.5943  -3.5911  -3.5837  -3.5792  -3.5477  -3.5396  -3.5362  -3.5256
    -3.5068  -3.4871  -3.3989  -3.3770  -3.3471  -3.3300  -3.2926  -3.2916
    -3.2828  -3.2803  -3.2764  -3.2701  -3.2631  -3.2617  -3.2577  -3.2551
    -3.2452  -3.2378  -3.2330  -3.2238  -3.2229  -3.2206  -3.1972  -3.1961
    -3.1867  -3.1809  -3.1671  -3.1618  -3.1277  -3.1221  -3.1174  -3.1102
    -3.0939  -3.0925  -3.0614  -3.0589  -3.0555  -3.0428  -3.0287  -3.0186
    -2.9902  -2.9818  -2.9655  -2.9437  -2.9278  -2.9245  -2.9112  -2.8167
    -2.7983  -2.7965  -2.7804  -2.7793  -2.7770  -2.7579  -2.7522  -2.7476
    -2.7251  -2.7147  -2.6813  -2.6737  -2.6096  -2.5393  -2.4821  -2.4707
    -2.4656  -2.4604  -2.4341  -2.4291  -2.4233  -2.4195  -2.3912  -2.3595
    -2.3252  -2.3211  -2.3162  -2.2961  -2.2929  -2.2924  -2.2867  -2.2800
    -2.2692  -2.2666  -2.2545  -2.2486  -2.2405  -2.2395  -2.2057  -2.1549
    -2.1499  -2.1383  -2.1368  -2.1074  -2.1064  -2.0948  -2.0867  -2.0829
    -2.0611  -2.0484  -2.0152  -1.9982  -1.9860  -1.9828  -1.9749  -1.9743
    -1.9676  -1.9609  -1.9595  -1.9542  -1.9510  -1.9436  -1.9431  -1.9382
    -1.9276  -1.9257  -1.9246  -1.9166  -1.9065  -1.8956  -1.8631  -1.8546
    -1.8441  -1.8303  -1.8018  -1.8003  -1.7999  -1.7930  -1.7883  -1.7787
    -1.7730  -1.7675  -1.7655  -1.7628  -1.7547  -1.7539  -1.7506  -1.7492
    -1.7424  -1.7336  -1.7323  -1.7181  -1.7121  -1.7020  -1.6959  -1.6824
    -1.6801  -1.6733  -1.6652  -1.6565  -1.6307  -1.6280  -1.6123  -1.6112
    -1.6058  -1.6036  -1.5889  -1.5846  -1.5706  -1.5637  -1.5439  -1.5264
    -1.5214  -1.5204  -1.5200  -1.5195  -1.5133  -1.5086  -1.5060  -1.4990
    -1.4946  -1.4937  -1.4867  -1.4847  -1.4820  -1.4773  -1.4737  -1.4703
    -1.4673  -1.4591  -1.4203  -1.4185  -1.4074  -1.3767  -1.3389  -1.3365
    -1.2870  -1.2817  -1.2601  -1.2325  -1.2248  -1.2110  -1.2085  -1.1520
    -1.1018  -1.0940  -1.0805  -1.0728  -1.0675  -1.0562  -1.0091  -1.0078
    -1.0012  -1.0000  -0.9803  -0.9566  -0.9387  -0.9338  -0.9299  -0.9137
    -0.8599  -0.8495  -0.8327  -0.8079  -0.7896  -0.7879  -0.7616  -0.7444
    -0.7245  -0.7184  -0.7035  -0.6946  -0.6896  -0.6754  -0.6753  -0.6586
    -0.5625  -0.4085  -0.3240  -0.2801  -0.1366  -0.0309   0.3190   0.3405
     0.5330   0.5708   0.9587   0.9889   1.0152   1.0610   1.1071   1.1109
     1.1482   1.1694   1.1801

          k = 0.2500-0.0884 0.0000 (128371 PWs)   bands (ev):

   -88.7942 -88.7900 -88.7852 -88.7817 -88.7782 -88.7762 -88.7749 -88.7719
   -88.7717 -88.7702 -88.7695 -88.7663 -88.7654 -88.7615 -88.7603 -88.7557
   -88.7550 -88.7534 -88.7525 -88.7500 -88.7482 -88.7466 -88.7452 -88.7421
   -88.7417 -88.7387 -88.7379 -88.7362 -88.7356 -88.7337 -88.7279 -88.7213
   -88.7130 -88.6510 -88.6404 -88.6350 -88.6316 -88.6283 -88.6259 -88.6199
   -88.6180 -88.6161 -88.6125 -88.6117 -88.6084 -88.6063 -88.6041 -88.6027
   -88.6018 -88.6009 -88.5999 -88.5978 -88.5954 -88.5927 -88.5914 -88.5907
   -88.5842 -88.5808 -88.5788 -88.5708 -88.5678 -88.5659 -88.5630 -88.5565
   -55.0021 -54.9888 -54.9859 -54.9788 -54.9737 -54.9710 -54.9686 -54.9660
   -54.9637 -54.9622 -54.9587 -54.9577 -54.9565 -54.9537 -54.9518 -54.9511
   -54.9483 -54.9451 -54.9439 -54.9437 -54.9429 -54.9418 -54.9397 -54.9367
   -54.9345 -54.9315 -54.9286 -54.9256 -54.9227 -54.9200 -54.9123 -54.9105
   -54.9057 -54.9014 -54.8978 -54.8962 -54.8939 -54.8892 -54.8863 -54.8810
   -54.8792 -54.8752 -54.8729 -54.8696 -54.8650 -54.8609 -54.8432 -54.8356
   -54.8312 -54.8234 -54.8202 -54.8174 -54.8161 -54.8136 -54.8120 -54.8045
   -54.8008 -54.7966 -54.7958 -54.7947 -54.7926 -54.7914 -54.7888 -54.7874
   -54.7854 -54.7836 -54.7814 -54.7800 -54.7795 -54.7754 -54.7719 -54.7711
   -54.7687 -54.7678 -54.7654 -54.7649 -54.7624 -54.7551 -54.7539 -54.7503
   -54.7478 -54.7447 -54.7405 -54.7374 -54.7364 -54.7354 -54.7296 -54.7262
   -54.7227 -54.7201 -54.7180 -54.7151 -54.7139 -54.7122 -54.7117 -54.7087
   -54.7068 -54.7033 -54.7016 -54.7001 -54.6986 -54.6939 -54.6934 -54.6915
   -54.6850 -54.6837 -54.6827 -54.6781 -54.6770 -54.6759 -54.6749 -54.6723
   -54.6713 -54.6698 -54.6681 -54.6666 -54.6652 -54.6642 -54.6594 -54.6588
   -54.6581 -54.6546 -54.6518 -54.6506 -54.6455 -54.6429 -54.6417 -54.6391
   -54.6382 -54.6364 -54.6356 -54.6342 -54.6280 -54.6273 -54.6269 -54.6247
   -54.6239 -54.6207 -54.6199 -54.6155 -54.6147 -54.6137 -54.6124 -54.6089
   -54.6049 -54.6031 -54.6007 -54.6000 -54.5977 -54.5968 -54.5940 -54.5929
   -54.5824 -54.5814 -54.5787 -54.5776 -54.5749 -54.5738 -54.5735 -54.5706
   -54.5671 -54.5637 -54.5594 -54.5544 -54.5528 -54.5518 -54.5487 -54.5466
   -54.5404 -54.5398 -54.5381 -54.5369 -54.5344 -54.5320 -54.5304 -54.5232
   -54.5229 -54.5166 -54.5163 -54.5145 -54.5129 -54.5116 -54.5113 -54.5091
   -54.5077 -54.5061 -54.5054 -54.5035 -54.5016 -54.5007 -54.4985 -54.4966
   -18.1356  -9.3257  -8.4766  -7.8531  -7.5205  -7.1211  -6.9915  -6.7423
    -6.5572  -6.3845  -6.1642  -5.9931  -5.9317  -5.7922  -5.7027  -5.6761
    -5.5634  -5.5149  -5.3796  -5.3275  -5.2911  -5.2204  -5.1925  -5.1684
    -5.1606  -5.1315  -5.1057  -5.1010  -5.0795  -4.9591  -4.8829  -4.8388
    -4.8243  -4.8180  -4.7950  -4.7906  -4.7730  -4.7690  -4.7591  -4.7538
    -4.7220  -4.7201  -4.7045  -4.6941  -4.6788  -4.6615  -4.6489  -4.6412
    -4.6205  -4.6029  -4.5991  -4.5865  -4.5461  -4.5384  -4.5244  -4.5063
    -4.5004  -4.4971  -4.4891  -4.4551  -4.4434  -4.3648  -4.3348  -4.3238
    -4.3195  -4.2861  -4.2766  -4.1890  -4.1491  -4.1264  -4.0867  -4.0526
    -4.0269  -4.0214  -3.9784  -3.9336  -3.9236  -3.9209  -3.9081  -3.8920
    -3.8866  -3.8713  -3.8661  -3.8620  -3.8590  -3.8547  -3.8481  -3.8374
    -3.8316  -3.8229  -3.8177  -3.8065  -3.8009  -3.7915  -3.7828  -3.7757
    -3.7683  -3.7645  -3.7611  -3.7583  -3.7542  -3.7463  -3.7411  -3.7211
    -3.6937  -3.6844  -3.6640  -3.6625  -3.6547  -3.6341  -3.6293  -3.6231
    -3.6184  -3.6001  -3.5922  -3.5706  -3.5184  -3.4967  -3.4837  -3.4659
    -3.4249  -3.4176  -3.4069  -3.4003  -3.3850  -3.3270  -3.3213  -3.3112
    -3.3025  -3.2950  -3.2928  -3.2807  -3.2725  -3.2678  -3.2645  -3.2586
    -3.2412  -3.2334  -3.2173  -3.2118  -3.2060  -3.1760  -3.1663  -3.1590
    -3.1553  -3.1205  -3.1087  -3.0783  -3.0708  -3.0636  -3.0501  -3.0381
    -3.0278  -3.0213  -3.0195  -3.0073  -3.0000  -2.9969  -2.9848  -2.9708
    -2.9680  -2.9661  -2.9556  -2.9475  -2.9325  -2.9103  -2.8928  -2.8648
    -2.8475  -2.8374  -2.8184  -2.8122  -2.8002  -2.7835  -2.7757  -2.7620
    -2.7578  -2.7446  -2.7190  -2.7122  -2.6995  -2.6618  -2.6498  -2.6362
    -2.6206  -2.5915  -2.5543  -2.5442  -2.5365  -2.5150  -2.4476  -2.3720
    -2.3442  -2.3386  -2.3066  -2.2910  -2.2818  -2.2580  -2.2402  -2.2315
    -2.2127  -2.2040  -2.1988  -2.1803  -2.1776  -2.1725  -2.1545  -2.1530
    -2.1411  -2.1281  -2.1157  -2.0969  -2.0902  -2.0660  -2.0465  -2.0394
    -2.0328  -2.0154  -2.0070  -1.9994  -1.9889  -1.9871  -1.9751  -1.9729
    -1.9691  -1.9606  -1.9504  -1.9444  -1.9383  -1.9272  -1.9114  -1.8947
    -1.8880  -1.8790  -1.8706  -1.8628  -1.8578  -1.8513  -1.8483  -1.8414
    -1.8331  -1.8280  -1.8253  -1.8199  -1.8107  -1.8037  -1.8005  -1.7935
    -1.7898  -1.7803  -1.7759  -1.7670  -1.7641  -1.7502  -1.7473  -1.7437
    -1.7409  -1.7335  -1.7296  -1.7277  -1.7236  -1.7215  -1.7152  -1.7076
    -1.6996  -1.6971  -1.6886  -1.6844  -1.6768  -1.6735  -1.6682  -1.6630
    -1.6575  -1.6546  -1.6502  -1.6381  -1.6352  -1.6257  -1.6128  -1.6083
    -1.6012  -1.5840  -1.5801  -1.5601  -1.5426  -1.5301  -1.5262  -1.5122
    -1.5060  -1.5027  -1.4980  -1.4837  -1.4762  -1.4732  -1.4680  -1.4658
    -1.4459  -1.4304  -1.4053  -1.3998  -1.3898  -1.3862  -1.3796  -1.3748
    -1.3579  -1.3571  -1.3435  -1.3393  -1.3315  -1.3241  -1.3006  -1.2620
    -1.2441  -1.2049  -1.1914  -1.1700  -1.1195  -0.9728  -0.9565  -0.9509
    -0.9412  -0.9195  -0.9067  -0.8946  -0.8871  -0.8620  -0.8255  -0.7986
    -0.7833  -0.7776  -0.7691  -0.7620  -0.7489  -0.7401  -0.7237  -0.7104
    -0.6760  -0.6695  -0.6533  -0.6214  -0.5859  -0.5662  -0.5548  -0.4956
    -0.4068  -0.1817  -0.1522   0.0563   0.0896   0.2332   0.2802   0.3695
     0.5274   0.5355   0.6584   0.7111   0.7740   0.8523   0.9023   0.9997
     1.1624   1.2242   1.2845

          k = 0.2500 0.1768 0.0000 (128340 PWs)   bands (ev):

   -88.7933 -88.7893 -88.7845 -88.7814 -88.7805 -88.7776 -88.7775 -88.7728
   -88.7712 -88.7695 -88.7684 -88.7675 -88.7613 -88.7605 -88.7603 -88.7559
   -88.7556 -88.7542 -88.7522 -88.7517 -88.7501 -88.7435 -88.7429 -88.7419
   -88.7406 -88.7399 -88.7393 -88.7379 -88.7369 -88.7315 -88.7276 -88.7219
   -88.7130 -88.6502 -88.6390 -88.6377 -88.6334 -88.6275 -88.6270 -88.6179
   -88.6170 -88.6156 -88.6122 -88.6101 -88.6090 -88.6076 -88.6031 -88.6031
   -88.6018 -88.6006 -88.6001 -88.5981 -88.5961 -88.5942 -88.5918 -88.5912
   -88.5822 -88.5818 -88.5782 -88.5699 -88.5687 -88.5642 -88.5639 -88.5571
   -55.0014 -54.9885 -54.9854 -54.9764 -54.9739 -54.9738 -54.9715 -54.9655
   -54.9636 -54.9624 -54.9574 -54.9569 -54.9555 -54.9518 -54.9507 -54.9500
   -54.9482 -54.9465 -54.9462 -54.9456 -54.9447 -54.9418 -54.9365 -54.9353
   -54.9342 -54.9331 -54.9302 -54.9249 -54.9231 -54.9183 -54.9114 -54.9049
   -54.9042 -54.8965 -54.8935 -54.8913 -54.8901 -54.8891 -54.8742 -54.8740
   -54.8728 -54.8714 -54.8697 -54.8666 -54.8662 -54.8656 -54.8458 -54.8351
   -54.8303 -54.8299 -54.8281 -54.8255 -54.8252 -54.8189 -54.8185 -54.8163
   -54.8112 -54.8090 -54.8071 -54.8046 -54.8006 -54.7912 -54.7885 -54.7871
   -54.7866 -54.7836 -54.7805 -54.7802 -54.7800 -54.7781 -54.7748 -54.7724
   -54.7703 -54.7694 -54.7649 -54.7638 -54.7589 -54.7540 -54.7513 -54.7486
   -54.7467 -54.7433 -54.7403 -54.7359 -54.7343 -54.7323 -54.7297 -54.7283
   -54.7274 -54.7234 -54.7180 -54.7155 -54.7128 -54.7107 -54.7098 -54.7043
   -54.7036 -54.6984 -54.6974 -54.6940 -54.6927 -54.6923 -54.6922 -54.6903
   -54.6888 -54.6873 -54.6862 -54.6843 -54.6841 -54.6797 -54.6769 -54.6739
   -54.6720 -54.6718 -54.6663 -54.6649 -54.6625 -54.6587 -54.6583 -54.6572
   -54.6560 -54.6540 -54.6491 -54.6484 -54.6463 -54.6436 -54.6416 -54.6411
   -54.6374 -54.6331 -54.6323 -54.6296 -54.6288 -54.6260 -54.6254 -54.6240
   -54.6206 -54.6181 -54.6174 -54.6097 -54.6095 -54.6063 -54.6056 -54.6053
   -54.6042 -54.6037 -54.6015 -54.6008 -54.5980 -54.5980 -54.5947 -54.5890
   -54.5873 -54.5849 -54.5811 -54.5740 -54.5729 -54.5726 -54.5694 -54.5658
   -54.5615 -54.5558 -54.5554 -54.5546 -54.5540 -54.5488 -54.5461 -54.5451
   -54.5430 -54.5389 -54.5370 -54.5369 -54.5353 -54.5326 -54.5313 -54.5251
   -54.5232 -54.5179 -54.5178 -54.5154 -54.5145 -54.5139 -54.5131 -54.5125
   -54.5118 -54.5103 -54.5097 -54.5074 -54.5067 -54.5035 -54.5025 -54.4994
   -18.1356  -9.3262  -8.4387  -7.8364  -7.2615  -7.2473  -7.2216  -7.0193
    -6.3197  -6.2911  -6.1839  -6.1345  -6.0425  -5.7495  -5.6558  -5.6150
    -5.5058  -5.3569  -5.3231  -5.2177  -5.2146  -5.2146  -5.1739  -5.1497
    -5.1037  -5.0924  -5.0918  -5.0749  -4.9939  -4.9877  -4.9634  -4.9431
    -4.8696  -4.8553  -4.8415  -4.8259  -4.7792  -4.7681  -4.7537  -4.7374
    -4.7186  -4.7096  -4.6999  -4.6986  -4.6901  -4.6893  -4.6870  -4.6849
    -4.6750  -4.6414  -4.6378  -4.6093  -4.5978  -4.5798  -4.5616  -4.5254
    -4.5122  -4.4988  -4.4748  -4.4430  -4.3528  -4.3447  -4.3090  -4.2895
    -4.2411  -4.2279  -4.2273  -4.2188  -4.2114  -4.1877  -4.1643  -4.0588
    -4.0411  -4.0138  -3.9942  -3.9523  -3.9371  -3.9254  -3.9250  -3.9217
    -3.9176  -3.9097  -3.9094  -3.9060  -3.9014  -3.8872  -3.8867  -3.8857
    -3.8769  -3.8729  -3.8327  -3.8269  -3.7845  -3.7822  -3.7730  -3.7582
    -3.7487  -3.7184  -3.7130  -3.7101  -3.7060  -3.6989  -3.6947  -3.6799
    -3.6794  -3.6639  -3.6535  -3.6333  -3.6113  -3.6049  -3.5693  -3.5605
    -3.5505  -3.5451  -3.5311  -3.5161  -3.5051  -3.5036  -3.4907  -3.4855
    -3.4784  -3.4752  -3.4721  -3.4688  -3.4522  -3.3926  -3.3849  -3.3778
    -3.3722  -3.3113  -3.3048  -3.2979  -3.2950  -3.2825  -3.2807  -3.2697
    -3.2528  -3.2361  -3.2116  -3.2075  -3.2069  -3.2056  -3.1804  -3.1741
    -3.1469  -3.1441  -3.1403  -3.1305  -3.1245  -3.1183  -3.0982  -3.0619
    -3.0410  -3.0316  -3.0204  -3.0187  -3.0013  -2.9994  -2.9949  -2.9681
    -2.9529  -2.9206  -2.9019  -2.8927  -2.8901  -2.8869  -2.8833  -2.8767
    -2.8673  -2.8650  -2.8597  -2.8578  -2.8488  -2.8482  -2.8446  -2.8438
    -2.8091  -2.7910  -2.7493  -2.7383  -2.7155  -2.5945  -2.5691  -2.5611
    -2.5389  -2.5220  -2.5170  -2.5029  -2.4528  -2.4020  -2.3981  -2.3634
    -2.3543  -2.3247  -2.2990  -2.2940  -2.2933  -2.2754  -2.2469  -2.2446
    -2.2139  -2.2050  -2.1992  -2.1982  -2.1814  -2.1667  -2.1547  -2.1252
    -2.1238  -2.1165  -2.1034  -2.0927  -2.0920  -2.0768  -2.0753  -2.0552
    -2.0497  -2.0401  -2.0357  -2.0287  -2.0097  -1.9859  -1.9858  -1.9585
    -1.9582  -1.9498  -1.9387  -1.9345  -1.9221  -1.9179  -1.9141  -1.9074
    -1.9021  -1.8981  -1.8816  -1.8562  -1.8515  -1.8448  -1.8379  -1.8373
    -1.8332  -1.8271  -1.8206  -1.8203  -1.8080  -1.8011  -1.7791  -1.7759
    -1.7720  -1.7687  -1.7572  -1.7563  -1.7422  -1.7352  -1.7290  -1.7110
    -1.7048  -1.7039  -1.7024  -1.6905  -1.6847  -1.6811  -1.6734  -1.6715
    -1.6654  -1.6452  -1.6315  -1.6307  -1.6250  -1.6214  -1.6178  -1.6176
    -1.6118  -1.6090  -1.6039  -1.6012  -1.5945  -1.5852  -1.5763  -1.5737
    -1.5650  -1.5529  -1.5419  -1.5342  -1.5333  -1.5278  -1.5246  -1.5245
    -1.5194  -1.5157  -1.5036  -1.4908  -1.4897  -1.4714  -1.4698  -1.4546
    -1.4534  -1.4391  -1.4196  -1.4172  -1.4033  -1.3710  -1.3687  -1.3450
    -1.3397  -1.3272  -1.3116  -1.3054  -1.2935  -1.2885  -1.2349  -1.2234
    -1.2196  -1.1955  -1.1742  -1.1722  -1.1329  -1.0263  -1.0074  -0.9576
    -0.9289  -0.9139  -0.9078  -0.8557  -0.8395  -0.8078  -0.7930  -0.7868
    -0.7587  -0.7527  -0.7459  -0.7444  -0.7383  -0.7346  -0.7243  -0.7004
    -0.6594  -0.6372  -0.5648  -0.5516  -0.5151  -0.5076  -0.4418  -0.3419
    -0.3365  -0.2062  -0.1427  -0.0659   0.0862   0.1937   0.2312   0.2400
     0.2591   0.3552   0.3598   0.3996   0.4053   0.4336   0.5223   0.6937
     0.8135   0.9762   0.9936

          k = 0.2500-0.6187 0.0000 (128424 PWs)   bands (ev):

   -88.7901 -88.7886 -88.7873 -88.7838 -88.7816 -88.7783 -88.7779 -88.7728
   -88.7688 -88.7685 -88.7662 -88.7660 -88.7643 -88.7620 -88.7600 -88.7568
   -88.7555 -88.7548 -88.7532 -88.7488 -88.7478 -88.7445 -88.7445 -88.7425
   -88.7404 -88.7398 -88.7381 -88.7379 -88.7370 -88.7315 -88.7277 -88.7222
   -88.7130 -88.6477 -88.6434 -88.6389 -88.6321 -88.6270 -88.6229 -88.6195
   -88.6185 -88.6141 -88.6131 -88.6107 -88.6088 -88.6080 -88.6042 -88.6026
   -88.6020 -88.6012 -88.6000 -88.5967 -88.5954 -88.5941 -88.5916 -88.5914
   -88.5836 -88.5809 -88.5784 -88.5702 -88.5692 -88.5643 -88.5611 -88.5590
   -54.9986 -54.9891 -54.9842 -54.9816 -54.9768 -54.9732 -54.9684 -54.9668
   -54.9621 -54.9601 -54.9579 -54.9561 -54.9550 -54.9535 -54.9516 -54.9516
   -54.9489 -54.9466 -54.9458 -54.9423 -54.9417 -54.9411 -54.9378 -54.9369
   -54.9331 -54.9326 -54.9301 -54.9249 -54.9238 -54.9177 -54.9102 -54.9041
   -54.8918 -54.8883 -54.8872 -54.8860 -54.8835 -54.8812 -54.8802 -54.8750
   -54.8731 -54.8685 -54.8641 -54.8625 -54.8581 -54.8518 -54.8491 -54.8483
   -54.8467 -54.8452 -54.8425 -54.8391 -54.8332 -54.8272 -54.8224 -54.8198
   -54.8135 -54.8113 -54.8070 -54.8005 -54.7979 -54.7958 -54.7947 -54.7924
   -54.7886 -54.7842 -54.7832 -54.7781 -54.7768 -54.7743 -54.7695 -54.7678
   -54.7662 -54.7641 -54.7615 -54.7601 -54.7596 -54.7585 -54.7566 -54.7549
   -54.7493 -54.7485 -54.7462 -54.7440 -54.7429 -54.7365 -54.7350 -54.7311
   -54.7287 -54.7276 -54.7257 -54.7221 -54.7175 -54.7109 -54.7095 -54.7058
   -54.7019 -54.6968 -54.6958 -54.6935 -54.6890 -54.6869 -54.6853 -54.6835
   -54.6825 -54.6790 -54.6776 -54.6762 -54.6747 -54.6734 -54.6731 -54.6707
   -54.6694 -54.6672 -54.6655 -54.6623 -54.6618 -54.6598 -54.6580 -54.6548
   -54.6543 -54.6538 -54.6526 -54.6505 -54.6495 -54.6481 -54.6457 -54.6441
   -54.6414 -54.6375 -54.6313 -54.6300 -54.6266 -54.6248 -54.6235 -54.6204
   -54.6188 -54.6168 -54.6161 -54.6120 -54.6109 -54.6089 -54.6072 -54.6045
   -54.6030 -54.5995 -54.5985 -54.5976 -54.5964 -54.5941 -54.5901 -54.5884
   -54.5830 -54.5817 -54.5805 -54.5737 -54.5717 -54.5711 -54.5684 -54.5617
   -54.5601 -54.5554 -54.5538 -54.5509 -54.5486 -54.5433 -54.5403 -54.5382
   -54.5373 -54.5352 -54.5343 -54.5331 -54.5318 -54.5298 -54.5293 -54.5285
   -54.5276 -54.5263 -54.5252 -54.5242 -54.5234 -54.5213 -54.5180 -54.5173
   -54.5158 -54.5142 -54.5116 -54.5106 -54.5088 -54.5068 -54.5049 -54.5013
   -18.1356  -9.3266  -8.2005  -7.9344  -7.7183  -7.4755  -6.8679  -6.7670
    -6.6028  -6.3449  -6.2789  -5.7786  -5.6558  -5.5799  -5.5216  -5.5023
    -5.4674  -5.4046  -5.3788  -5.3561  -5.2722  -5.2386  -5.1935  -5.1833
    -5.1673  -5.1209  -5.1000  -5.0551  -5.0412  -5.0177  -5.0010  -4.9958
    -4.9880  -4.9579  -4.9290  -4.8889  -4.8787  -4.8643  -4.8564  -4.8348
    -4.8014  -4.7819  -4.7594  -4.7495  -4.7319  -4.6985  -4.6841  -4.6178
    -4.6170  -4.5853  -4.5652  -4.5480  -4.5204  -4.4900  -4.4781  -4.4429
    -4.4242  -4.4170  -4.4038  -4.3857  -4.3662  -4.3562  -4.3348  -4.3149
    -4.3084  -4.2733  -4.2572  -4.2406  -4.2223  -4.2113  -4.2000  -4.1839
    -4.1195  -4.1069  -4.0655  -4.0252  -3.9562  -3.9474  -3.9378  -3.9229
    -3.9191  -3.9108  -3.9060  -3.8971  -3.8757  -3.8588  -3.8203  -3.8180
    -3.7887  -3.7794  -3.7751  -3.7672  -3.7485  -3.7356  -3.7140  -3.7111
    -3.7086  -3.6960  -3.6951  -3.6909  -3.6852  -3.6846  -3.6761  -3.6580
    -3.6547  -3.6385  -3.6219  -3.6172  -3.6068  -3.5925  -3.5780  -3.5705
    -3.5651  -3.5579  -3.5414  -3.5343  -3.5261  -3.5073  -3.4845  -3.4701
    -3.4670  -3.4550  -3.4503  -3.4396  -3.4306  -3.4270  -3.4172  -3.4049
    -3.3967  -3.3851  -3.3806  -3.3745  -3.3700  -3.3544  -3.3445  -3.3330
    -3.3118  -3.3046  -3.2741  -3.2614  -3.2456  -3.1713  -3.1502  -3.1466
    -3.1373  -3.1335  -3.1187  -3.1056  -3.1021  -3.0978  -3.0946  -3.0879
    -3.0733  -3.0675  -3.0547  -3.0501  -3.0460  -3.0361  -3.0355  -2.9992
    -2.9971  -2.9805  -2.9681  -2.9627  -2.9591  -2.9316  -2.8873  -2.8590
    -2.8384  -2.8219  -2.7937  -2.7885  -2.7695  -2.7414  -2.7222  -2.7163
    -2.6726  -2.6324  -2.6228  -2.5898  -2.5757  -2.5609  -2.5367  -2.5151
    -2.4894  -2.4604  -2.4507  -2.4398  -2.4229  -2.3894  -2.3790  -2.3730
    -2.3624  -2.3468  -2.3406  -2.3368  -2.3272  -2.3164  -2.3000  -2.2770
    -2.2471  -2.2394  -2.2092  -2.2066  -2.1951  -2.1762  -2.1711  -2.1507
    -2.1420  -2.1305  -2.1210  -2.1103  -2.0972  -2.0917  -2.0882  -2.0787
    -2.0638  -2.0471  -2.0313  -2.0280  -2.0177  -2.0053  -1.9862  -1.9798
    -1.9687  -1.9663  -1.9610  -1.9536  -1.9479  -1.9411  -1.9281  -1.9258
    -1.9134  -1.9088  -1.8972  -1.8865  -1.8722  -1.8649  -1.8448  -1.8372
    -1.8282  -1.8137  -1.8084  -1.8029  -1.7969  -1.7946  -1.7853  -1.7761
    -1.7730  -1.7664  -1.7623  -1.7398  -1.7351  -1.7291  -1.7216  -1.7188
    -1.7112  -1.7066  -1.6973  -1.6830  -1.6768  -1.6708  -1.6666  -1.6617
    -1.6544  -1.6455  -1.6343  -1.6327  -1.6294  -1.6219  -1.6155  -1.6021
    -1.5997  -1.5921  -1.5802  -1.5698  -1.5670  -1.5657  -1.5588  -1.5573
    -1.5472  -1.5415  -1.5360  -1.5211  -1.5184  -1.5129  -1.5082  -1.5080
    -1.4884  -1.4741  -1.4604  -1.4550  -1.4460  -1.4330  -1.4252  -1.4067
    -1.4005  -1.3883  -1.3693  -1.3579  -1.3219  -1.3074  -1.2939  -1.2711
    -1.2520  -1.2377  -1.2330  -1.2011  -1.1839  -1.1685  -1.1513  -1.1167
    -1.1070  -1.0970  -1.0893  -1.0786  -1.0395  -1.0248  -1.0115  -1.0033
    -0.9812  -0.9587  -0.9453  -0.9290  -0.9167  -0.8949  -0.8820  -0.8747
    -0.8507  -0.8482  -0.8003  -0.7936  -0.7873  -0.7739  -0.7677  -0.7513
    -0.7491  -0.7270  -0.7059  -0.6899  -0.6698  -0.6438  -0.6390  -0.5747
    -0.4999  -0.3830  -0.3310  -0.1579  -0.1310  -0.0355   0.0011   0.1403
     0.1855   0.2766   0.3109   0.4570   0.6477   0.6985   0.8903   0.8924
     1.0337   1.0916   1.1306

          k = 0.2500-0.3536 0.0000 (128397 PWs)   bands (ev):

   -88.7925 -88.7887 -88.7860 -88.7830 -88.7826 -88.7782 -88.7733 -88.7710
   -88.7699 -88.7684 -88.7683 -88.7655 -88.7648 -88.7645 -88.7611 -88.7571
   -88.7555 -88.7537 -88.7504 -88.7483 -88.7481 -88.7473 -88.7444 -88.7432
   -88.7421 -88.7394 -88.7368 -88.7360 -88.7360 -88.7331 -88.7283 -88.7216
   -88.7130 -88.6493 -88.6409 -88.6404 -88.6293 -88.6247 -88.6231 -88.6227
   -88.6199 -88.6151 -88.6131 -88.6111 -88.6096 -88.6064 -88.6037 -88.6036
[...]
     2.4933   2.5414   2.6166

          k =-0.5000-0.3536 0.0000 (128560 PWs)   bands (ev):

   -86.0512 -86.0480 -85.8507 -85.8499 -85.8024 -85.7936 -85.7855 -85.7822
   -85.7725 -85.7706 -85.7653 -85.7611 -85.7591 -85.7558 -85.7555 -85.7539
   -85.7537 -85.7520 -85.7453 -85.7423 -85.7423 -85.7395 -85.7382 -85.7370
   -85.7322 -85.7293 -85.7292 -85.7286 -85.7253 -85.7252 -85.7186 -85.7179
   -85.7106 -85.7100 -85.7071 -85.6984 -85.6953 -85.6952 -85.6938 -85.6936
   -85.6919 -85.6904 -85.6898 -85.6823 -85.6783 -85.6757 -85.6731 -85.6728
   -85.6710 -85.6705 -85.6695 -85.6692 -85.6691 -85.6678 -85.6666 -85.6645
   -85.6637 -85.6543 -85.6509 -85.6496 -85.6483 -85.6479 -85.6466 -85.6438
   -52.3730 -52.3570 -52.1673 -52.1599 -52.0825 -52.0774 -52.0693 -52.0640
   -52.0627 -52.0527 -52.0498 -52.0476 -52.0466 -52.0439 -52.0410 -52.0369
   -52.0368 -52.0360 -52.0326 -52.0324 -52.0273 -52.0249 -52.0238 -52.0212
   -52.0182 -52.0164 -52.0156 -52.0126 -52.0043 -52.0038 -51.9943 -51.9908
   -51.9905 -51.9886 -51.9873 -51.9836 -51.9803 -51.9755 -51.9673 -51.9646
   -51.9640 -51.9639 -51.9620 -51.9559 -51.9558 -51.9517 -51.9515 -51.9509
   -51.9497 -51.9489 -51.9471 -51.9464 -51.9446 -51.9430 -51.9417 -51.9399
   -51.9377 -51.9375 -51.9338 -51.9333 -51.9319 -51.9319 -51.9291 -51.9284
   -51.9159 -51.9022 -51.9006 -51.8989 -51.8986 -51.8929 -51.8928 -51.8793
   -51.8777 -51.8765 -51.8718 -51.8714 -51.8656 -51.8655 -51.8629 -51.8533
   -51.8525 -51.8492 -51.8449 -51.8419 -51.8409 -51.8402 -51.8369 -51.8368
   -51.8366 -51.8333 -51.8285 -51.8273 -51.8257 -51.8255 -51.8202 -51.8174
   -51.8157 -51.8136 -51.8111 -51.8066 -51.8024 -51.7991 -51.7986 -51.7977
   -51.7960 -51.7951 -51.7937 -51.7923 -51.7910 -51.7891 -51.7864 -51.7827
   -51.7802 -51.7797 -51.7777 -51.7762 -51.7755 -51.7692 -51.7689 -51.7685
   -51.7664 -51.7657 -51.7629 -51.7594 -51.7588 -51.7546 -51.7529 -51.7503
   -51.7499 -51.7496 -51.7480 -51.7427 -51.7394 -51.7360 -51.7345 -51.7327
   -51.7311 -51.7295 -51.7290 -51.7280 -51.7267 -51.7256 -51.7252 -51.7231
   -51.7228 -51.7208 -51.7203 -51.7194 -51.7177 -51.7153 -51.7152 -51.7119
   -51.7113 -51.7097 -51.7089 -51.7068 -51.7067 -51.7053 -51.7038 -51.7033
   -51.7032 -51.7017 -51.7013 -51.7009 -51.7009 -51.6997 -51.6988 -51.6986
   -51.6981 -51.6966 -51.6927 -51.6910 -51.6900 -51.6895 -51.6892 -51.6871
   -51.6865 -51.6855 -51.6854 -51.6849 -51.6794 -51.6768 -51.6762 -51.6760
   -51.6758 -51.6734 -51.6727 -51.6715 -51.6709 -51.6687 -51.6679 -51.6675
   -18.0889  -9.2300  -7.8660  -7.7457  -7.4343  -7.1698  -7.0718  -6.4494
    -6.3107  -5.9595  -5.8117  -5.2471  -5.1615  -5.1549  -5.1411  -4.8920
    -4.7486  -4.6613  -4.3136  -4.3106  -4.3076  -4.2988  -4.2862  -4.2765
    -4.1895  -4.1822  -4.1788  -4.1742  -4.1112  -4.0968  -3.7603  -3.7598
    -3.7475  -3.7443  -3.7191  -3.7004  -3.5376  -3.5191  -3.2874  -3.2812
    -3.2542  -3.2352  -3.2298  -3.2140  -3.1858  -3.1779  -3.1563  -3.1368
    -3.1272  -3.1060  -2.9889  -2.9871  -2.9736  -2.9717  -2.9650  -2.9151
    -2.7243  -2.7054  -2.7025  -2.6972  -2.6902  -2.6782  -2.4814  -2.4486
    -2.4330  -2.4229  -2.3781  -2.3718  -2.2834  -2.2652  -2.2057  -2.1925
    -2.1898  -2.1796  -2.1724  -2.1694  -2.1620  -2.1602  -2.1568  -2.1565
    -2.0851  -2.0747  -2.0691  -2.0623  -2.0609  -2.0563  -2.0536  -2.0465
    -2.0434  -2.0368  -2.0364  -1.9702  -1.8479  -1.8367  -1.8196  -1.8157
    -1.7176  -1.7048  -1.7047  -1.6992  -1.6818  -1.6758  -1.6609  -1.6502
    -1.6500  -1.6372  -1.6218  -1.6202  -1.6192  -1.6137  -1.6101  -1.6008
    -1.5928  -1.5919  -1.5792  -1.5684  -1.5627  -1.5609  -1.5561  -1.5536
    -1.5515  -1.5482  -1.5472  -1.5350  -1.5175  -1.5054  -1.5033  -1.4791
    -1.4698  -1.4642  -1.4542  -1.4517  -1.4510  -1.4474  -1.4431  -1.4407
    -1.4372  -1.4269  -1.4210  -1.3847  -1.3743  -1.3610  -1.2490  -1.2414
    -1.1896  -1.1891  -1.1889  -1.1861  -1.1726  -1.1533  -1.1443  -1.1197
    -1.1100  -1.0978  -1.0795  -1.0292  -1.0066  -0.9934  -0.9743  -0.9596
    -0.9531  -0.9528  -0.9472  -0.9264  -0.9249  -0.9191  -0.8994  -0.8454
    -0.7693  -0.7625  -0.7401  -0.7377  -0.7303  -0.7112  -0.6806  -0.6727
    -0.6591  -0.6516  -0.6459  -0.6348  -0.5905  -0.5535  -0.5402  -0.5399
    -0.5325  -0.5275  -0.5261  -0.5242  -0.5020  -0.2791  -0.2574  -0.1991
    -0.1729  -0.1474  -0.1339  -0.0948  -0.0287   0.0837   0.1188   0.1223
     0.1268   0.1410   0.1772   0.1912   0.2360   0.2719   0.2748   0.2788
     0.2924   0.3148   0.3261   0.3556   0.3680   0.3771   0.4093   0.4133
     0.4155   0.4482   0.4596   0.5018   0.5348   0.5443   0.5643   0.5806
     0.5925   0.6089   0.6257   0.6298   0.6309   0.6340   0.6385   0.6500
     0.6537   0.6563   0.6780   0.6791   0.7173   0.7202   0.7221   0.7672
     0.7796   0.7859   0.8026   0.8356   0.8378   0.8487   0.8788   0.9016
     0.9146   0.9335   0.9615   0.9700   1.0170   1.0321   1.0538   1.0561
     1.0592   1.0644   1.0677   1.0775   1.0793   1.0809   1.0904   1.1009
     1.1063   1.1083   1.1175   1.1204   1.1236   1.1313   1.1408   1.1442
     1.1630   1.1804   1.1861   1.1899   1.1984   1.2034   1.2042   1.2050
     1.2188   1.2220   1.2251   1.2322   1.2408   1.2508   1.2637   1.2654
     1.2668   1.2851   1.2884   1.2922   1.2932   1.3025   1.3029   1.3059
     1.3084   1.3106   1.3115   1.3200   1.3469   1.3503   1.4077   1.4195
     1.4316   1.4325   1.4398   1.4437   1.4600   1.4722   1.4822   1.4850
     1.4877   1.4943   1.4976   1.4981   1.5007   1.5009   1.5040   1.5075
     1.5090   1.5103   1.5128   1.5155   1.5276   1.5310   1.5371   1.5590
     1.5667   1.5745   1.5750   1.5816   1.5914   1.5934   1.5964   1.6024
     1.6086   1.6109   1.6400   1.6832   1.6840   1.6856   1.6937   1.6958
     1.7070   1.7289   1.8939   1.9144   2.0012   2.0318   2.0987   2.1041
     2.1127   2.1177   2.1236   2.1411   2.1712   2.1719   2.1959   2.1967
     2.2110   2.2113   2.2487

     the Fermi energy is    -0.6353 ev

!    total energy              =  -21094.94842282 Ry
     estimated scf accuracy    <          8.2E-11 Ry
     smearing contrib. (-TS)   =       0.00077559 Ry
     internal energy E=F+TS    =  -21094.94919842 Ry

     The total energy is F=E-TS. E is the sum of the following terms:
     one-electron contribution = -743629.55707479 Ry
     hartree contribution      =  371786.28023096 Ry
     xc contribution           =   -2235.08572010 Ry
     ewald contribution        =  357858.24105079 Ry
     Dispersion Correction     =      -1.39428884 Ry
     one-center paw contrib.   =   -4873.43339643 Ry

     total magnetization       =   162.03 Bohr mag/cell
     absolute magnetization    =   168.70 Bohr mag/cell

     convergence has been achieved in  14 iterations

     negative rho (up, down):  1.127E-02 1.560E-02

     Forces acting on atoms (cartesian axes, Ry/au):

     atom    1 type  1   force =     0.00018737    0.00006400    0.00948040
     atom    2 type  1   force =    -0.00082620    0.00117866   -0.00482042
     atom    3 type  1   force =     0.00027909    0.00005594    0.00924123
     atom    4 type  1   force =    -0.00057668   -0.00000172   -0.01034073
     atom    5 type  1   force =    -0.00002370   -0.00000428   -0.00002369
     atom    6 type  1   force =     0.00000355   -0.00000558    0.00000438
     atom    7 type  1   force =    -0.00000127   -0.00002580   -0.00006635
     atom    8 type  1   force =     0.00002703    0.00000460    0.00000682
     atom    9 type  1   force =     0.00000541    0.00000889    0.00946140
     atom   10 type  1   force =    -0.00009630   -0.00008009    0.00876838
     atom   11 type  1   force =     0.00018293   -0.00035833   -0.01032571
     atom   12 type  1   force =    -0.00039088   -0.00019303   -0.00947033
     atom   13 type  1   force =    -0.00000215   -0.00000022   -0.00002513
     atom   14 type  1   force =     0.00001311    0.00000675   -0.00005154
     atom   15 type  1   force =    -0.00001120   -0.00000914    0.00004125
     atom   16 type  1   force =    -0.00002790   -0.00002391    0.00002681
     atom   17 type  1   force =     0.00015543    0.00021532    0.00921267
     atom   18 type  1   force =    -0.00016520   -0.00053198   -0.01037982
     atom   19 type  1   force =    -0.00025741   -0.00007463    0.00920427
     atom   20 type  1   force =     0.00003425   -0.00003760   -0.00697932
     atom   21 type  1   force =    -0.00002392    0.00000937   -0.00006880
     atom   22 type  1   force =     0.00000967    0.00002016    0.00001322
     atom   23 type  1   force =    -0.00000094    0.00002434   -0.00006794
     atom   24 type  1   force =    -0.00008051    0.00010908    0.00012751
     atom   25 type  1   force =     0.00000617   -0.00000729    0.00858444
     atom   26 type  1   force =     0.00006168   -0.00008994    0.00904850
     atom   27 type  1   force =     0.00010705   -0.00003308   -0.01080586
     atom   28 type  1   force =     0.00028451   -0.00028099   -0.01032209
     atom   29 type  1   force =     0.00000050   -0.00000115   -0.00014323
     atom   30 type  1   force =     0.00000222   -0.00000296   -0.00011959
     atom   31 type  1   force =     0.00007160    0.00004418    0.00006420
     atom   32 type  1   force =     0.00001091    0.00000708    0.00004028
     atom   33 type  1   force =    -0.00019135   -0.00006263    0.00953820
     atom   34 type  1   force =     0.00055665   -0.00001410   -0.01037523
     atom   35 type  1   force =     0.00012464    0.00015696    0.00954595
     atom   36 type  1   force =     0.00074040   -0.00105339   -0.00483289
     atom   37 type  1   force =     0.00002516    0.00000322   -0.00001912
     atom   38 type  1   force =    -0.00002184   -0.00000254    0.00001410
     atom   39 type  1   force =    -0.00001167   -0.00002368   -0.00001915
     atom   40 type  1   force =    -0.00000166    0.00000187   -0.00000478
     atom   41 type  1   force =    -0.00001130    0.00001868    0.00698699
     atom   42 type  1   force =    -0.00006132    0.00008064    0.00910231
     atom   43 type  1   force =     0.00030714    0.00031686   -0.00946028
     atom   44 type  1   force =    -0.00024033    0.00036220   -0.01031275
     atom   45 type  1   force =     0.00000094   -0.00000224   -0.00007830
     atom   46 type  1   force =     0.00000010   -0.00000068   -0.00012274
     atom   47 type  1   force =     0.00003015    0.00002093    0.00002659
     atom   48 type  1   force =     0.00001328    0.00000878    0.00004278
     atom   49 type  1   force =    -0.00014478   -0.00024523    0.00925136
     atom   50 type  1   force =     0.00002604   -0.00004270   -0.00696624
     atom   51 type  1   force =    -0.00012283   -0.00015584    0.00948505
     atom   52 type  1   force =     0.00019018    0.00055830   -0.01034115
     atom   53 type  1   force =     0.00002416   -0.00000806   -0.00006482
     atom   54 type  1   force =     0.00008335   -0.00011982    0.00012267
     atom   55 type  1   force =     0.00001126    0.00002096   -0.00002485
     atom   56 type  1   force =    -0.00001294   -0.00002558    0.00000812
     atom   57 type  1   force =    -0.00001064   -0.00000212    0.00947558
     atom   58 type  1   force =     0.00010979    0.00006349    0.00876486
     atom   59 type  1   force =    -0.00026431    0.00034915   -0.01032136
     atom   60 type  1   force =    -0.00000859   -0.00010070   -0.01081215
     atom   61 type  1   force =     0.00000004    0.00000087   -0.00002540
     atom   62 type  1   force =    -0.00001046   -0.00001011   -0.00005163
     atom   63 type  1   force =    -0.00001125   -0.00000970    0.00004585
     atom   64 type  1   force =    -0.00006384   -0.00005362    0.00006677
     atom   65 type  2   force =     0.00008863    0.00005871    0.00004438
     atom   66 type  3   force =     0.00001422    0.00000331    0.00010387
     atom   67 type  3   force =    -0.00011526   -0.00007887    0.00018876

     Total force =     0.000526     Total SCF correction =     0.000055
     SCF correction compared to forces is large: reduce conv_thr to get better values
     Energy error            =      4.2E-07
     Gradient error          =      1.9E-04

     bfgs converged in  12 scf cycles and  11 bfgs steps
     (criteria: energy <  7.3E-07 Ry, force <  3.9E-04 Ry/Bohr)

     End of BFGS Geometry Optimization

     Final energy   =  -21094.9484228227 Ry

     File ./Fe_NH2_paper_480c_ESM_p5.bfgs deleted, as requested
Begin final coordinates

ATOMIC_POSITIONS (angstrom)
Fe            1.6549129530        1.1702001330        0.0000000000    0   0   0
Fe            0.0000000000        0.0000000000        2.0269842320    0   0   0
Fe            4.9647388580        3.5106003990        0.0000000000    0   0   0
Fe            3.3098259060        2.3404002660        2.0269842320    0   0   0
Fe            1.6478728222        1.1672235871        4.0292420751
Fe            3.3026928067        9.3717760079        6.0118384063
Fe            4.9591402343        3.5150813551        4.0148136681
Fe            3.3018667473        2.3324929350        6.0139551305
Fe            2.4823638580        3.5106003990        0.0000000000    0   0   0
Fe            4.1372879530        1.1702001330        0.0000000000    0   0   0
Fe            0.8274509060        2.3404002660        2.0269842320    0   0   0
Fe            2.4823750000        0.0000000000        2.0269842320    0   0   0
Fe            2.4824511250        3.5107069173        4.0313369298
Fe            4.1288247282        1.1642084617        4.0224818891
Fe            0.8163591712        2.3464296881        6.0008063268
Fe            2.4778510661       -0.0028899735        6.0226202023
Fe            6.6196629530        1.1702001330        0.0000000000    0   0   0
Fe            4.9647500000        0.0000000000        2.0269842320    0   0   0
Fe            9.9294888580        3.5106003990        0.0000000000    0   0   0
Fe            8.2745759060        2.3404002660        2.0269842320    0   0   0
Fe            6.6219833634        1.1633292271        4.0149309017
Fe            4.9544137630       -0.0051481602        6.0138317427
Fe            9.9353102257        3.5061677587        4.0149023374
Fe            8.2820316598        2.3302728780        6.0869760344
Fe            7.4471138580        3.5106003990        0.0000000000    0   0   0
Fe            9.1020379530        1.1702001330        0.0000000000    0   0   0
Fe            5.7922009060        2.3404002660        2.0269842320    0   0   0
Fe            7.4471250000        0.0000000000        2.0269842320    0   0   0
Fe            7.4472751066        3.5104831350        4.0474429970
Fe            9.0921102485        1.1842963448        4.0507357794
Fe            5.7372431003        2.3015023459        5.9375020260
Fe           10.7550974673        9.3743007245        6.0009005776
Fe            3.3098147640        5.8510006640        0.0000000000    0   0   0
Fe            1.6549018110        4.6808005310        2.0269842320    0   0   0
Fe            6.6196406700        8.1914009300        0.0000000000    0   0   0
Fe            4.9647277170        7.0212007970        2.0269842320    0   0   0
Fe            3.3167486621        5.8542798415        4.0292662251
Fe           11.5928363316        4.6889346722        6.0138212135
Fe            6.6142945487        8.1860429113        4.0292181630
Fe            4.9714718310        7.0117384089        6.0120113293
Fe            4.1372656700        8.1914009300        0.0000000000    0   0   0
Fe            5.7921897640        5.8510006640        0.0000000000    0   0   0
Fe            2.4823527170        7.0212007970        2.0269842320    0   0   0
Fe            4.1372768110        4.6808005310        2.0269842320    0   0   0
Fe            4.1370999097        8.1916900535        4.0352086059
Fe            5.8019730929        5.8372534709        4.0507478634
Fe           12.4161745237        7.0245993880        6.0226333464
Fe            4.1489011129        4.6750697031        6.0009496688
Fe            8.2745647640        5.8510006640        0.0000000000    0   0   0
Fe            6.6196518110        4.6808005310        2.0269842320    0   0   0
Fe           11.5843906700        8.1914009300        0.0000000000    0   0   0
Fe            9.9294777170        7.0212007970        2.0269842320    0   0   0
Fe            8.2723204410        5.8578475931        4.0147659721
Fe            6.6130804430        4.6903969609        6.0866138477
Fe           11.5896030059        8.1971038761        4.0292699753
Fe            9.9396800739        7.0262298110        6.0139411340
Fe            9.1020156700        8.1914009300        0.0000000000    0   0   0
Fe           10.7569397640        5.8510006640        0.0000000000    0   0   0
Fe            7.4471027170        7.0212007970        2.0269842320    0   0   0
Fe            9.1020268110        4.6808005310        2.0269842320    0   0   0
Fe            9.1019644350        8.1914535304        4.0313115281
Fe           10.7655151787        5.8570304702        4.0224888535
Fe            7.4487111989        7.0085174927        6.0008442363
Fe            9.1571831839        4.7198103602        5.9374324105
N             7.4482040820        3.5111022926        7.4806471003
H             8.1157375927        3.9836321964        8.1040260214
H             6.7807549122        3.0392371210        8.1044328382
End final coordinates



     Writing output data file ./Fe_NH2_paper_480c_ESM_p5.save/

     init_run     :     31.50s CPU     32.75s WALL (       1 calls)
     electrons    :  28098.92s CPU  28585.14s WALL (      12 calls)
     update_pot   :     63.52s CPU     63.86s WALL (      11 calls)
     forces       :    214.02s CPU    217.57s WALL (      12 calls)

     Called by init_run:
     wfcinit      :     21.47s CPU     22.42s WALL (       1 calls)
     potinit      :      2.82s CPU      2.91s WALL (       1 calls)
     hinit0       :      5.08s CPU      5.19s WALL (       1 calls)

     Called by electrons:
     c_bands      :  23205.83s CPU  23600.41s WALL (     283 calls)
     sum_band     :   1368.07s CPU   1418.56s WALL (     283 calls)
     v_of_rho     :    237.63s CPU    240.58s WALL (     284 calls)
     newd         :     49.79s CPU     50.33s WALL (     284 calls)
     PAW_pot      :     55.51s CPU     55.99s WALL (     295 calls)
     mix_rho      :   1022.93s CPU   1041.16s WALL (     283 calls)

     Called by c_bands:
     init_us_2    :    127.35s CPU    135.47s WALL (    1770 calls)
     cegterg      :  20230.49s CPU  20503.83s WALL (     849 calls)

     Called by *egterg:
     cdiaghg      :   5570.69s CPU   5609.01s WALL (    6440 calls)
     h_psi        :   6288.98s CPU   6391.24s WALL (    6509 calls)
     s_psi        :   1656.32s CPU   1667.41s WALL (    6509 calls)
     g_psi        :     28.80s CPU     29.22s WALL (    5657 calls)

     Called by h_psi:
     h_psi:calbec :   1805.24s CPU   1817.37s WALL (    6509 calls)
     vloc_psi     :   2778.86s CPU   2810.99s WALL (    6509 calls)
     add_vuspsi   :   1649.41s CPU   1660.36s WALL (    6509 calls)

     General routines
     calbec       :   2576.99s CPU   2593.99s WALL (    7535 calls)
     fft          :    158.89s CPU    160.51s WALL (    7289 calls)
     ffts         :    460.18s CPU    464.36s WALL (  175004 calls)
     fftw         :   3032.34s CPU   3067.57s WALL ( 3381017 calls)
     interpolate  :     18.69s CPU     18.89s WALL (     568 calls)
     davcio       :      1.12s CPU    132.05s WALL (    7518 calls)

     Parallel routines
     fft_scatt_xy :    419.53s CPU    423.94s WALL ( 3563310 calls)
     fft_scatt_yz :   1699.92s CPU   1720.21s WALL ( 3563310 calls)

     PWSCF        :      7h54m CPU      8h 2m WALL


   This run was terminated on:   3:32:35  17Jun2022            

=------------------------------------------------------------------------------=
   JOB DONE.
=------------------------------------------------------------------------------=
