     Message from routine get_command_line:
     unexpected argument # 4     :-in

     Program PWSCF v.6.7MaX starts on  8Jul2022 at 18:28:11 

     This program is part of the open-source Quantum ESPRESSO suite
     for quantum simulation of materials; please cite
         "P. Giannozzi et al., J. Phys.:Condens. Matter 21 395502 (2009);
         "P. Giannozzi et al., J. Phys.:Condens. Matter 29 465901 (2017);
          URL http://www.quantum-espresso.org", 
     in publications or presentations arising from this work. More details at
     http://www.quantum-espresso.org/quote

     Parallel version (MPI), running on   120 processors

     MPI processes distributed on     1 nodes
     K-points division:     npool     =       8
     R & G space division:  proc/nbgrp/npool/nimage =      15
     Waiting for input...
     Reading input from standard input
Warning: card &CELL ignored
Warning: card / ignored

     Current dimensions of program PWSCF are:
     Max number of different atomic species (ntypx) = 10
     Max number of k-points (npk) =  40000
     Max angular momentum in pseudopotentials (lmaxx) =  3

     IMPORTANT: XC functional enforced from input :
     Exchange-correlation= PBE
                           (   1   4   3   4   0   0   0)
     Any further DFT definition will be discarded
     Please, verify this is what you really want


     -------------------------------------------------
     Parameters for Dispersion (Grimme-D2) Correction:
     -------------------------------------------------
       atom      VdW radius       C_6     

        N          2.640         42.670

     Subspace diagonalization in iterative solution of the eigenvalue problem:
     one sub-group per band group will be used
     scalapack distributed-memory algorithm (size of sub-group:  3*  3 procs)


     Parallelization info
     --------------------
     sticks:   dense  smooth     PW     G-vecs:    dense   smooth      PW
     Min        3636    1818    468               639190   225950   29545
     Max        3637    1819    470               639197   225953   29547
     Sum       54553   27281   7033              9587919  3389267  443191



     bravais-lattice index     =            0
     lattice parameter (alat)  =      37.7945  a.u.
     unit-cell volume          =   53986.6760 (a.u.)^3
     number of atoms/cell      =            1
     number of atomic types    =            1
     number of electrons       =         5.00
     number of Kohn-Sham states=            7
     kinetic-energy cutoff     =      60.0000  Ry
     charge density cutoff     =     480.0000  Ry
     scf convergence threshold =      1.0E-08
     mixing beta               =       0.7000
     number of iterations used =           10  plain     mixing
     energy convergence thresh.=      7.3E-07
     force convergence thresh. =      3.9E-04
     Exchange-correlation= PBE
                           (   1   4   3   4   0   0   0)
     nstep                     =           50


     Effective Screening Medium Method
     =================================
     Boundary Conditions: Metal-Slab-Metal
     field strength                   =     0.00 Ry/a.u.
     grid points for fit at edges     =        4 


     celldm(1)=  37.794522  celldm(2)=   0.000000  celldm(3)=   0.000000
     celldm(4)=   0.000000  celldm(5)=   0.000000  celldm(6)=   0.000000

     crystal axes: (cart. coord. in units of alat)
               a(1) = (   1.000000   0.000000   0.000000 )  
               a(2) = (   0.000000   1.000000   0.000000 )  
               a(3) = (   0.000000   0.000000   1.000000 )  

     reciprocal axes: (cart. coord. in units 2 pi/alat)
               b(1) = (  1.000000  0.000000  0.000000 )  
               b(2) = (  0.000000  1.000000  0.000000 )  
               b(3) = (  0.000000  0.000000  1.000000 )  


     PseudoPot. # 1 for N  read from file:
     ../../SSSP/N.pbe-n-radius_5.UPF
     MD5 check sum: 16739722b17309cd8fe442a2ace49922
     Pseudo is Ultrasoft + core correction, Zval =  5.0
     Generated using "atomic" code by A. Dal Corso  v.5.1
     Using radial grid of 1085 points,  4 beta functions with: 
                l(1) =   0
                l(2) =   0
                l(3) =   1
                l(4) =   1
     Q(r) pseudized with 0 coefficients 


     atomic species   valence    mass     pseudopotential
        N              5.00    14.00700     N ( 1.00)

     Starting magnetic structure 
     atomic species   magnetization
        N            0.100

     No symmetry found



   Cartesian axes

     site n.     atom                  positions (alat units)
         1           N   tau(   1) = (   0.5000000   0.5000000   0.0000000  )

     number of k points=    10  Methfessel-Paxton smearing, width (Ry)=  0.0100
                       cart. coord. in units 2pi/alat
        k(    1) = (   0.0000000   0.0000000   0.0000000), wk =   0.0625000
        k(    2) = (   0.0000000   0.2500000   0.0000000), wk =   0.1250000
        k(    3) = (   0.0000000  -0.5000000   0.0000000), wk =   0.0625000
        k(    4) = (   0.2500000   0.0000000   0.0000000), wk =   0.1250000
        k(    5) = (   0.2500000   0.2500000   0.0000000), wk =   0.1250000
        k(    6) = (   0.2500000  -0.5000000   0.0000000), wk =   0.1250000
        k(    7) = (   0.2500000  -0.2500000   0.0000000), wk =   0.1250000
        k(    8) = (  -0.5000000   0.0000000   0.0000000), wk =   0.0625000
        k(    9) = (  -0.5000000   0.2500000   0.0000000), wk =   0.1250000
        k(   10) = (  -0.5000000  -0.5000000   0.0000000), wk =   0.0625000

     Dense  grid:  9587919 G-vectors     FFT dimensions: ( 270, 270, 270)

     Smooth grid:  3389267 G-vectors     FFT dimensions: ( 192, 192, 192)

     Estimated max dynamical RAM per process >     364.64 MB

     Estimated total dynamical RAM >      42.73 GB
     Generating pointlists ...
     new r_m :   0.4125 (alat units) 15.5902 (a.u.) for type    1

     Initial potential from superposition of free atoms

     starting charge    4.99999, renormalised to    5.00000

     negative rho (up, down):  9.787E-05 8.007E-05
     Starting wfcs are    4 randomized atomic wfcs +    3 random wfcs

     total cpu time spent up to now is       39.1 secs

     Self-consistent Calculation

     iteration #  1     ecut=    60.00 Ry     beta= 0.70
     CG style diagonalization
     c_bands:  1 eigenvalues not converged
     c_bands:  2 eigenvalues not converged
     c_bands:  2 eigenvalues not converged
     ethr =  1.00E-04,  avg # of iterations =  9.5

     negative rho (up, down):  2.498E-04 3.010E-05

     total cpu time spent up to now is       87.2 secs

     total energy              =     -19.79485360 Ry
     estimated scf accuracy    <       0.07578240 Ry

     total magnetization       =     3.00 Bohr mag/cell
     absolute magnetization    =     3.00 Bohr mag/cell

     iteration #  2     ecut=    60.00 Ry     beta= 0.70
     CG style diagonalization
     ethr =  1.52E-03,  avg # of iterations =  3.0

     negative rho (up, down):  3.229E-04 9.976E-05

     total cpu time spent up to now is      113.0 secs

     total energy              =     -19.81612543 Ry
     estimated scf accuracy    <       0.01091193 Ry

     total magnetization       =     3.00 Bohr mag/cell
     absolute magnetization    =     3.00 Bohr mag/cell

     iteration #  3     ecut=    60.00 Ry     beta= 0.70
     CG style diagonalization
     ethr =  2.18E-04,  avg # of iterations =  3.3

     negative rho (up, down):  3.235E-04 8.515E-05

     total cpu time spent up to now is      137.4 secs

     total energy              =     -19.81738436 Ry
     estimated scf accuracy    <       0.00058127 Ry

     total magnetization       =     3.00 Bohr mag/cell
     absolute magnetization    =     3.00 Bohr mag/cell

     iteration #  4     ecut=    60.00 Ry     beta= 0.70
     CG style diagonalization
     ethr =  1.16E-05,  avg # of iterations =  6.3

     negative rho (up, down):  3.324E-04 8.317E-05

     total cpu time spent up to now is      165.2 secs

     total energy              =     -19.81764921 Ry
     estimated scf accuracy    <       0.00002085 Ry

     total magnetization       =     3.00 Bohr mag/cell
     absolute magnetization    =     3.00 Bohr mag/cell

     iteration #  5     ecut=    60.00 Ry     beta= 0.70
     CG style diagonalization
     c_bands:  2 eigenvalues not converged
     c_bands:  1 eigenvalues not converged
     ethr =  4.17E-07,  avg # of iterations =  6.6

     negative rho (up, down):  3.355E-04 8.356E-05

     total cpu time spent up to now is      193.0 secs

     total energy              =     -19.81775318 Ry
     estimated scf accuracy    <       0.00000775 Ry

     total magnetization       =     3.00 Bohr mag/cell
     absolute magnetization    =     3.00 Bohr mag/cell

     iteration #  6     ecut=    60.00 Ry     beta= 0.70
     CG style diagonalization
     ethr =  1.55E-07,  avg # of iterations =  4.8

     negative rho (up, down):  3.354E-04 8.396E-05

     total cpu time spent up to now is      217.6 secs

     total energy              =     -19.81775722 Ry
     estimated scf accuracy    <       0.00000080 Ry

     total magnetization       =     3.00 Bohr mag/cell
     absolute magnetization    =     3.00 Bohr mag/cell

     iteration #  7     ecut=    60.00 Ry     beta= 0.70
     CG style diagonalization
     ethr =  1.60E-08,  avg # of iterations =  3.8

     negative rho (up, down):  3.357E-04 8.394E-05

     total cpu time spent up to now is      240.3 secs

     total energy              =     -19.81775743 Ry
     estimated scf accuracy    <       0.00000023 Ry

     total magnetization       =     3.00 Bohr mag/cell
     absolute magnetization    =     3.00 Bohr mag/cell

     iteration #  8     ecut=    60.00 Ry     beta= 0.70
     CG style diagonalization
     ethr =  4.69E-09,  avg # of iterations =  3.2

     negative rho (up, down):  3.358E-04 8.392E-05

     total cpu time spent up to now is      261.7 secs

     total energy              =     -19.81775743 Ry
     estimated scf accuracy    <       0.00000008 Ry

     total magnetization       =     3.00 Bohr mag/cell
     absolute magnetization    =     3.00 Bohr mag/cell

     iteration #  9     ecut=    60.00 Ry     beta= 0.70
     CG style diagonalization
     ethr =  1.55E-09,  avg # of iterations =  3.1

     negative rho (up, down):  3.359E-04 8.391E-05

     total cpu time spent up to now is      282.7 secs

     total energy              =     -19.81775742 Ry
     estimated scf accuracy    <       0.00000002 Ry

     total magnetization       =     3.00 Bohr mag/cell
     absolute magnetization    =     3.00 Bohr mag/cell

     iteration # 10     ecut=    60.00 Ry     beta= 0.70
     CG style diagonalization
     ethr =  4.46E-10,  avg # of iterations =  3.3

     negative rho (up, down):  3.358E-04 8.391E-05

     Magnetic moment per site:
     atom:    1    charge:    5.0000    magn:    3.0000    constr:    0.0000

     total cpu time spent up to now is      302.7 secs

     End of self-consistent calculation

 ------ SPIN UP ------------


          k = 0.0000 0.0000 0.0000 (423701 PWs)   bands (ev):

   -19.1052  -7.5178  -7.5178  -7.5178   0.3219   0.5526   0.7658

          k = 0.0000 0.2500 0.0000 (423725 PWs)   bands (ev):

   -19.1052  -7.5178  -7.5178  -7.5178   0.3375   0.5283   0.6592

          k = 0.0000-0.5000 0.0000 (423542 PWs)   bands (ev):

   -19.1052  -7.5178  -7.5178  -7.5178   0.3596   0.4883   0.6403

          k = 0.2500 0.0000 0.0000 (423725 PWs)   bands (ev):

   -19.1052  -7.5178  -7.5178  -7.5178   0.3377   0.5284   0.6574

          k = 0.2500 0.2500 0.0000 (423766 PWs)   bands (ev):

   -19.1052  -7.5178  -7.5178  -7.5178   0.3516   0.5312   0.6222

          k = 0.2500-0.5000 0.0000 (423782 PWs)   bands (ev):

   -19.1052  -7.5178  -7.5178  -7.5178   0.3711   0.5123   0.6141

          k = 0.2500-0.2500 0.0000 (423766 PWs)   bands (ev):

   -19.1052  -7.5178  -7.5178  -7.5178   0.3517   0.5305   0.6260

          k =-0.5000 0.0000 0.0000 (423542 PWs)   bands (ev):

   -19.1052  -7.5178  -7.5178  -7.5178   0.3597   0.4881   0.6400

          k =-0.5000 0.2500 0.0000 (423782 PWs)   bands (ev):

   -19.1052  -7.5178  -7.5178  -7.5178   0.3713   0.5117   0.6122

          k =-0.5000-0.5000 0.0000 (423708 PWs)   bands (ev):

   -19.1052  -7.5178  -7.5178  -7.5178   0.3847   0.5762   0.5887

 ------ SPIN DOWN ----------


          k = 0.0000 0.0000 0.0000 (423701 PWs)   bands (ev):

   -14.2870  -3.0986  -3.0984  -3.0984   0.3996   0.7671   0.7832

          k = 0.0000 0.2500 0.0000 (423725 PWs)   bands (ev):

   -14.2870  -3.0986  -3.0984  -3.0984   0.4238   0.6127   0.7999

          k = 0.0000-0.5000 0.0000 (423542 PWs)   bands (ev):

   -14.2870  -3.0985  -3.0984  -3.0984   0.4840   0.5038   0.8805

          k = 0.2500 0.0000 0.0000 (423725 PWs)   bands (ev):

   -14.2870  -3.0986  -3.0984  -3.0984   0.4232   0.6123   0.8044

          k = 0.2500 0.2500 0.0000 (423766 PWs)   bands (ev):

   -14.2870  -3.0986  -3.0984  -3.0984   0.4461   0.6308   0.6414

          k = 0.2500-0.5000 0.0000 (423782 PWs)   bands (ev):

   -14.2870  -3.0986  -3.0984  -3.0984   0.5096   0.5283   0.7059

          k = 0.2500-0.2500 0.0000 (423766 PWs)   bands (ev):

   -14.2870  -3.0986  -3.0984  -3.0984   0.4461   0.6309   0.6416

          k =-0.5000 0.0000 0.0000 (423542 PWs)   bands (ev):

   -14.2870  -3.0985  -3.0984  -3.0984   0.4849   0.5041   0.8651

          k =-0.5000 0.2500 0.0000 (423782 PWs)   bands (ev):

   -14.2870  -3.0986  -3.0984  -3.0984   0.5082   0.5284   0.7139

          k =-0.5000-0.5000 0.0000 (423708 PWs)   bands (ev):

   -14.2870  -3.0986  -3.0984  -3.0984   0.5659   0.5940   0.6019

     the Fermi energy is    -3.9799 ev

!    total energy              =     -19.81775743 Ry
     estimated scf accuracy    <          6.6E-10 Ry
     smearing contrib. (-TS)   =       0.00000000 Ry
     internal energy E=F+TS    =     -19.81775743 Ry

     The total energy is F=E-TS. E is the sum of the following terms:
     one-electron contribution =     -29.92538370 Ry
     hartree contribution      =      16.03365551 Ry
     xc contribution           =      -5.11418488 Ry
     ewald contribution        =      -0.81184431 Ry
     Dispersion Correction     =      -0.00000005 Ry

     total magnetization       =     3.00 Bohr mag/cell
     absolute magnetization    =     3.00 Bohr mag/cell

     convergence has been achieved in  10 iterations

     negative rho (up, down):  3.358E-04 8.391E-05

     Forces acting on atoms (cartesian axes, Ry/au):

     atom    1 type  1   force =     0.00000000    0.00000000   -0.00000029

     Total force =     0.000000     Total SCF correction =     0.000000

     BFGS Geometry Optimization
     Energy error            =      0.0E+00
     Gradient error          =      0.0E+00

     bfgs converged in   1 scf cycles and   0 bfgs steps
     (criteria: energy <  7.3E-07 Ry, force <  3.9E-04 Ry/Bohr)

     End of BFGS Geometry Optimization

     Final energy   =     -19.8177574282 Ry
Begin final coordinates

ATOMIC_POSITIONS (angstrom)
N            10.0000000000       10.0000000000        0.0000000000    0   0   0
End final coordinates



     Writing output data file ./N_ESM_std.save/

     init_run     :     35.05s CPU     38.62s WALL (       1 calls)
     electrons    :    241.60s CPU    265.10s WALL (       1 calls)
     forces       :      9.73s CPU     10.65s WALL (       1 calls)

     Called by init_run:
     wfcinit      :      3.24s CPU      3.48s WALL (       1 calls)
     potinit      :     14.03s CPU     16.35s WALL (       1 calls)
     hinit0       :      2.03s CPU      2.28s WALL (       1 calls)

     Called by electrons:
     c_bands      :     91.38s CPU     93.00s WALL (      10 calls)
     sum_band     :     26.20s CPU     27.49s WALL (      10 calls)
     v_of_rho     :     98.77s CPU    113.15s WALL (      11 calls)
     newd         :      9.86s CPU     10.46s WALL (      11 calls)
     mix_rho      :     15.92s CPU     21.73s WALL (      10 calls)

     Called by c_bands:
     init_us_2    :      0.31s CPU      0.33s WALL (      66 calls)
     ccgdiagg     :     72.22s CPU     73.04s WALL (      30 calls)
     wfcrot       :     17.64s CPU     17.86s WALL (      30 calls)

     Called by *cgdiagg:
     h_psi        :     79.85s CPU     80.78s WALL (     857 calls)
     s_psi        :      1.10s CPU      1.12s WALL (    1684 calls)

     Called by h_psi:
     h_psi:calbec :      2.74s CPU      2.77s WALL (     857 calls)
     vloc_psi     :     75.13s CPU     76.00s WALL (     857 calls)
     add_vuspsi   :      1.73s CPU      1.76s WALL (     857 calls)
     hs_1psi      :     63.84s CPU     64.59s WALL (     827 calls)
     s_1psi       :      2.49s CPU      2.52s WALL (     827 calls)

     General routines
     calbec       :      5.17s CPU      5.23s WALL (    1726 calls)
     fft          :    107.71s CPU    111.13s WALL (     288 calls)
     ffts         :      4.69s CPU      4.74s WALL (      42 calls)
     fftw         :     74.32s CPU     75.13s WALL (    2284 calls)
     interpolate  :      9.25s CPU      9.93s WALL (      22 calls)
     davcio       :      0.04s CPU      3.77s WALL (     205 calls)

     Parallel routines
     fft_scatt_xy :     19.38s CPU     19.70s WALL (    2614 calls)
     fft_scatt_yz :    105.44s CPU    106.73s WALL (    2614 calls)

     PWSCF        :   4m47.47s CPU   5m16.47s WALL


   This run was terminated on:  18:33:28   8Jul2022            

=------------------------------------------------------------------------------=
   JOB DONE.
=------------------------------------------------------------------------------=
