
     Program PWSCF v.6.4.1 starts on  8Jun2022 at 23:42:10 

     This program is part of the open-source Quantum ESPRESSO suite
     for quantum simulation of materials; please cite
         "P. Giannozzi et al., J. Phys.:Condens. Matter 21 395502 (2009);
         "P. Giannozzi et al., J. Phys.:Condens. Matter 29 465901 (2017);
          URL http://www.quantum-espresso.org", 
     in publications or presentations arising from this work. More details at
     http://www.quantum-espresso.org/quote

     Parallel version (MPI), running on   160 processors

     MPI processes distributed on     8 nodes
     K-points division:     npool     =       8
     R & G space division:  proc/nbgrp/npool/nimage =      20
     Waiting for input...
     Reading input from standard input
Warning: card &CELL ignored
Warning: card / ignored

     Current dimensions of program PWSCF are:
     Max number of different atomic species (ntypx) = 10
     Max number of k-points (npk) =  40000
     Max angular momentum in pseudopotentials (lmaxx) =  3

     IMPORTANT: XC functional enforced from input :
     Exchange-correlation      = PBE ( 1  4  3  4 0 0)
     Any further DFT definition will be discarded
     Please, verify this is what you really want

               file Fe.pbe-spn-kjpaw_psl.0.2.1.UPF: wavefunction(s)  3D renormalized

     -------------------------------------------------
     Parameters for Dispersion (Grimme-D2) Correction:
     -------------------------------------------------
       atom      VdW radius       C_6     

        Fe         2.952        374.666
        N          2.640         42.670
        H          1.892          4.857

     Subspace diagonalization in iterative solution of the eigenvalue problem:
     one sub-group per band group will be used
     scalapack distributed-memory algorithm (size of sub-group:  3*  3 procs)


     Parallelization info
     --------------------
     sticks:   dense  smooth     PW     G-vecs:    dense   smooth      PW
     Min         634     317     83               145278    51361    6989
     Max         635     318     84               145287    51370    7000
     Sum       12685    6351   1677              2905599  1027285  139897



     bravais-lattice index     =            0
     lattice parameter (alat)  =      18.7640  a.u.
     unit-cell volume          =   16360.3163 (a.u.)^3
     number of atoms/cell      =           68
     number of atomic types    =            3
     number of electrons       =      1032.00
     number of Kohn-Sham states=          619
     kinetic-energy cutoff     =      60.0000  Ry
     charge density cutoff     =     480.0000  Ry
     convergence threshold     =      1.0E-08
     mixing beta               =       0.2000
     number of iterations used =           10  local-TF  mixing
     Exchange-correlation      = PBE ( 1  4  3  4 0 0)
     nstep                     =           50


     Effective Screening Medium Method
     =================================
     Boundary Conditions: Metal-Slab-Metal
     field strength                   =     0.01 Ry/a.u.
     grid points for fit at edges     =        4 


     celldm(1)=  18.764036  celldm(2)=   0.000000  celldm(3)=   0.000000
     celldm(4)=   0.000000  celldm(5)=   0.000000  celldm(6)=   0.000000

     crystal axes: (cart. coord. in units of alat)
               a(1) = (   1.000000   0.000000   0.000000 )  
               a(2) = (   0.333330   0.942807   0.000000 )  
               a(3) = (   0.000000   0.000000   2.626577 )  

     reciprocal axes: (cart. coord. in units 2 pi/alat)
               b(1) = (  1.000000 -0.353551  0.000000 )  
               b(2) = (  0.000000  1.060663  0.000000 )  
               b(3) = (  0.000000  0.000000  0.380724 )  


     PseudoPot. # 1 for Fe read from file:
     ../../SSSP/Fe.pbe-spn-kjpaw_psl.0.2.1.UPF
     MD5 check sum: e86618425769142926afa95317d90200
     Pseudo is Projector augmented-wave + core cor, Zval = 16.0
     Generated using "atomic" code by A. Dal Corso v.5.0.99 svn rev. 10869
     Shape of augmentation charge: PSQ
     Using radial grid of 1191 points,  6 beta functions with: 
                l(1) =   0
                l(2) =   0
                l(3) =   1
                l(4) =   1
                l(5) =   2
                l(6) =   2
     Q(r) pseudized with 0 coefficients 


     PseudoPot. # 2 for N  read from file:
     ../../SSSP/N.pbe-n-radius_5.UPF
     MD5 check sum: 16739722b17309cd8fe442a2ace49922
     Pseudo is Ultrasoft + core correction, Zval =  5.0
     Generated using "atomic" code by A. Dal Corso v.5.1
     Using radial grid of 1085 points,  4 beta functions with: 
                l(1) =   0
                l(2) =   0
                l(3) =   1
                l(4) =   1
     Q(r) pseudized with 0 coefficients 


     PseudoPot. # 3 for H  read from file:
     ../../SSSP/H.pbe-rrkjus_psl.1.0.0.UPF
     MD5 check sum: f52b6d4d1c606e5624b1dc7b2218f220
     Pseudo is Ultrasoft, Zval =  1.0
     Generated using "atomic" code by A. Dal Corso v.5.1
     Using radial grid of  929 points,  2 beta functions with: 
                l(1) =   0
                l(2) =   0
     Q(r) pseudized with 0 coefficients 


     atomic species   valence    mass     pseudopotential
        Fe            16.00    55.84500     Fe( 1.00)
        N              5.00    14.00700     N ( 1.00)
        H              1.00     1.00800     H ( 1.00)

     Starting magnetic structure 
     atomic species   magnetization
        Fe           0.100
        N            0.100
        H            0.100

     No symmetry found



   Cartesian axes

     site n.     atom                  positions (alat units)
         1           Fe  tau(   1) = (   0.1666663   0.1178509   0.0000000  )
         2           Fe  tau(   2) = (   0.0000000   0.0000000   0.2041376  )
         3           Fe  tau(   3) = (   0.4999989   0.3535526   0.0000000  )
         4           Fe  tau(   4) = (   0.3333326   0.2357017   0.2041376  )
         5           Fe  tau(   5) = (   0.1662338   0.1176619   0.4050998  )
         6           Fe  tau(   6) = (   0.3331264   0.9440494   0.6055998  )
         7           Fe  tau(   7) = (   0.4997176   0.3541907   0.4040971  )
         8           Fe  tau(   8) = (   0.3331932   0.2347853   0.6042847  )
         9           Fe  tau(   9) = (   0.2499989   0.3535526   0.0000000  )
        10           Fe  tau(  10) = (   0.4166663   0.1178509   0.0000000  )
        11           Fe  tau(  11) = (   0.0833326   0.2357017   0.2041376  )
        12           Fe  tau(  12) = (   0.2500000   0.0000000   0.2041376  )
        13           Fe  tau(  13) = (   0.2500298   0.3534599   0.4056094  )
        14           Fe  tau(  14) = (   0.4160610   0.1174334   0.4047411  )
        15           Fe  tau(  15) = (   0.0824598   0.2362012   0.6033153  )
        16           Fe  tau(  16) = (   0.2499546  -0.0000122   0.6047152  )
        17           Fe  tau(  17) = (   0.6666663   0.1178509   0.0000000  )
        18           Fe  tau(  18) = (   0.5000000   0.0000000   0.2041376  )
        19           Fe  tau(  19) = (   0.9999989   0.3535526   0.0000000  )
        20           Fe  tau(  20) = (   0.8333326   0.2357017   0.2041376  )
        21           Fe  tau(  21) = (   0.6671698   0.1173708   0.4040990  )
        22           Fe  tau(  22) = (   0.4990826   0.0001783   0.6042334  )
        23           Fe  tau(  23) = (   1.0002535   0.3528286   0.4039350  )
        24           Fe  tau(  24) = (   0.8343058   0.2343203   0.6131606  )
        25           Fe  tau(  25) = (   0.7499989   0.3535526   0.0000000  )
        26           Fe  tau(  26) = (   0.9166663   0.1178509   0.0000000  )
        27           Fe  tau(  27) = (   0.5833326   0.2357017   0.2041376  )
        28           Fe  tau(  28) = (   0.7500000   0.0000000   0.2041376  )
        29           Fe  tau(  29) = (   0.7499777   0.3535178   0.4073649  )
        30           Fe  tau(  30) = (   0.9158921   0.1187480   0.4083186  )
        31           Fe  tau(  31) = (   0.5789168   0.2325855   0.5975038  )
        32           Fe  tau(  32) = (   1.0837573   0.9440761   0.6033463  )
        33           Fe  tau(  33) = (   0.3333315   0.5892543   0.0000000  )
        34           Fe  tau(  34) = (   0.1666652   0.4714034   0.2041376  )
        35           Fe  tau(  35) = (   0.6666640   0.8249560   0.0000000  )
        36           Fe  tau(  36) = (   0.4999978   0.7071052   0.2041376  )
        37           Fe  tau(  37) = (   0.3338519   0.5895177   0.4055248  )
        38           Fe  tau(  38) = (   1.1669243   0.4714708   0.6037214  )
        39           Fe  tau(  39) = (   0.6663270   0.8246388   0.4051057  )
        40           Fe  tau(  40) = (   0.5010608   0.7065394   0.6055939  )
        41           Fe  tau(  41) = (   0.4166640   0.8249560   0.0000000  )
        42           Fe  tau(  42) = (   0.5833315   0.5892543   0.0000000  )
        43           Fe  tau(  43) = (   0.2499978   0.7071052   0.2041376  )
        44           Fe  tau(  44) = (   0.4166652   0.4714034   0.2041376  )
        45           Fe  tau(  45) = (   0.4165048   0.8248803   0.4053621  )
        46           Fe  tau(  46) = (   0.5839100   0.5882505   0.4083180  )
        47           Fe  tau(  47) = (   1.2488733   0.7063050   0.6056667  )
        48           Fe  tau(  48) = (   0.4179970   0.4713885   0.6033736  )
        49           Fe  tau(  49) = (   0.8333315   0.5892543   0.0000000  )
        50           Fe  tau(  50) = (   0.6666652   0.4714034   0.2041376  )
        51           Fe  tau(  51) = (   1.1666640   0.8249560   0.0000000  )
        52           Fe  tau(  52) = (   0.9999978   0.7071052   0.2041376  )
        53           Fe  tau(  53) = (   0.8327470   0.5897300   0.4039319  )
        54           Fe  tau(  54) = (   0.6657260   0.4727122   0.6131325  )
        55           Fe  tau(  55) = (   1.1670807   0.8253806   0.4055355  )
        56           Fe  tau(  56) = (   1.0001521   0.7073150   0.6037730  )
        57           Fe  tau(  57) = (   0.9166640   0.8249560   0.0000000  )
        58           Fe  tau(  58) = (   1.0833315   0.5892543   0.0000000  )
        59           Fe  tau(  59) = (   0.7499978   0.7071052   0.2041376  )
        60           Fe  tau(  60) = (   0.9166652   0.4714034   0.2041376  )
        61           Fe  tau(  61) = (   0.9165976   0.8250245   0.4056139  )
        62           Fe  tau(  62) = (   1.0839122   0.5896712   0.4045043  )
        63           Fe  tau(  63) = (   0.7501686   0.7061123   0.6033263  )
        64           Fe  tau(  64) = (   0.9212191   0.4746106   0.5974738  )
        65           N   tau(  65) = (   0.7500490   0.3535650   0.7527489  )
        66           H   tau(  66) = (   0.8167055   0.4008263   0.8165508  )
        67           H   tau(  67) = (   0.6834440   0.3063984   0.8166722  )
        68           H   tau(  68) = (   0.4576392   0.8539617   0.6989079  )

     number of k points=    10  Methfessel-Paxton smearing, width (Ry)=  0.0100
                       cart. coord. in units 2pi/alat
        k(    1) = (   0.0000000   0.0000000   0.0000000), wk =   0.0625000
        k(    2) = (   0.0000000   0.2651656   0.0000000), wk =   0.1250000
        k(    3) = (   0.0000000  -0.5303313   0.0000000), wk =   0.0625000
        k(    4) = (   0.2500000  -0.0883878   0.0000000), wk =   0.1250000
        k(    5) = (   0.2500000   0.1767779   0.0000000), wk =   0.1250000
        k(    6) = (   0.2500000  -0.6187190   0.0000000), wk =   0.1250000
        k(    7) = (   0.2500000  -0.3535534   0.0000000), wk =   0.1250000
        k(    8) = (  -0.5000000   0.1767755   0.0000000), wk =   0.0625000
        k(    9) = (  -0.5000000   0.4419412   0.0000000), wk =   0.1250000
        k(   10) = (  -0.5000000  -0.3535558   0.0000000), wk =   0.0625000

     Dense  grid:  2905599 G-vectors     FFT dimensions: ( 135, 135, 360)

     Smooth grid:  1027285 G-vectors     FFT dimensions: (  96,  96, 243)

     Estimated max dynamical RAM per process >       1.01 GB

     Estimated total dynamical RAM >     162.10 GB
     Generating pointlists ...
     new r_m :   0.0742 (alat units)  1.3916 (a.u.) for type    1
     new r_m :   0.0428 (alat units)  0.8024 (a.u.) for type    2
     new r_m :   0.0428 (alat units)  0.8024 (a.u.) for type    3

     Check: negative core charge=   -0.000039

     Initial potential from superposition of free atoms

     starting charge 1031.97191, renormalised to 1032.00000

     negative rho (up, down):  2.434E-02 2.563E-03
     Starting wfcs are  839 randomized atomic wfcs
     Checking if some PAW data can be deallocated... 

     total cpu time spent up to now is       91.7 secs

     Self-consistent Calculation

     iteration #  1     ecut=    60.00 Ry     beta= 0.20
     Davidson diagonalization with overlap
     c_bands:  1 eigenvalues not converged
     ethr =  1.00E-04,  avg # of iterations = 17.8

     negative rho (up, down):  1.223E-02 3.271E-03

     total cpu time spent up to now is     1067.5 secs

     total energy              =  -21089.94053003 Ry
     Harris-Foulkes estimate   =  -21098.40650457 Ry
     estimated scf accuracy    <     428.16114000 Ry

     total magnetization       =   102.54 Bohr mag/cell
     absolute magnetization    =   103.54 Bohr mag/cell

     iteration #  2     ecut=    60.00 Ry     beta= 0.20
     Davidson diagonalization with overlap
     ethr =  1.00E-02,  avg # of iterations =  1.0

     negative rho (up, down):  9.947E-03 4.322E-02

     total cpu time spent up to now is     1216.2 secs

     total energy              =  -21094.29299019 Ry
     Harris-Foulkes estimate   =  -21097.87019694 Ry
     estimated scf accuracy    <     191.73747011 Ry

     total magnetization       =   101.91 Bohr mag/cell
     absolute magnetization    =   103.20 Bohr mag/cell

     iteration #  3     ecut=    60.00 Ry     beta= 0.20
     Davidson diagonalization with overlap
     ethr =  1.00E-02,  avg # of iterations =  1.0

     negative rho (up, down):  5.407E-03 2.366E-02

     total cpu time spent up to now is     1351.4 secs

     total energy              =  -21096.06851720 Ry
     Harris-Foulkes estimate   =  -21096.18695365 Ry
     estimated scf accuracy    <      10.65918095 Ry

     total magnetization       =   132.11 Bohr mag/cell
     absolute magnetization    =   132.55 Bohr mag/cell

     iteration #  4     ecut=    60.00 Ry     beta= 0.20
     Davidson diagonalization with overlap
     ethr =  1.03E-03,  avg # of iterations =  1.0

     negative rho (up, down):  3.568E-03 1.727E-02

     total cpu time spent up to now is     1481.5 secs

     total energy              =  -21096.10613173 Ry
     Harris-Foulkes estimate   =  -21096.15601923 Ry
     estimated scf accuracy    <      15.71443875 Ry

     total magnetization       =   138.19 Bohr mag/cell
     absolute magnetization    =   138.69 Bohr mag/cell

     iteration #  5     ecut=    60.00 Ry     beta= 0.20
     Davidson diagonalization with overlap
     ethr =  1.03E-03,  avg # of iterations =  1.0

     negative rho (up, down):  1.655E-02 1.949E-01

     total cpu time spent up to now is     1612.0 secs

     total energy              =  -21094.36475685 Ry
     Harris-Foulkes estimate   =  -21096.13556508 Ry
     estimated scf accuracy    <      16.63406690 Ry

     total magnetization       =   141.17 Bohr mag/cell
     absolute magnetization    =   141.75 Bohr mag/cell

     iteration #  6     ecut=    60.00 Ry     beta= 0.20
     Davidson diagonalization with overlap
     ethr =  1.03E-03,  avg # of iterations =  6.5

     negative rho (up, down):  5.460E-03 1.269E-01

     total cpu time spent up to now is     1815.1 secs

     total energy              =  -21095.39979929 Ry
     Harris-Foulkes estimate   =  -21095.37438315 Ry
     estimated scf accuracy    <       4.80462356 Ry

     total magnetization       =   155.78 Bohr mag/cell
     absolute magnetization    =   158.34 Bohr mag/cell

     iteration #  7     ecut=    60.00 Ry     beta= 0.20
     Davidson diagonalization with overlap
     ethr =  4.66E-04,  avg # of iterations =  6.1

     negative rho (up, down):  1.411E-03 5.265E-02

     total cpu time spent up to now is     2021.8 secs

     total energy              =  -21095.62361920 Ry
     Harris-Foulkes estimate   =  -21095.66863081 Ry
     estimated scf accuracy    <       1.01240527 Ry

     total magnetization       =   151.47 Bohr mag/cell
     absolute magnetization    =   154.45 Bohr mag/cell

     iteration #  8     ecut=    60.00 Ry     beta= 0.20
     Davidson diagonalization with overlap
     c_bands:  2 eigenvalues not converged
     ethr =  9.81E-05,  avg # of iterations = 19.1

     negative rho (up, down):  3.796E-04 2.953E-02

     total cpu time spent up to now is     2972.4 secs

     total energy              =  -21096.09483782 Ry
     Harris-Foulkes estimate   =  -21096.32743381 Ry
     estimated scf accuracy    <       4.16723068 Ry

     total magnetization       =   150.13 Bohr mag/cell
     absolute magnetization    =   156.07 Bohr mag/cell

     iteration #  9     ecut=    60.00 Ry     beta= 0.20
     Davidson diagonalization with overlap
     ethr =  9.81E-05,  avg # of iterations =  3.5

     negative rho (up, down):  1.635E-04 1.427E-02

     total cpu time spent up to now is     3187.3 secs

     total energy              =  -21096.14210220 Ry
     Harris-Foulkes estimate   =  -21096.17270271 Ry
     estimated scf accuracy    <       0.46119938 Ry

     total magnetization       =   150.45 Bohr mag/cell
     absolute magnetization    =   155.52 Bohr mag/cell

     iteration # 10     ecut=    60.00 Ry     beta= 0.20
     Davidson diagonalization with overlap
     c_bands:  1 eigenvalues not converged
     ethr =  4.47E-05,  avg # of iterations =  5.0

     negative rho (up, down):  2.440E-04 2.145E-02

     total cpu time spent up to now is     3400.4 secs

     total energy              =  -21096.14984333 Ry
     Harris-Foulkes estimate   =  -21096.16285948 Ry
     estimated scf accuracy    <       0.36343609 Ry

     total magnetization       =   151.25 Bohr mag/cell
     absolute magnetization    =   156.03 Bohr mag/cell

     iteration # 11     ecut=    60.00 Ry     beta= 0.20
     Davidson diagonalization with overlap
     ethr =  3.52E-05,  avg # of iterations =  4.6

     negative rho (up, down):  1.865E-04 2.093E-02

     total cpu time spent up to now is     3570.8 secs

     total energy              =  -21096.17251814 Ry
     Harris-Foulkes estimate   =  -21096.19064993 Ry
     estimated scf accuracy    <       0.30651362 Ry

     total magnetization       =   156.37 Bohr mag/cell
     absolute magnetization    =   161.27 Bohr mag/cell

     iteration # 12     ecut=    60.00 Ry     beta= 0.20
     Davidson diagonalization with overlap
     ethr =  2.97E-05,  avg # of iterations =  1.9

     negative rho (up, down):  7.700E-05 1.449E-02

     total cpu time spent up to now is     3724.8 secs

     total energy              =  -21096.17149311 Ry
     Harris-Foulkes estimate   =  -21096.18690727 Ry
     estimated scf accuracy    <       0.21342188 Ry

     total magnetization       =   159.25 Bohr mag/cell
     absolute magnetization    =   164.12 Bohr mag/cell

     iteration # 13     ecut=    60.00 Ry     beta= 0.20
     Davidson diagonalization with overlap
     ethr =  2.07E-05,  avg # of iterations =  5.5

     negative rho (up, down):  7.251E-05 1.588E-02

     total cpu time spent up to now is     3923.9 secs

     total energy              =  -21096.16660142 Ry
     Harris-Foulkes estimate   =  -21096.18226941 Ry
     estimated scf accuracy    <       0.27821005 Ry

     total magnetization       =   159.92 Bohr mag/cell
     absolute magnetization    =   164.86 Bohr mag/cell

     iteration # 14     ecut=    60.00 Ry     beta= 0.20
     Davidson diagonalization with overlap
     ethr =  2.07E-05,  avg # of iterations =  4.1

     negative rho (up, down):  5.012E-03 3.116E-02

     total cpu time spent up to now is     4110.3 secs

     total energy              =  -21096.16110149 Ry
     Harris-Foulkes estimate   =  -21096.17578288 Ry
     estimated scf accuracy    <       0.10598988 Ry

     total magnetization       =   160.41 Bohr mag/cell
     absolute magnetization    =   165.47 Bohr mag/cell

     iteration # 15     ecut=    60.00 Ry     beta= 0.20
     Davidson diagonalization with overlap
     c_bands:  1 eigenvalues not converged
     c_bands:  1 eigenvalues not converged
     ethr =  1.03E-05,  avg # of iterations = 18.7

     negative rho (up, down):  2.430E-03 2.407E-02

     total cpu time spent up to now is     4743.3 secs

     total energy              =  -21096.18593644 Ry
     Harris-Foulkes estimate   =  -21096.18817062 Ry
     estimated scf accuracy    <       0.15086723 Ry

     total magnetization       =   161.12 Bohr mag/cell
     absolute magnetization    =   166.96 Bohr mag/cell

     iteration # 16     ecut=    60.00 Ry     beta= 0.20
     Davidson diagonalization with overlap
     c_bands:  1 eigenvalues not converged
     ethr =  1.03E-05,  avg # of iterations =  8.8

     negative rho (up, down):  1.462E-01 2.751E-02

     total cpu time spent up to now is     5024.8 secs

     total energy              =  -21096.16016826 Ry
     Harris-Foulkes estimate   =  -21096.18998461 Ry
     estimated scf accuracy    <       0.15022551 Ry

     total magnetization       =   161.85 Bohr mag/cell
     absolute magnetization    =   167.74 Bohr mag/cell

     iteration # 17     ecut=    60.00 Ry     beta= 0.20
     Davidson diagonalization with overlap
     ethr =  1.03E-05,  avg # of iterations =  7.2

     negative rho (up, down):  1.443E-01 3.027E-02

     total cpu time spent up to now is     5245.6 secs

     total energy              =  -21096.16293025 Ry
     Harris-Foulkes estimate   =  -21096.16745320 Ry
     estimated scf accuracy    <       0.06871414 Ry

     total magnetization       =   162.06 Bohr mag/cell
     absolute magnetization    =   167.96 Bohr mag/cell

     iteration # 18     ecut=    60.00 Ry     beta= 0.20
     Davidson diagonalization with overlap
     c_bands:  1 eigenvalues not converged
     ethr =  6.66E-06,  avg # of iterations =  9.9

     negative rho (up, down):  1.613E-01 2.513E-02

     total cpu time spent up to now is     5628.1 secs

     total energy              =  -21096.14801944 Ry
     Harris-Foulkes estimate   =  -21096.16544100 Ry
     estimated scf accuracy    <       0.06799009 Ry

     total magnetization       =   161.99 Bohr mag/cell
     absolute magnetization    =   167.92 Bohr mag/cell

     iteration # 19     ecut=    60.00 Ry     beta= 0.20
     Davidson diagonalization with overlap
     c_bands:  1 eigenvalues not converged
     ethr =  6.59E-06,  avg # of iterations = 10.9

     negative rho (up, down):  1.236E-01 1.774E-02

     total cpu time spent up to now is     5934.8 secs

     total energy              =  -21096.13954196 Ry
     Harris-Foulkes estimate   =  -21096.15524895 Ry
     estimated scf accuracy    <       0.03072616 Ry

     total magnetization       =   161.61 Bohr mag/cell
     absolute magnetization    =   167.73 Bohr mag/cell

     iteration # 20     ecut=    60.00 Ry     beta= 0.20
     Davidson diagonalization with overlap
     c_bands:  1 eigenvalues not converged
     c_bands:  3 eigenvalues not converged
     ethr =  2.98E-06,  avg # of iterations = 19.6

     negative rho (up, down):  1.130E-01 1.749E-02

     total cpu time spent up to now is     6999.1 secs

     total energy              =  -21096.14253109 Ry
     Harris-Foulkes estimate   =  -21096.15018445 Ry
     estimated scf accuracy    <       0.03227691 Ry

     total magnetization       =   161.14 Bohr mag/cell
     absolute magnetization    =   167.67 Bohr mag/cell

     iteration # 21     ecut=    60.00 Ry     beta= 0.20
     Davidson diagonalization with overlap
     c_bands:  2 eigenvalues not converged
     c_bands:  4 eigenvalues not converged
     ethr =  2.98E-06,  avg # of iterations = 11.6

     negative rho (up, down):  1.548E-01 2.085E-02

     total cpu time spent up to now is     7284.3 secs

     total energy              =  -21096.12018562 Ry
     Harris-Foulkes estimate   =  -21096.14342167 Ry
     estimated scf accuracy    <       0.01931154 Ry

     total magnetization       =   161.14 Bohr mag/cell
     absolute magnetization    =   167.68 Bohr mag/cell

     iteration # 22     ecut=    60.00 Ry     beta= 0.20
     Davidson diagonalization with overlap
     c_bands:  2 eigenvalues not converged
     c_bands:  4 eigenvalues not converged
     ethr =  1.87E-06,  avg # of iterations = 15.9

     negative rho (up, down):  1.556E-01 1.947E-02

     total cpu time spent up to now is     8268.4 secs

     total energy              =  -21096.12567720 Ry
     Harris-Foulkes estimate   =  -21096.12578799 Ry
     estimated scf accuracy    <       0.01072062 Ry

     total magnetization       =   160.90 Bohr mag/cell
     absolute magnetization    =   167.66 Bohr mag/cell

     iteration # 23     ecut=    60.00 Ry     beta= 0.20
     Davidson diagonalization with overlap
     c_bands:  1 eigenvalues not converged
     c_bands:  1 eigenvalues not converged
     ethr =  1.04E-06,  avg # of iterations =  8.8

     negative rho (up, down):  1.349E-01 1.998E-02

     total cpu time spent up to now is     8559.8 secs

     total energy              =  -21096.12468210 Ry
     Harris-Foulkes estimate   =  -21096.12607570 Ry
     estimated scf accuracy    <       0.00846605 Ry

     total magnetization       =   161.04 Bohr mag/cell
     absolute magnetization    =   167.78 Bohr mag/cell

     iteration # 24     ecut=    60.00 Ry     beta= 0.20
     Davidson diagonalization with overlap
     c_bands:  2 eigenvalues not converged
     ethr =  8.20E-07,  avg # of iterations =  9.3

     negative rho (up, down):  7.749E-02 2.240E-02

     total cpu time spent up to now is     9014.5 secs

     total energy              =  -21096.12385482 Ry
     Harris-Foulkes estimate   =  -21096.12652298 Ry
     estimated scf accuracy    <       0.00484930 Ry

     total magnetization       =   161.64 Bohr mag/cell
     absolute magnetization    =   168.38 Bohr mag/cell

     iteration # 25     ecut=    60.00 Ry     beta= 0.20
     Davidson diagonalization with overlap
     c_bands:  2 eigenvalues not converged
     ethr =  4.70E-07,  avg # of iterations = 12.4

     negative rho (up, down):  5.807E-02 2.017E-02

     total cpu time spent up to now is     9558.9 secs

     total energy              =  -21096.12415016 Ry
     Harris-Foulkes estimate   =  -21096.12560784 Ry
     estimated scf accuracy    <       0.00465815 Ry

     total magnetization       =   161.47 Bohr mag/cell
     absolute magnetization    =   168.13 Bohr mag/cell

     iteration # 26     ecut=    60.00 Ry     beta= 0.20
     Davidson diagonalization with overlap
     ethr =  4.51E-07,  avg # of iterations =  7.8

     negative rho (up, down):  5.036E-02 1.988E-02

     total cpu time spent up to now is     9787.0 secs

     total energy              =  -21096.12484848 Ry
     Harris-Foulkes estimate   =  -21096.12443701 Ry
     estimated scf accuracy    <       0.00200502 Ry

     total magnetization       =   161.40 Bohr mag/cell
     absolute magnetization    =   168.06 Bohr mag/cell

     iteration # 27     ecut=    60.00 Ry     beta= 0.20
     Davidson diagonalization with overlap
     ethr =  1.94E-07,  avg # of iterations =  9.2

     negative rho (up, down):  4.665E-02 1.989E-02

     total cpu time spent up to now is    10408.7 secs

     total energy              =  -21096.12581719 Ry
     Harris-Foulkes estimate   =  -21096.12554587 Ry
     estimated scf accuracy    <       0.00065475 Ry

     total magnetization       =   161.39 Bohr mag/cell
     absolute magnetization    =   167.98 Bohr mag/cell

     iteration # 28     ecut=    60.00 Ry     beta= 0.20
     Davidson diagonalization with overlap
     ethr =  6.34E-08,  avg # of iterations =  7.9

     negative rho (up, down):  3.439E-02 1.985E-02

     total cpu time spent up to now is    10687.8 secs

     total energy              =  -21096.12682293 Ry
     Harris-Foulkes estimate   =  -21096.12590119 Ry
     estimated scf accuracy    <       0.00047650 Ry

     total magnetization       =   161.34 Bohr mag/cell
     absolute magnetization    =   167.94 Bohr mag/cell

     iteration # 29     ecut=    60.00 Ry     beta= 0.20
     Davidson diagonalization with overlap
     ethr =  4.62E-08,  avg # of iterations =  5.6

     negative rho (up, down):  2.938E-02 1.968E-02

     total cpu time spent up to now is    10954.6 secs

     total energy              =  -21096.12709759 Ry
     Harris-Foulkes estimate   =  -21096.12686329 Ry
     estimated scf accuracy    <       0.00023925 Ry

     total magnetization       =   161.30 Bohr mag/cell
     absolute magnetization    =   167.92 Bohr mag/cell

     iteration # 30     ecut=    60.00 Ry     beta= 0.20
     Davidson diagonalization with overlap
     ethr =  2.32E-08,  avg # of iterations =  8.7

     negative rho (up, down):  2.789E-02 1.968E-02

     total cpu time spent up to now is    11598.0 secs

     total energy              =  -21096.12742123 Ry
     Harris-Foulkes estimate   =  -21096.12722950 Ry
     estimated scf accuracy    <       0.00029035 Ry

     total magnetization       =   161.27 Bohr mag/cell
     absolute magnetization    =   167.91 Bohr mag/cell

     iteration # 31     ecut=    60.00 Ry     beta= 0.20
     Davidson diagonalization with overlap
     ethr =  2.32E-08,  avg # of iterations =  3.0

     negative rho (up, down):  2.577E-02 1.952E-02

     total cpu time spent up to now is    11766.3 secs

     total energy              =  -21096.12752455 Ry
     Harris-Foulkes estimate   =  -21096.12744861 Ry
     estimated scf accuracy    <       0.00012336 Ry

     total magnetization       =   161.32 Bohr mag/cell
     absolute magnetization    =   167.96 Bohr mag/cell

     iteration # 32     ecut=    60.00 Ry     beta= 0.20
     Davidson diagonalization with overlap
     ethr =  1.20E-08,  avg # of iterations =  8.1

     negative rho (up, down):  2.572E-02 1.945E-02

     total cpu time spent up to now is    12130.8 secs

     total energy              =  -21096.12704547 Ry
     Harris-Foulkes estimate   =  -21096.12754665 Ry
     estimated scf accuracy    <       0.00005323 Ry

     total magnetization       =   161.32 Bohr mag/cell
     absolute magnetization    =   167.98 Bohr mag/cell

     iteration # 33     ecut=    60.00 Ry     beta= 0.20
     Davidson diagonalization with overlap
     ethr =  5.16E-09,  avg # of iterations =  8.4

     negative rho (up, down):  2.604E-02 1.942E-02

     total cpu time spent up to now is    12675.2 secs

     total energy              =  -21096.12669961 Ry
     Harris-Foulkes estimate   =  -21096.12708155 Ry
     estimated scf accuracy    <       0.00006930 Ry

     total magnetization       =   161.34 Bohr mag/cell
     absolute magnetization    =   168.01 Bohr mag/cell

     iteration # 34     ecut=    60.00 Ry     beta= 0.20
     Davidson diagonalization with overlap
     ethr =  5.16E-09,  avg # of iterations =  6.9

     negative rho (up, down):  2.609E-02 1.943E-02

     total cpu time spent up to now is    13207.1 secs

     total energy              =  -21096.12650876 Ry
     Harris-Foulkes estimate   =  -21096.12672107 Ry
     estimated scf accuracy    <       0.00003335 Ry

     total magnetization       =   161.30 Bohr mag/cell
     absolute magnetization    =   167.98 Bohr mag/cell

     iteration # 35     ecut=    60.00 Ry     beta= 0.20
     Davidson diagonalization with overlap
     ethr =  3.23E-09,  avg # of iterations =  3.0

     negative rho (up, down):  2.536E-02 1.951E-02

     total cpu time spent up to now is    13428.6 secs

     total energy              =  -21096.12555058 Ry
     Harris-Foulkes estimate   =  -21096.12651034 Ry
     estimated scf accuracy    <       0.00002125 Ry

     total magnetization       =   161.31 Bohr mag/cell
     absolute magnetization    =   167.98 Bohr mag/cell

     iteration # 36     ecut=    60.00 Ry     beta= 0.20
     Davidson diagonalization with overlap
     ethr =  2.06E-09,  avg # of iterations =  3.4

     negative rho (up, down):  2.496E-02 1.951E-02

     total cpu time spent up to now is    13652.6 secs

     total energy              =  -21096.12514986 Ry
     Harris-Foulkes estimate   =  -21096.12555197 Ry
     estimated scf accuracy    <       0.00000866 Ry

     total magnetization       =   161.32 Bohr mag/cell
     absolute magnetization    =   168.00 Bohr mag/cell

     iteration # 37     ecut=    60.00 Ry     beta= 0.20
     Davidson diagonalization with overlap
     ethr =  8.39E-10,  avg # of iterations = 10.2

     negative rho (up, down):  2.474E-02 1.951E-02

     total cpu time spent up to now is    14007.1 secs

     total energy              =  -21096.12506304 Ry
     Harris-Foulkes estimate   =  -21096.12515188 Ry
     estimated scf accuracy    <       0.00000619 Ry

     total magnetization       =   161.32 Bohr mag/cell
     absolute magnetization    =   167.99 Bohr mag/cell

     iteration # 38     ecut=    60.00 Ry     beta= 0.20
     Davidson diagonalization with overlap
     ethr =  6.00E-10,  avg # of iterations =  7.8

     negative rho (up, down):  2.455E-02 1.950E-02

     total cpu time spent up to now is    14477.5 secs

     total energy              =  -21096.12500517 Ry
     Harris-Foulkes estimate   =  -21096.12506652 Ry
     estimated scf accuracy    <       0.00000306 Ry

     total magnetization       =   161.33 Bohr mag/cell
     absolute magnetization    =   168.00 Bohr mag/cell

     iteration # 39     ecut=    60.00 Ry     beta= 0.20
     Davidson diagonalization with overlap
     ethr =  2.96E-10,  avg # of iterations =  6.5

     negative rho (up, down):  2.450E-02 1.948E-02

     total cpu time spent up to now is    14679.0 secs

     total energy              =  -21096.12488591 Ry
     Harris-Foulkes estimate   =  -21096.12500554 Ry
     estimated scf accuracy    <       0.00000140 Ry

     total magnetization       =   161.33 Bohr mag/cell
     absolute magnetization    =   168.00 Bohr mag/cell

     iteration # 40     ecut=    60.00 Ry     beta= 0.20
     Davidson diagonalization with overlap
     ethr =  1.35E-10,  avg # of iterations =  7.7

     negative rho (up, down):  2.452E-02 1.948E-02

     total cpu time spent up to now is    15242.6 secs

     total energy              =  -21096.12487036 Ry
     Harris-Foulkes estimate   =  -21096.12488649 Ry
     estimated scf accuracy    <       0.00000042 Ry

     total magnetization       =   161.33 Bohr mag/cell
     absolute magnetization    =   168.00 Bohr mag/cell

     iteration # 41     ecut=    60.00 Ry     beta= 0.20
     Davidson diagonalization with overlap
     ethr =  4.09E-11,  avg # of iterations =  8.3

     negative rho (up, down):  2.456E-02 1.950E-02

     total cpu time spent up to now is    15790.8 secs

     total energy              =  -21096.12482731 Ry
     Harris-Foulkes estimate   =  -21096.12487049 Ry
     estimated scf accuracy    <       0.00000027 Ry

     total magnetization       =   161.33 Bohr mag/cell
     absolute magnetization    =   168.00 Bohr mag/cell

     iteration # 42     ecut=    60.00 Ry     beta= 0.20
     Davidson diagonalization with overlap
     ethr =  2.64E-11,  avg # of iterations =  4.8

     negative rho (up, down):  2.460E-02 1.952E-02

     total cpu time spent up to now is    15972.0 secs

     total energy              =  -21096.12479893 Ry
     Harris-Foulkes estimate   =  -21096.12482734 Ry
     estimated scf accuracy    <       0.00000013 Ry

     total magnetization       =   161.33 Bohr mag/cell
     absolute magnetization    =   168.01 Bohr mag/cell

     iteration # 43     ecut=    60.00 Ry     beta= 0.20
     Davidson diagonalization with overlap
     ethr =  1.22E-11,  avg # of iterations =  8.7

     negative rho (up, down):  2.459E-02 1.954E-02

     total cpu time spent up to now is    16542.7 secs

     total energy              =  -21096.12480522 Ry
     Harris-Foulkes estimate   =  -21096.12479899 Ry
     estimated scf accuracy    <       0.00000015 Ry

     total magnetization       =   161.33 Bohr mag/cell
     absolute magnetization    =   168.01 Bohr mag/cell

     iteration # 44     ecut=    60.00 Ry     beta= 0.20
     Davidson diagonalization with overlap
     ethr =  1.22E-11,  avg # of iterations =  7.2

     negative rho (up, down):  2.462E-02 1.955E-02

     total cpu time spent up to now is    16857.5 secs

     total energy              =  -21096.12480778 Ry
     Harris-Foulkes estimate   =  -21096.12480525 Ry
     estimated scf accuracy    <       0.00000006 Ry

     total magnetization       =   161.34 Bohr mag/cell
     absolute magnetization    =   168.01 Bohr mag/cell

     iteration # 45     ecut=    60.00 Ry     beta= 0.20
     Davidson diagonalization with overlap
     ethr =  6.08E-12,  avg # of iterations =  6.5

     negative rho (up, down):  2.464E-02 1.955E-02

     total cpu time spent up to now is    17261.3 secs

     total energy              =  -21096.12479586 Ry
     Harris-Foulkes estimate   =  -21096.12480778 Ry
     estimated scf accuracy    <       0.00000002 Ry

     total magnetization       =   161.34 Bohr mag/cell
     absolute magnetization    =   168.01 Bohr mag/cell

     iteration # 46     ecut=    60.00 Ry     beta= 0.20
     Davidson diagonalization with overlap
     ethr =  1.82E-12,  avg # of iterations =  8.2

     negative rho (up, down):  2.465E-02 1.955E-02

     total cpu time spent up to now is    17908.7 secs

     total energy              =  -21096.12478526 Ry
     Harris-Foulkes estimate   =  -21096.12479585 Ry
     estimated scf accuracy    <       0.00000002 Ry

     total magnetization       =   161.34 Bohr mag/cell
     absolute magnetization    =   168.01 Bohr mag/cell

     iteration # 47     ecut=    60.00 Ry     beta= 0.20
     Davidson diagonalization with overlap
     ethr =  1.48E-12,  avg # of iterations =  3.0

     negative rho (up, down):  2.467E-02 1.955E-02

     Magnetic moment per site:
     atom:    1    charge:   12.6263    magn:    2.3614    constr:    0.0000
     atom:    2    charge:   12.6138    magn:    2.2099    constr:    0.0000
     atom:    3    charge:   12.6266    magn:    2.3653    constr:    0.0000
     atom:    4    charge:   12.6151    magn:    2.1862    constr:    0.0000
     atom:    5    charge:   12.6160    magn:    2.1924    constr:    0.0000
     atom:    6    charge:   12.6266    magn:    2.2254    constr:    0.0000
     atom:    7    charge:   12.6193    magn:    2.1402    constr:    0.0000
     atom:    8    charge:   12.6242    magn:    2.3619    constr:    0.0000
     atom:    9    charge:   12.6267    magn:    2.3551    constr:    0.0000
     atom:   10    charge:   12.6263    magn:    2.3636    constr:    0.0000
     atom:   11    charge:   12.6156    magn:    2.1885    constr:    0.0000
     atom:   12    charge:   12.6153    magn:    2.1886    constr:    0.0000
     atom:   13    charge:   12.6164    magn:    2.1880    constr:    0.0000
     atom:   14    charge:   12.6147    magn:    2.1627    constr:    0.0000
     atom:   15    charge:   12.6246    magn:    2.3675    constr:    0.0000
     atom:   16    charge:   12.6250    magn:    2.2691    constr:    0.0000
     atom:   17    charge:   12.6264    magn:    2.3652    constr:    0.0000
     atom:   18    charge:   12.6150    magn:    2.1862    constr:    0.0000
     atom:   19    charge:   12.6264    magn:    2.3659    constr:    0.0000
     atom:   20    charge:   12.6146    magn:    2.2329    constr:    0.0000
     atom:   21    charge:   12.6193    magn:    2.1401    constr:    0.0000
     atom:   22    charge:   12.6240    magn:    2.3616    constr:    0.0000
     atom:   23    charge:   12.6193    magn:    2.1391    constr:    0.0000
     atom:   24    charge:   12.6171    magn:    2.0601    constr:    0.0000
     atom:   25    charge:   12.6268    magn:    2.3764    constr:    0.0000
     atom:   26    charge:   12.6268    magn:    2.3631    constr:    0.0000
     atom:   27    charge:   12.6153    magn:    2.1874    constr:    0.0000
     atom:   28    charge:   12.6153    magn:    2.1863    constr:    0.0000
     atom:   29    charge:   12.6121    magn:    2.2884    constr:    0.0000
     atom:   30    charge:   12.6098    magn:    2.1055    constr:    0.0000
     atom:   31    charge:   12.6371    magn:    2.3277    constr:    0.0000
     atom:   32    charge:   12.6238    magn:    2.3669    constr:    0.0000
     atom:   33    charge:   12.6263    magn:    2.3614    constr:    0.0000
     atom:   34    charge:   12.6150    magn:    2.1823    constr:    0.0000
     atom:   35    charge:   12.6262    magn:    2.3614    constr:    0.0000
     atom:   36    charge:   12.6143    magn:    2.2101    constr:    0.0000
     atom:   37    charge:   12.6162    magn:    2.1821    constr:    0.0000
     atom:   38    charge:   12.6253    magn:    2.3461    constr:    0.0000
     atom:   39    charge:   12.6161    magn:    2.1926    constr:    0.0000
     atom:   40    charge:   12.6266    magn:    2.2254    constr:    0.0000
     atom:   41    charge:   12.6260    magn:    2.3788    constr:    0.0000
     atom:   42    charge:   12.6273    magn:    2.3632    constr:    0.0000
     atom:   43    charge:   12.6148    magn:    2.1911    constr:    0.0000
     atom:   44    charge:   12.6152    magn:    2.1862    constr:    0.0000
     atom:   45    charge:   12.6176    magn:    2.1880    constr:    0.0000
     atom:   46    charge:   12.6103    magn:    2.1058    constr:    0.0000
     atom:   47    charge:   12.6277    magn:    2.3947    constr:    0.0000
     atom:   48    charge:   12.6238    magn:    2.3673    constr:    0.0000
     atom:   49    charge:   12.6267    magn:    2.3660    constr:    0.0000
     atom:   50    charge:   12.6151    magn:    2.2331    constr:    0.0000
     atom:   51    charge:   12.6264    magn:    2.3615    constr:    0.0000
     atom:   52    charge:   12.6151    magn:    2.1823    constr:    0.0000
     atom:   53    charge:   12.6193    magn:    2.1392    constr:    0.0000
     atom:   54    charge:   12.6167    magn:    2.0598    constr:    0.0000
     atom:   55    charge:   12.6161    magn:    2.1819    constr:    0.0000
     atom:   56    charge:   12.6254    magn:    2.3466    constr:    0.0000
     atom:   57    charge:   12.6267    magn:    2.3551    constr:    0.0000
     atom:   58    charge:   12.6263    magn:    2.3642    constr:    0.0000
     atom:   59    charge:   12.6155    magn:    2.1886    constr:    0.0000
     atom:   60    charge:   12.6154    magn:    2.1869    constr:    0.0000
     atom:   61    charge:   12.6164    magn:    2.1881    constr:    0.0000
     atom:   62    charge:   12.6148    magn:    2.1710    constr:    0.0000
     atom:   63    charge:   12.6245    magn:    2.3680    constr:    0.0000
     atom:   64    charge:   12.6366    magn:    2.3355    constr:    0.0000
     atom:   65    charge:    1.3521    magn:   -0.0012    constr:    0.0000
     atom:   66    charge:    0.4395    magn:    0.0076    constr:    0.0000
     atom:   67    charge:    0.4395    magn:    0.0076    constr:    0.0000
     atom:   68    charge:    0.3543    magn:   -0.0199    constr:    0.0000

     total cpu time spent up to now is    18082.0 secs

     End of self-consistent calculation

 ------ SPIN UP ------------


          k = 0.0000 0.0000 0.0000 (128403 PWs)   bands (ev):

   -90.7044 -90.6927 -90.6906 -90.6841 -90.6823 -90.6820 -90.6774 -90.6772
   -90.6728 -90.6720 -90.6703 -90.6697 -90.6618 -90.6616 -90.6559 -90.6557
   -90.6531 -90.6524 -90.6489 -90.6488 -90.6459 -90.6428 -90.6410 -90.6407
   -90.6393 -90.6383 -90.6293 -90.6291 -90.6286 -90.6248 -90.6138 -90.6095
   -90.6062 -90.5568 -90.5421 -90.5375 -90.5351 -90.5343 -90.5311 -90.5248
   -90.5212 -90.5189 -90.5188 -90.5135 -90.5127 -90.5103 -90.5078 -90.5069
   -90.5057 -90.5046 -90.5027 -90.5021 -90.4998 -90.4985 -90.4965 -90.4940
   -90.4902 -90.4847 -90.4824 -90.4775 -90.4687 -90.4669 -90.4658 -90.4572
   -56.9072 -56.8963 -56.8883 -56.8832 -56.8777 -56.8681 -56.8670 -56.8666
   -56.8662 -56.8625 -56.8623 -56.8601 -56.8588 -56.8560 -56.8537 -56.8530
   -56.8525 -56.8454 -56.8448 -56.8432 -56.8416 -56.8393 -56.8371 -56.8345
   -56.8309 -56.8295 -56.8219 -56.8212 -56.8169 -56.8145 -56.8129 -56.8089
   -56.8080 -56.8033 -56.7998 -56.7966 -56.7934 -56.7893 -56.7854 -56.7791
   -56.7760 -56.7729 -56.7722 -56.7720 -56.7712 -56.7669 -56.7416 -56.7248
   -56.7246 -56.7223 -56.7214 -56.7134 -56.7121 -56.7093 -56.7068 -56.7037
   -56.6989 -56.6980 -56.6975 -56.6938 -56.6921 -56.6905 -56.6898 -56.6876
   -56.6869 -56.6855 -56.6816 -56.6794 -56.6773 -56.6760 -56.6747 -56.6729
   -56.6708 -56.6682 -56.6645 -56.6599 -56.6553 -56.6498 -56.6492 -56.6437
   -56.6435 -56.6415 -56.6375 -56.6345 -56.6323 -56.6310 -56.6299 -56.6290
   -56.6286 -56.6256 -56.6234 -56.6211 -56.6195 -56.6178 -56.6160 -56.6141
   -56.6112 -56.6076 -56.6073 -56.5996 -56.5989 -56.5969 -56.5885 -56.5880
   -56.5863 -56.5863 -56.5850 -56.5800 -56.5789 -56.5754 -56.5752 -56.5734
   -56.5729 -56.5715 -56.5690 -56.5650 -56.5639 -56.5614 -56.5602 -56.5578
   -56.5574 -56.5567 -56.5536 -56.5513 -56.5504 -56.5501 -56.5477 -56.5475
   -56.5438 -56.5431 -56.5406 -56.5382 -56.5365 -56.5322 -56.5286 -56.5275
   -56.5266 -56.5235 -56.5223 -56.5209 -56.5196 -56.5180 -56.5143 -56.5140
   -56.5118 -56.5066 -56.5059 -56.4974 -56.4963 -56.4939 -56.4908 -56.4879
   -56.4876 -56.4858 -56.4771 -56.4763 -56.4761 -56.4753 -56.4735 -56.4705
   -56.4697 -56.4668 -56.4660 -56.4594 -56.4590 -56.4573 -56.4560 -56.4522
   -56.4517 -56.4501 -56.4488 -56.4410 -56.4370 -56.4353 -56.4333 -56.4252
   -56.4240 -56.4164 -56.4140 -56.4138 -56.4127 -56.4118 -56.4099 -56.4097
   -56.4091 -56.4047 -56.4041 -56.4038 -56.4031 -56.3993 -56.3989 -56.3978
   -19.9858 -11.1374 -10.5216  -9.7360  -9.4086  -8.8438  -8.7972  -8.7811
    -8.7706  -8.5544  -8.3076  -8.2258  -7.8889  -7.7894  -7.7858  -7.7010
    -7.5298  -7.3666  -7.3530  -7.2488  -7.2397  -7.1583  -7.1501  -7.1261
    -7.1115  -7.0793  -7.0523  -7.0216  -6.9728  -6.9526  -6.7148  -6.7140
    -6.6766  -6.6616  -6.6091  -6.6037  -6.5896  -6.5869  -6.5856  -6.5823
    -6.5751  -6.5700  -6.5611  -6.5592  -6.5543  -6.5536  -6.5534  -6.5427
    -6.5255  -6.5145  -6.5043  -6.4984  -6.4983  -6.4834  -6.4772  -6.4730
    -6.4402  -6.3891  -6.3713  -6.3624  -6.3513  -6.3191  -6.2999  -6.2971
    -6.2873  -6.2652  -6.1981  -6.0179  -5.9925  -5.9889  -5.9852  -5.9817
    -5.9718  -5.8712  -5.8624  -5.8345  -5.8149  -5.8069  -5.8059  -5.8014
    -5.7994  -5.7989  -5.7861  -5.7798  -5.7765  -5.7667  -5.7616  -5.7601
    -5.7507  -5.7488  -5.7439  -5.7311  -5.7274  -5.7246  -5.7224  -5.7127
    -5.6984  -5.6943  -5.6919  -5.6711  -5.6706  -5.6680  -5.6591  -5.6527
    -5.6497  -5.6364  -5.6253  -5.6224  -5.6058  -5.6028  -5.6000  -5.5764
    -5.5325  -5.5280  -5.4575  -5.4322  -5.4312  -5.4209  -5.4120  -5.4058
    -5.3807  -5.3379  -5.2852  -5.2312  -5.2305  -5.2277  -5.2168  -5.2156
    -5.2130  -5.2103  -5.1894  -5.1797  -5.1608  -5.1456  -5.1452  -5.1391
    -5.1354  -5.1107  -5.1016  -5.0995  -5.0940  -5.0898  -5.0845  -5.0830
    -5.0722  -5.0699  -5.0481  -5.0201  -4.9532  -4.9525  -4.9416  -4.9251
    -4.9250  -4.9241  -4.9202  -4.9166  -4.9108  -4.8801  -4.8720  -4.8441
    -4.8314  -4.8191  -4.7918  -4.7910  -4.7883  -4.7847  -4.7481  -4.7464
    -4.7426  -4.7398  -4.7093  -4.7055  -4.6980  -4.6971  -4.6867  -4.6820
    -4.6650  -4.6630  -4.6534  -4.6502  -4.6476  -4.6437  -4.6340  -4.6261
    -4.6197  -4.6039  -4.5527  -4.5178  -4.5152  -4.4831  -4.4144  -4.4025
    -4.3098  -4.2608  -4.1550  -4.1333  -4.1254  -4.1231  -4.1180  -4.1114
    -4.1102  -4.1084  -4.0998  -4.0946  -4.0713  -4.0554  -4.0318  -4.0282
    -4.0234  -4.0064  -4.0013  -3.9880  -3.9781  -3.9595  -3.9487  -3.9466
    -3.9324  -3.9315  -3.9204  -3.9114  -3.9088  -3.9064  -3.8777  -3.8716
    -3.8691  -3.8530  -3.8378  -3.8124  -3.8114  -3.8075  -3.8029  -3.8007
    -3.7923  -3.7846  -3.7733  -3.7726  -3.7676  -3.7674  -3.7626  -3.7596
    -3.7390  -3.7277  -3.7205  -3.7179  -3.7112  -3.7037  -3.6979  -3.6950
    -3.6916  -3.6895  -3.6867  -3.6851  -3.6832  -3.6827  -3.6728  -3.6681
    -3.6649  -3.6600  -3.6547  -3.6525  -3.6494  -3.6473  -3.6425  -3.6349
    -3.6282  -3.6236  -3.6183  -3.6130  -3.6103  -3.6065  -3.5885  -3.5804
    -3.5781  -3.5771  -3.5733  -3.5701  -3.5631  -3.5561  -3.5543  -3.5500
    -3.5454  -3.5244  -3.5187  -3.5186  -3.5036  -3.4802  -3.4632  -3.4595
    -3.4530  -3.4484  -3.4258  -3.4185  -3.4161  -3.4150  -3.3618  -3.3426
    -3.3138  -3.3019  -3.2970  -3.2954  -3.2911  -3.2816  -3.2812  -3.2721
    -3.2676  -3.2647  -3.2626  -3.2460  -3.2406  -3.2399  -3.2279  -3.2227
    -3.2129  -3.2100  -3.2017  -3.1177  -3.1147  -3.1088  -2.9697  -2.8204
    -2.8107  -2.7941  -2.7796  -2.7547  -2.7353  -2.6856  -2.6829  -2.6748
    -2.6500  -2.6238  -2.5888  -2.5537  -2.5476  -2.5438  -2.5335  -2.5067
    -2.4811  -2.4607  -2.4586  -2.4469  -2.4230  -2.3265  -2.3112  -2.2353
    -2.2247  -2.1606  -2.1503  -2.1368  -1.9001  -1.5201  -1.5042  -1.5013
    -1.5000  -1.4022  -1.3966  -1.2699  -0.8621  -0.6745  -0.5821  -0.5724
    -0.5414  -0.5313  -0.5260

          k = 0.0000 0.2652 0.0000 (128375 PWs)   bands (ev):

   -90.7041 -90.6924 -90.6893 -90.6863 -90.6822 -90.6803 -90.6802 -90.6777
   -90.6732 -90.6723 -90.6696 -90.6666 -90.6647 -90.6606 -90.6573 -90.6558
   -90.6526 -90.6493 -90.6491 -90.6483 -90.6475 -90.6425 -90.6418 -90.6412
   -90.6406 -90.6357 -90.6301 -90.6293 -90.6282 -90.6249 -90.6138 -90.6095
   -90.6063 -90.5558 -90.5449 -90.5378 -90.5353 -90.5330 -90.5287 -90.5261
   -90.5213 -90.5193 -90.5166 -90.5141 -90.5129 -90.5109 -90.5080 -90.5068
   -90.5057 -90.5049 -90.5033 -90.5020 -90.5015 -90.4971 -90.4958 -90.4927
   -90.4906 -90.4858 -90.4815 -90.4780 -90.4694 -90.4672 -90.4640 -90.4580
   -56.9053 -56.8969 -56.8888 -56.8821 -56.8780 -56.8710 -56.8701 -56.8670
   -56.8650 -56.8630 -56.8615 -56.8581 -56.8573 -56.8567 -56.8538 -56.8515
   -56.8501 -56.8472 -56.8445 -56.8432 -56.8408 -56.8396 -56.8364 -56.8337
   -56.8331 -56.8263 -56.8218 -56.8214 -56.8176 -56.8128 -56.8076 -56.8059
   -56.8032 -56.8010 -56.7962 -56.7925 -56.7913 -56.7863 -56.7845 -56.7804
   -56.7774 -56.7747 -56.7728 -56.7671 -56.7615 -56.7588 -56.7451 -56.7366
   -56.7339 -56.7260 -56.7200 -56.7193 -56.7168 -56.7162 -56.7131 -56.7068
   -56.7045 -56.7010 -56.6987 -56.6943 -56.6928 -56.6915 -56.6904 -56.6893
   -56.6871 -56.6857 -56.6838 -56.6833 -56.6805 -56.6780 -56.6747 -56.6739
   -56.6720 -56.6680 -56.6674 -56.6644 -56.6626 -56.6584 -56.6542 -56.6520
   -56.6465 -56.6437 -56.6407 -56.6382 -56.6375 -56.6350 -56.6316 -56.6277
   -56.6225 -56.6211 -56.6184 -56.6166 -56.6152 -56.6128 -56.6111 -56.6106
   -56.6073 -56.6043 -56.5993 -56.5982 -56.5966 -56.5951 -56.5921 -56.5902
   -56.5867 -56.5846 -56.5817 -56.5810 -56.5792 -56.5780 -56.5774 -56.5755
   -56.5744 -56.5719 -56.5704 -56.5695 -56.5660 -56.5642 -56.5612 -56.5603
   -56.5583 -56.5539 -56.5527 -56.5507 -56.5470 -56.5456 -56.5434 -56.5412
   -56.5391 -56.5378 -56.5348 -56.5325 -56.5310 -56.5301 -56.5288 -56.5274
   -56.5245 -56.5220 -56.5202 -56.5172 -56.5158 -56.5137 -56.5123 -56.5087
   -56.5071 -56.5054 -56.5007 -56.4976 -56.4953 -56.4940 -56.4917 -56.4890
   -56.4852 -56.4837 -56.4791 -56.4770 -56.4764 -56.4759 -56.4744 -56.4735
   -56.4705 -56.4669 -56.4637 -56.4595 -56.4586 -56.4572 -56.4546 -56.4513
   -56.4496 -56.4449 -56.4432 -56.4408 -56.4355 -56.4330 -56.4325 -56.4269
   -56.4247 -56.4197 -56.4186 -56.4181 -56.4164 -56.4139 -56.4130 -56.4122
   -56.4110 -56.4099 -56.4088 -56.4074 -56.4037 -56.4030 -56.4003 -56.3991
   -19.9858 -11.1380 -10.4099  -9.7471  -9.5371  -9.2399  -8.8922  -8.7663
    -8.5430  -8.4484  -8.1908  -8.0553  -7.8376  -7.8292  -7.6688  -7.5737
    -7.4879  -7.4398  -7.4008  -7.2467  -7.2162  -7.1914  -7.1132  -7.0953
    -7.0695  -7.0490  -7.0305  -7.0084  -6.9800  -6.9365  -6.8571  -6.7760
    -6.7332  -6.7259  -6.7201  -6.6935  -6.6872  -6.6745  -6.6704  -6.6604
    -6.6308  -6.6199  -6.6091  -6.5943  -6.5884  -6.5742  -6.5558  -6.5454
    -6.5242  -6.5110  -6.5013  -6.4885  -6.4813  -6.4415  -6.4303  -6.4117
    -6.4076  -6.4021  -6.3954  -6.3648  -6.3434  -6.2695  -6.2609  -6.2329
    -6.2251  -6.2059  -6.1820  -6.1544  -6.0903  -6.0431  -6.0112  -5.9703
    -5.9403  -5.9273  -5.9231  -5.8770  -5.8346  -5.8237  -5.8186  -5.8111
    -5.7920  -5.7842  -5.7712  -5.7641  -5.7621  -5.7603  -5.7540  -5.7485
    -5.7384  -5.7328  -5.7259  -5.7147  -5.7064  -5.6938  -5.6830  -5.6795
    -5.6759  -5.6692  -5.6645  -5.6626  -5.6578  -5.6550  -5.6422  -5.6223
    -5.6150  -5.5883  -5.5660  -5.5644  -5.5616  -5.5539  -5.5332  -5.5267
    -5.5202  -5.5153  -5.4945  -5.4872  -5.4671  -5.4185  -5.3897  -5.3798
    -5.3610  -5.3275  -5.3123  -5.3068  -5.2867  -5.2813  -5.2306  -5.2217
    -5.2125  -5.2013  -5.1960  -5.1847  -5.1764  -5.1737  -5.1651  -5.1604
    -5.1571  -5.1423  -5.1238  -5.1147  -5.1113  -5.0927  -5.0758  -5.0690
    -5.0586  -5.0531  -5.0182  -4.9912  -4.9790  -4.9711  -4.9646  -4.9481
    -4.9376  -4.9262  -4.9181  -4.9094  -4.9021  -4.8982  -4.8880  -4.8832
    -4.8705  -4.8675  -4.8624  -4.8524  -4.8334  -4.8132  -4.7970  -4.7749
    -4.7495  -4.7435  -4.7263  -4.7177  -4.7077  -4.6884  -4.6769  -4.6689
    -4.6582  -4.6455  -4.6282  -4.6199  -4.6065  -4.5624  -4.5559  -4.5459
    -4.5188  -4.4990  -4.4683  -4.4478  -4.4376  -4.4187  -4.3562  -4.2994
    -4.2521  -4.2428  -4.2093  -4.1990  -4.1855  -4.1768  -4.1542  -4.1361
    -4.1199  -4.1136  -4.1011  -4.0838  -4.0789  -4.0756  -4.0643  -4.0558
    -4.0452  -4.0335  -4.0201  -3.9992  -3.9921  -3.9741  -3.9670  -3.9463
    -3.9376  -3.9238  -3.9115  -3.9055  -3.8939  -3.8901  -3.8809  -3.8781
    -3.8748  -3.8637  -3.8579  -3.8445  -3.8383  -3.8277  -3.8148  -3.7969
    -3.7889  -3.7785  -3.7771  -3.7689  -3.7596  -3.7518  -3.7495  -3.7464
    -3.7396  -3.7341  -3.7291  -3.7224  -3.7207  -3.7068  -3.7039  -3.6971
    -3.6913  -3.6829  -3.6780  -3.6690  -3.6645  -3.6526  -3.6508  -3.6494
    -3.6444  -3.6391  -3.6349  -3.6304  -3.6267  -3.6232  -3.6170  -3.6122
    -3.6015  -3.5986  -3.5911  -3.5868  -3.5800  -3.5767  -3.5720  -3.5658
    -3.5635  -3.5580  -3.5538  -3.5412  -3.5367  -3.5311  -3.5163  -3.5133
    -3.5099  -3.4941  -3.4801  -3.4671  -3.4447  -3.4315  -3.4282  -3.4149
    -3.4086  -3.4042  -3.4022  -3.3886  -3.3814  -3.3750  -3.3718  -3.3687
    -3.3487  -3.3331  -3.3114  -3.3024  -3.2932  -3.2900  -3.2839  -3.2762
    -3.2626  -3.2585  -3.2514  -3.2454  -3.2373  -3.2251  -3.2042  -3.1742
    -3.1488  -3.1306  -3.0924  -3.0768  -3.0684  -2.9061  -2.8742  -2.8558
    -2.8519  -2.8307  -2.8206  -2.8046  -2.7858  -2.7670  -2.7331  -2.7065
    -2.6935  -2.6831  -2.6767  -2.6647  -2.6526  -2.6431  -2.6316  -2.6146
    -2.5830  -2.5707  -2.5558  -2.5295  -2.5083  -2.4866  -2.4569  -2.3996
    -2.3190  -2.1053  -2.0784  -1.9296  -1.8300  -1.6767  -1.6309  -1.5232
    -1.4535  -1.3628  -1.2952  -1.1882  -1.1302  -1.0962  -1.0255  -0.9345
    -0.7424  -0.6857  -0.6557

          k = 0.0000-0.5303 0.0000 (128388 PWs)   bands (ev):

   -90.7038 -90.6919 -90.6880 -90.6863 -90.6848 -90.6818 -90.6793 -90.6781
   -90.6725 -90.6718 -90.6697 -90.6663 -90.6651 -90.6597 -90.6596 -90.6535
   -90.6520 -90.6513 -90.6494 -90.6455 -90.6455 -90.6447 -90.6438 -90.6415
   -90.6404 -90.6326 -90.6324 -90.6295 -90.6278 -90.6252 -90.6137 -90.6095
   -90.6064 -90.5543 -90.5478 -90.5379 -90.5345 -90.5324 -90.5299 -90.5242
   -90.5219 -90.5188 -90.5166 -90.5138 -90.5126 -90.5118 -90.5082 -90.5065
   -90.5062 -90.5050 -90.5045 -90.5022 -90.5008 -90.4980 -90.4950 -90.4911
   -90.4897 -90.4878 -90.4805 -90.4786 -90.4698 -90.4673 -90.4620 -90.4594
   -56.9022 -56.8987 -56.8898 -56.8807 -56.8766 -56.8752 -56.8717 -56.8672
   -56.8652 -56.8615 -56.8603 -56.8590 -56.8583 -56.8546 -56.8521 -56.8509
   -56.8500 -56.8463 -56.8457 -56.8429 -56.8412 -56.8373 -56.8367 -56.8347
   -56.8334 -56.8230 -56.8225 -56.8216 -56.8187 -56.8119 -56.8017 -56.8008
   -56.7979 -56.7948 -56.7910 -56.7890 -56.7878 -56.7863 -56.7859 -56.7827
   -56.7784 -56.7737 -56.7612 -56.7594 -56.7572 -56.7537 -56.7465 -56.7457
   -56.7403 -56.7364 -56.7308 -56.7303 -56.7265 -56.7232 -56.7202 -56.7180
   -56.7117 -56.7030 -56.6998 -56.6973 -56.6957 -56.6906 -56.6882 -56.6865
   -56.6836 -56.6829 -56.6818 -56.6799 -56.6795 -56.6774 -56.6729 -56.6709
   -56.6687 -56.6675 -56.6664 -56.6648 -56.6609 -56.6599 -56.6554 -56.6548
   -56.6529 -56.6516 -56.6484 -56.6455 -56.6435 -56.6421 -56.6398 -56.6375
   -56.6353 -56.6307 -56.6229 -56.6161 -56.6141 -56.6105 -56.6085 -56.6070
   -56.6037 -56.6016 -56.5976 -56.5962 -56.5924 -56.5887 -56.5881 -56.5828
   -56.5806 -56.5800 -56.5791 -56.5758 -56.5739 -56.5728 -56.5721 -56.5718
   -56.5716 -56.5705 -56.5687 -56.5672 -56.5645 -56.5631 -56.5591 -56.5578
   -56.5572 -56.5554 -56.5536 -56.5522 -56.5504 -56.5480 -56.5475 -56.5445
   -56.5429 -56.5367 -56.5322 -56.5314 -56.5312 -56.5293 -56.5270 -56.5235
   -56.5214 -56.5197 -56.5186 -56.5142 -56.5108 -56.5096 -56.5080 -56.5066
   -56.5049 -56.5020 -56.4992 -56.4977 -56.4952 -56.4938 -56.4907 -56.4868
   -56.4864 -56.4842 -56.4832 -56.4802 -56.4773 -56.4760 -56.4749 -56.4717
   -56.4675 -56.4634 -56.4607 -56.4581 -56.4575 -56.4532 -56.4465 -56.4428
   -56.4416 -56.4401 -56.4386 -56.4376 -56.4332 -56.4331 -56.4317 -56.4303
   -56.4292 -56.4285 -56.4274 -56.4244 -56.4218 -56.4208 -56.4202 -56.4170
   -56.4152 -56.4142 -56.4106 -56.4097 -56.4048 -56.4040 -56.4010 -56.3998
   -19.9858 -11.1385 -10.1051 -10.0786  -9.6126  -9.2770  -8.8709  -8.8607
    -8.6202  -8.3843  -8.0010  -7.9797  -7.7870  -7.7399  -7.5334  -7.4770
    -7.4236  -7.3705  -7.3530  -7.3166  -7.2327  -7.2005  -7.1728  -7.1541
    -7.0346  -7.0124  -6.9988  -6.9396  -6.9270  -6.9197  -6.9135  -6.9035
    -6.8812  -6.8782  -6.8650  -6.8550  -6.8450  -6.7771  -6.7714  -6.7041
    -6.6501  -6.6217  -6.5987  -6.5586  -6.5558  -6.5552  -6.5478  -6.4833
    -6.4745  -6.4673  -6.4645  -6.4490  -6.4458  -6.4315  -6.4273  -6.4222
    -6.4136  -6.3709  -6.3499  -6.3065  -6.2977  -6.2885  -6.2854  -6.2768
    -6.2293  -6.2152  -6.1845  -6.1658  -6.1486  -6.1119  -6.0921  -6.0655
    -6.0517  -5.9625  -5.9513  -5.8669  -5.8417  -5.8125  -5.8111  -5.7957
    -5.7881  -5.7788  -5.7690  -5.7557  -5.7508  -5.7395  -5.7371  -5.7331
    -5.7304  -5.7181  -5.7129  -5.7093  -5.7035  -5.6927  -5.6913  -5.6875
    -5.6794  -5.6485  -5.6412  -5.5998  -5.5784  -5.5748  -5.5709  -5.5588
    -5.5475  -5.5322  -5.5252  -5.5218  -5.5194  -5.5142  -5.5062  -5.5004
    -5.4961  -5.4921  -5.4874  -5.4824  -5.4754  -5.4474  -5.4377  -5.4286
    -5.4097  -5.3974  -5.3595  -5.2974  -5.2730  -5.2402  -5.2273  -5.1964
    -5.1940  -5.1853  -5.1822  -5.1760  -5.1742  -5.1633  -5.1592  -5.1549
    -5.1505  -5.1387  -5.1332  -5.1310  -5.1252  -5.1235  -5.1210  -5.0975
    -5.0938  -5.0837  -5.0698  -5.0676  -5.0585  -5.0248  -5.0190  -5.0165
    -5.0067  -4.9941  -4.9837  -4.9639  -4.9597  -4.9551  -4.9400  -4.9185
    -4.8915  -4.8866  -4.8796  -4.8462  -4.8291  -4.8268  -4.8246  -4.7491
    -4.7151  -4.7045  -4.6808  -4.6780  -4.6761  -4.6642  -4.6559  -4.6481
    -4.6346  -4.6174  -4.5843  -4.5748  -4.5314  -4.4471  -4.3969  -4.3874
    -4.3738  -4.3634  -4.3369  -4.3323  -4.3290  -4.3204  -4.2945  -4.2853
    -4.2628  -4.2242  -4.2182  -4.2171  -4.2013  -4.1983  -4.1936  -4.1860
    -4.1738  -4.1680  -4.1562  -4.1519  -4.1472  -4.1421  -4.1215  -4.0617
    -4.0476  -4.0451  -4.0381  -4.0095  -4.0069  -4.0030  -3.9956  -3.9896
    -3.9620  -3.9501  -3.9157  -3.8997  -3.8912  -3.8898  -3.8844  -3.8793
    -3.8766  -3.8715  -3.8644  -3.8598  -3.8518  -3.8476  -3.8415  -3.8392
    -3.8331  -3.8269  -3.8256  -3.8186  -3.8122  -3.7988  -3.7610  -3.7592
    -3.7456  -3.7315  -3.7077  -3.7036  -3.7009  -3.6964  -3.6924  -3.6895
    -3.6844  -3.6724  -3.6687  -3.6659  -3.6631  -3.6567  -3.6517  -3.6500
    -3.6438  -3.6345  -3.6340  -3.6286  -3.6171  -3.6074  -3.5994  -3.5841
    -3.5830  -3.5761  -3.5692  -3.5594  -3.5328  -3.5312  -3.5198  -3.5153
    -3.5127  -3.5081  -3.4892  -3.4849  -3.4749  -3.4713  -3.4652  -3.4347
    -3.4297  -3.4244  -3.4224  -3.4199  -3.4151  -3.4104  -3.4092  -3.4069
    -3.4030  -3.3995  -3.3953  -3.3877  -3.3829  -3.3801  -3.3762  -3.3718
    -3.3691  -3.3611  -3.3214  -3.3195  -3.3074  -3.2790  -3.2438  -3.2386
    -3.1953  -3.1832  -3.1645  -3.1328  -3.1277  -3.1242  -3.1127  -3.0550
    -3.0118  -2.9971  -2.9926  -2.9778  -2.9723  -2.9678  -2.9545  -2.9138
    -2.9032  -2.9022  -2.8945  -2.8617  -2.8437  -2.8411  -2.8298  -2.8132
    -2.7617  -2.7492  -2.7386  -2.7125  -2.7007  -2.6850  -2.6703  -2.6480
    -2.6388  -2.6247  -2.6050  -2.6020  -2.5974  -2.5904  -2.5794  -2.5662
    -2.4615  -2.3314  -2.2498  -2.1888  -2.1340  -1.9230  -1.6073  -1.5648
    -1.5414  -1.3716  -1.0242  -0.9376  -0.8877  -0.8321  -0.8121  -0.7552
    -0.7335  -0.7055  -0.6767

          k = 0.2500-0.0884 0.0000 (128371 PWs)   bands (ev):

   -90.7041 -90.6924 -90.6893 -90.6863 -90.6820 -90.6804 -90.6803 -90.6777
   -90.6732 -90.6723 -90.6696 -90.6666 -90.6647 -90.6606 -90.6573 -90.6558
   -90.6525 -90.6493 -90.6492 -90.6483 -90.6475 -90.6425 -90.6418 -90.6412
   -90.6405 -90.6357 -90.6301 -90.6291 -90.6285 -90.6249 -90.6138 -90.6095
   -90.6063 -90.5558 -90.5449 -90.5378 -90.5353 -90.5330 -90.5287 -90.5261
   -90.5213 -90.5193 -90.5166 -90.5142 -90.5129 -90.5109 -90.5080 -90.5067
   -90.5057 -90.5049 -90.5033 -90.5021 -90.5015 -90.4971 -90.4959 -90.4927
   -90.4906 -90.4858 -90.4815 -90.4780 -90.4694 -90.4672 -90.4640 -90.4580
   -56.9053 -56.8969 -56.8888 -56.8821 -56.8780 -56.8709 -56.8700 -56.8672
   -56.8650 -56.8629 -56.8615 -56.8581 -56.8573 -56.8566 -56.8538 -56.8515
   -56.8500 -56.8472 -56.8444 -56.8433 -56.8408 -56.8396 -56.8364 -56.8337
   -56.8332 -56.8263 -56.8219 -56.8213 -56.8176 -56.8128 -56.8076 -56.8059
   -56.8032 -56.8010 -56.7962 -56.7925 -56.7913 -56.7863 -56.7845 -56.7804
   -56.7774 -56.7747 -56.7728 -56.7671 -56.7615 -56.7588 -56.7451 -56.7366
   -56.7339 -56.7260 -56.7200 -56.7192 -56.7168 -56.7162 -56.7131 -56.7068
   -56.7045 -56.7010 -56.6987 -56.6943 -56.6927 -56.6914 -56.6904 -56.6893
   -56.6871 -56.6857 -56.6838 -56.6833 -56.6805 -56.6780 -56.6747 -56.6739
   -56.6720 -56.6680 -56.6674 -56.6644 -56.6626 -56.6584 -56.6542 -56.6520
   -56.6465 -56.6437 -56.6407 -56.6382 -56.6375 -56.6350 -56.6316 -56.6277
   -56.6225 -56.6211 -56.6184 -56.6166 -56.6152 -56.6128 -56.6111 -56.6106
   -56.6073 -56.6043 -56.5993 -56.5982 -56.5966 -56.5951 -56.5921 -56.5902
   -56.5867 -56.5846 -56.5817 -56.5810 -56.5792 -56.5780 -56.5774 -56.5755
   -56.5744 -56.5719 -56.5704 -56.5695 -56.5660 -56.5643 -56.5611 -56.5603
   -56.5583 -56.5539 -56.5528 -56.5507 -56.5470 -56.5456 -56.5434 -56.5412
   -56.5391 -56.5378 -56.5348 -56.5325 -56.5310 -56.5301 -56.5288 -56.5274
   -56.5245 -56.5220 -56.5202 -56.5172 -56.5158 -56.5137 -56.5123 -56.5087
   -56.5070 -56.5054 -56.5007 -56.4976 -56.4953 -56.4940 -56.4917 -56.4890
   -56.4852 -56.4837 -56.4791 -56.4770 -56.4764 -56.4759 -56.4744 -56.4735
   -56.4705 -56.4669 -56.4637 -56.4596 -56.4586 -56.4572 -56.4546 -56.4513
   -56.4496 -56.4449 -56.4432 -56.4407 -56.4355 -56.4330 -56.4325 -56.4269
   -56.4247 -56.4197 -56.4186 -56.4181 -56.4165 -56.4139 -56.4130 -56.4122
   -56.4110 -56.4099 -56.4088 -56.4074 -56.4037 -56.4030 -56.4003 -56.3990
   -19.9858 -11.1380 -10.4099  -9.7471  -9.5371  -9.2399  -8.8922  -8.7663
    -8.5430  -8.4483  -8.1909  -8.0553  -7.8376  -7.8291  -7.6689  -7.5736
    -7.4879  -7.4398  -7.4010  -7.2467  -7.2162  -7.1915  -7.1132  -7.0953
    -7.0695  -7.0491  -7.0305  -7.0084  -6.9799  -6.9364  -6.8571  -6.7760
    -6.7332  -6.7259  -6.7201  -6.6935  -6.6872  -6.6745  -6.6704  -6.6604
    -6.6307  -6.6199  -6.6091  -6.5943  -6.5883  -6.5742  -6.5558  -6.5454
    -6.5242  -6.5111  -6.5014  -6.4884  -6.4813  -6.4416  -6.4303  -6.4116
    -6.4076  -6.4021  -6.3954  -6.3648  -6.3434  -6.2696  -6.2609  -6.2330
    -6.2251  -6.2059  -6.1821  -6.1544  -6.0903  -6.0431  -6.0112  -5.9703
    -5.9403  -5.9274  -5.9231  -5.8770  -5.8346  -5.8237  -5.8186  -5.8111
    -5.7920  -5.7842  -5.7712  -5.7641  -5.7621  -5.7603  -5.7540  -5.7485
    -5.7384  -5.7328  -5.7259  -5.7147  -5.7064  -5.6938  -5.6830  -5.6795
    -5.6759  -5.6692  -5.6645  -5.6626  -5.6578  -5.6551  -5.6422  -5.6223
    -5.6150  -5.5883  -5.5660  -5.5644  -5.5617  -5.5539  -5.5332  -5.5267
    -5.5202  -5.5152  -5.4945  -5.4872  -5.4671  -5.4185  -5.3897  -5.3798
    -5.3611  -5.3275  -5.3123  -5.3068  -5.2867  -5.2813  -5.2306  -5.2217
    -5.2126  -5.2013  -5.1960  -5.1847  -5.1764  -5.1737  -5.1651  -5.1604
    -5.1571  -5.1423  -5.1238  -5.1147  -5.1113  -5.0927  -5.0758  -5.0690
    -5.0586  -5.0531  -5.0182  -4.9911  -4.9790  -4.9711  -4.9646  -4.9481
    -4.9376  -4.9262  -4.9181  -4.9094  -4.9022  -4.8982  -4.8880  -4.8832
    -4.8705  -4.8675  -4.8624  -4.8525  -4.8334  -4.8131  -4.7970  -4.7749
    -4.7495  -4.7435  -4.7264  -4.7177  -4.7077  -4.6884  -4.6769  -4.6689
    -4.6582  -4.6455  -4.6282  -4.6200  -4.6065  -4.5624  -4.5559  -4.5459
    -4.5188  -4.4989  -4.4683  -4.4478  -4.4376  -4.4186  -4.3562  -4.2994
    -4.2521  -4.2428  -4.2093  -4.1991  -4.1855  -4.1767  -4.1542  -4.1361
    -4.1198  -4.1136  -4.1011  -4.0838  -4.0789  -4.0755  -4.0642  -4.0559
    -4.0452  -4.0335  -4.0202  -3.9992  -3.9921  -3.9741  -3.9670  -3.9464
    -3.9376  -3.9238  -3.9116  -3.9055  -3.8939  -3.8901  -3.8809  -3.8781
    -3.8749  -3.8637  -3.8579  -3.8445  -3.8383  -3.8277  -3.8148  -3.7969
    -3.7889  -3.7785  -3.7771  -3.7689  -3.7596  -3.7518  -3.7495  -3.7464
    -3.7396  -3.7341  -3.7291  -3.7224  -3.7207  -3.7068  -3.7039  -3.6971
    -3.6913  -3.6829  -3.6780  -3.6690  -3.6645  -3.6526  -3.6508  -3.6494
    -3.6445  -3.6391  -3.6349  -3.6304  -3.6267  -3.6231  -3.6170  -3.6122
    -3.6015  -3.5986  -3.5911  -3.5868  -3.5800  -3.5767  -3.5720  -3.5658
    -3.5635  -3.5580  -3.5538  -3.5412  -3.5367  -3.5311  -3.5163  -3.5133
    -3.5099  -3.4941  -3.4801  -3.4671  -3.4447  -3.4315  -3.4282  -3.4149
    -3.4086  -3.4042  -3.4022  -3.3886  -3.3814  -3.3750  -3.3718  -3.3687
    -3.3487  -3.3331  -3.3114  -3.3024  -3.2932  -3.2900  -3.2839  -3.2762
    -3.2626  -3.2585  -3.2514  -3.2454  -3.2373  -3.2251  -3.2042  -3.1742
    -3.1488  -3.1306  -3.0924  -3.0767  -3.0685  -2.9061  -2.8742  -2.8558
    -2.8519  -2.8307  -2.8206  -2.8046  -2.7859  -2.7670  -2.7331  -2.7065
    -2.6935  -2.6831  -2.6767  -2.6647  -2.6526  -2.6430  -2.6316  -2.6146
    -2.5830  -2.5707  -2.5558  -2.5295  -2.5083  -2.4866  -2.4569  -2.3996
    -2.3190  -2.1054  -2.0784  -1.9296  -1.8300  -1.6767  -1.6309  -1.5232
    -1.4535  -1.3628  -1.2953  -1.1881  -1.1302  -1.0961  -1.0256  -0.9345
    -0.7425  -0.6856  -0.6555

          k = 0.2500 0.1768 0.0000 (128340 PWs)   bands (ev):

   -90.7039 -90.6918 -90.6884 -90.6865 -90.6837 -90.6799 -90.6792 -90.6783
   -90.6745 -90.6723 -90.6718 -90.6675 -90.6636 -90.6562 -90.6559 -90.6557
   -90.6517 -90.6513 -90.6508 -90.6497 -90.6458 -90.6452 -90.6409 -90.6409
   -90.6396 -90.6343 -90.6315 -90.6289 -90.6285 -90.6250 -90.6137 -90.6095
   -90.6064 -90.5551 -90.5440 -90.5408 -90.5374 -90.5310 -90.5291 -90.5246
   -90.5211 -90.5197 -90.5144 -90.5134 -90.5129 -90.5124 -90.5082 -90.5066
   -90.5062 -90.5042 -90.5034 -90.5026 -90.5016 -90.4978 -90.4958 -90.4943
   -90.4911 -90.4840 -90.4808 -90.4782 -90.4702 -90.4656 -90.4647 -90.4585
   -56.9047 -56.8966 -56.8886 -56.8810 -56.8784 -56.8735 -56.8692 -56.8651
   -56.8650 -56.8633 -56.8617 -56.8594 -56.8575 -56.8574 -56.8535 -56.8510
   -56.8492 -56.8452 -56.8441 -56.8433 -56.8415 -56.8402 -56.8374 -56.8363
   -56.8301 -56.8251 -56.8228 -56.8205 -56.8177 -56.8119 -56.8027 -56.8021
   -56.8006 -56.7975 -56.7924 -56.7879 -56.7851 -56.7851 -56.7828 -56.7754
   -56.7704 -56.7672 -56.7668 -56.7661 -56.7640 -56.7612 -56.7473 -56.7380
   -56.7347 -56.7318 -56.7299 -56.7246 -56.7238 -56.7224 -56.7178 -56.7133
   -56.7104 -56.7098 -56.7082 -56.7054 -56.7024 -56.6956 -56.6928 -56.6882
   -56.6880 -56.6834 -56.6829 -56.6819 -56.6818 -56.6806 -56.6761 -56.6758
   -56.6719 -56.6694 -56.6682 -56.6657 -56.6618 -56.6577 -56.6526 -56.6516
   -56.6486 -56.6452 -56.6393 -56.6386 -56.6363 -56.6341 -56.6317 -56.6300
   -56.6278 -56.6244 -56.6186 -56.6164 -56.6138 -56.6135 -56.6126 -56.6058
   -56.6033 -56.5993 -56.5981 -56.5952 -56.5935 -56.5923 -56.5911 -56.5910
   -56.5901 -56.5882 -56.5860 -56.5844 -56.5814 -56.5796 -56.5784 -56.5752
   -56.5737 -56.5730 -56.5678 -56.5651 -56.5650 -56.5592 -56.5567 -56.5565
   -56.5551 -56.5534 -56.5506 -56.5493 -56.5492 -56.5452 -56.5440 -56.5413
   -56.5386 -56.5354 -56.5321 -56.5317 -56.5301 -56.5281 -56.5239 -56.5223
   -56.5215 -56.5186 -56.5176 -56.5108 -56.5105 -56.5082 -56.5081 -56.5051
   -56.5027 -56.5005 -56.4998 -56.4983 -56.4983 -56.4979 -56.4929 -56.4925
   -56.4897 -56.4810 -56.4804 -56.4779 -56.4770 -56.4761 -56.4716 -56.4676
   -56.4635 -56.4618 -56.4615 -56.4597 -56.4575 -56.4544 -56.4530 -56.4490
   -56.4489 -56.4472 -56.4408 -56.4400 -56.4375 -56.4357 -56.4329 -56.4283
   -56.4252 -56.4205 -56.4202 -56.4190 -56.4188 -56.4170 -56.4166 -56.4156
   -56.4146 -56.4137 -56.4125 -56.4094 -56.4093 -56.4058 -56.4038 -56.4013
   -19.9858 -11.1386 -10.3735  -9.7270  -9.4400  -9.1619  -9.1295  -8.9901
    -8.6215  -8.2204  -8.1847  -8.0819  -7.9541  -7.8366  -7.5915  -7.5109
    -7.4946  -7.3615  -7.2325  -7.2162  -7.1204  -7.1174  -7.1082  -7.0716
    -7.0497  -6.9993  -6.9940  -6.9914  -6.9765  -6.8944  -6.8917  -6.8625
    -6.7851  -6.7666  -6.7572  -6.7262  -6.7049  -6.6770  -6.6662  -6.6535
    -6.6321  -6.6181  -6.6069  -6.5985  -6.5964  -6.5938  -6.5911  -6.5892
    -6.5839  -6.5505  -6.5372  -6.5090  -6.5022  -6.4808  -6.4689  -6.4381
    -6.4251  -6.4008  -6.3765  -6.3728  -6.2910  -6.2540  -6.2444  -6.2006
    -6.1907  -6.1332  -6.1312  -6.1204  -6.1146  -6.0863  -6.0774  -6.0340
    -5.9596  -5.9356  -5.9135  -5.8761  -5.8494  -5.8356  -5.8282  -5.8254
    -5.8176  -5.8173  -5.8135  -5.8096  -5.8067  -5.8050  -5.7898  -5.7882
    -5.7797  -5.7756  -5.7543  -5.7343  -5.7081  -5.6835  -5.6744  -5.6724
    -5.6562  -5.6414  -5.6189  -5.6141  -5.6086  -5.6071  -5.5962  -5.5869
    -5.5803  -5.5697  -5.5526  -5.5492  -5.5248  -5.5033  -5.5026  -5.4652
    -5.4595  -5.4521  -5.4445  -5.4287  -5.4179  -5.4069  -5.3961  -5.3914
    -5.3819  -5.3796  -5.3727  -5.3696  -5.3638  -5.3522  -5.2873  -5.2847
    -5.2751  -5.2650  -5.2064  -5.2063  -5.1945  -5.1892  -5.1829  -5.1796
    -5.1708  -5.1499  -5.1305  -5.1108  -5.1087  -5.1037  -5.0886  -5.0750
    -5.0630  -5.0485  -5.0462  -5.0344  -5.0300  -5.0261  -5.0037  -4.9963
    -4.9610  -4.9445  -4.9310  -4.9203  -4.9159  -4.9018  -4.8949  -4.8704
    -4.8686  -4.8437  -4.8210  -4.7966  -4.7942  -4.7909  -4.7884  -4.7795
    -4.7760  -4.7698  -4.7657  -4.7570  -4.7567  -4.7501  -4.7487  -4.7445
    -4.7117  -4.7008  -4.6604  -4.6367  -4.6150  -4.5188  -4.4920  -4.4656
    -4.4411  -4.4197  -4.4142  -4.4086  -4.3555  -4.3251  -4.3029  -4.2854
    -4.2607  -4.2308  -4.2258  -4.1989  -4.1950  -4.1749  -4.1738  -4.1460
    -4.1172  -4.1111  -4.1019  -4.0983  -4.0871  -4.0690  -4.0530  -4.0342
    -4.0235  -4.0223  -4.0094  -3.9956  -3.9931  -3.9813  -3.9802  -3.9706
    -3.9532  -3.9465  -3.9368  -3.9310  -3.9101  -3.9088  -3.8881  -3.8741
    -3.8612  -3.8522  -3.8360  -3.8353  -3.8329  -3.8195  -3.8136  -3.8131
    -3.7998  -3.7990  -3.7840  -3.7600  -3.7588  -3.7464  -3.7437  -3.7431
    -3.7346  -3.7294  -3.7283  -3.7226  -3.7133  -3.7036  -3.6801  -3.6792
    -3.6752  -3.6712  -3.6620  -3.6543  -3.6477  -3.6362  -3.6338  -3.6162
    -3.6119  -3.6101  -3.6016  -3.5938  -3.5875  -3.5845  -3.5768  -3.5742
    -3.5722  -3.5451  -3.5346  -3.5317  -3.5307  -3.5243  -3.5241  -3.5185
    -3.5130  -3.5121  -3.5061  -3.5032  -3.4984  -3.4880  -3.4804  -3.4757
    -3.4731  -3.4667  -3.4512  -3.4490  -3.4355  -3.4349  -3.4274  -3.4267
    -3.4181  -3.4157  -3.4090  -3.3938  -3.3912  -3.3770  -3.3706  -3.3603
    -3.3561  -3.3396  -3.3282  -3.3178  -3.3039  -3.2743  -3.2719  -3.2476
    -3.2408  -3.2263  -3.2206  -3.2099  -3.1968  -3.1892  -3.1365  -3.1244
    -3.1218  -3.0964  -3.0927  -3.0742  -3.0688  -2.9294  -2.9120  -2.8715
    -2.8547  -2.8331  -2.8150  -2.7618  -2.7531  -2.7355  -2.7097  -2.6896
    -2.6723  -2.6563  -2.6498  -2.6468  -2.6430  -2.6393  -2.6332  -2.6254
    -2.5598  -2.5388  -2.4651  -2.4527  -2.4282  -2.4059  -2.3449  -2.3266
    -2.2477  -2.1421  -2.1106  -1.9785  -1.8152  -1.7148  -1.6875  -1.6700
    -1.6274  -1.5792  -1.5445  -1.5403  -1.5023  -1.4717  -1.3746  -1.2414
    -1.1686  -0.9369  -0.9041

          k = 0.2500-0.6187 0.0000 (128424 PWs)   bands (ev):

   -90.7036 -90.6910 -90.6883 -90.6855 -90.6840 -90.6834 -90.6788 -90.6778
   -90.6766 -90.6722 -90.6721 -90.6645 -90.6604 -90.6593 -90.6579 -90.6556
   -90.6519 -90.6514 -90.6497 -90.6486 -90.6483 -90.6419 -90.6414 -90.6407
   -90.6401 -90.6343 -90.6323 -90.6291 -90.6278 -90.6255 -90.6136 -90.6095
   -90.6065 -90.5534 -90.5468 -90.5421 -90.5365 -90.5304 -90.5271 -90.5242
   -90.5215 -90.5189 -90.5160 -90.5142 -90.5131 -90.5122 -90.5088 -90.5064
   -90.5053 -90.5044 -90.5034 -90.5018 -90.5015 -90.4986 -90.4970 -90.4928
   -90.4903 -90.4848 -90.4807 -90.4783 -90.4706 -90.4659 -90.4623 -90.4600
   -56.9015 -56.8981 -56.8899 -56.8807 -56.8768 -56.8737 -56.8732 -56.8681
   -56.8641 -56.8632 -56.8601 -56.8593 -56.8571 -56.8553 -56.8508 -56.8503
   -56.8485 -56.8476 -56.8453 -56.8433 -56.8415 -56.8394 -56.8388 -56.8333
   -56.8299 -56.8252 -56.8226 -56.8201 -56.8182 -56.8115 -56.7992 -56.7972
   -56.7917 -56.7884 -56.7846 -56.7832 -56.7814 -56.7803 -56.7801 -56.7781
   -56.7735 -56.7700 -56.7648 -56.7618 -56.7548 -56.7539 -56.7487 -56.7465
   -56.7434 -56.7423 -56.7415 -56.7401 -56.7336 -56.7257 -56.7236 -56.7206
   -56.7163 -56.7132 -56.7084 -56.7025 -56.6994 -56.6975 -56.6947 -56.6922
   -56.6903 -56.6862 -56.6846 -56.6807 -56.6775 -56.6755 -56.6722 -56.6710
   -56.6691 -56.6676 -56.6641 -56.6627 -56.6622 -56.6612 -56.6589 -56.6567
   -56.6512 -56.6501 -56.6478 -56.6470 -56.6438 -56.6388 -56.6366 -56.6331
   -56.6320 -56.6298 -56.6270 -56.6239 -56.6188 -56.6143 -56.6087 -56.6071
   -56.6032 -56.5996 -56.5977 -56.5963 -56.5921 -56.5892 -56.5869 -56.5836
   -56.5816 -56.5811 -56.5785 -56.5756 -56.5753 -56.5743 -56.5720 -56.5704
   -56.5703 -56.5673 -56.5662 -56.5651 -56.5610 -56.5602 -56.5569 -56.5551
   -56.5538 -56.5524 -56.5511 -56.5495 -56.5480 -56.5463 -56.5451 -56.5433
   -56.5415 -56.5365 -56.5350 -56.5323 -56.5283 -56.5269 -56.5212 -56.5204
   -56.5176 -56.5153 -56.5134 -56.5131 -56.5110 -56.5097 -56.5074 -56.5043
   -56.5026 -56.5007 -56.4984 -56.4966 -56.4957 -56.4915 -56.4904 -56.4894
   -56.4862 -56.4846 -56.4818 -56.4784 -56.4752 -56.4740 -56.4710 -56.4658
   -56.4637 -56.4601 -56.4589 -56.4562 -56.4538 -56.4508 -56.4461 -56.4432
   -56.4420 -56.4403 -56.4384 -56.4380 -56.4352 -56.4337 -56.4328 -56.4310
   -56.4301 -56.4290 -56.4276 -56.4263 -56.4256 -56.4247 -56.4221 -56.4192
   -56.4178 -56.4162 -56.4155 -56.4134 -56.4105 -56.4085 -56.4066 -56.4028
   -19.9858 -11.1390 -10.1331  -9.8697  -9.6606  -9.3966  -9.1548  -8.6695
    -8.6160  -8.3571  -8.1835  -8.0767  -7.6551  -7.5540  -7.4331  -7.4109
    -7.3806  -7.3504  -7.3058  -7.2729  -7.2529  -7.1505  -7.0980  -7.0869
    -7.0816  -7.0651  -7.0205  -6.9648  -6.9484  -6.9328  -6.9192  -6.9029
    -6.8952  -6.8639  -6.8579  -6.8158  -6.7837  -6.7699  -6.7603  -6.7567
    -6.7312  -6.6996  -6.6733  -6.6606  -6.6434  -6.6236  -6.5824  -6.5669
    -6.5194  -6.5173  -6.4743  -6.4498  -6.4407  -6.4031  -6.3921  -6.3730
    -6.3368  -6.3157  -6.3092  -6.2911  -6.2759  -6.2674  -6.2539  -6.2212
    -6.2141  -6.1744  -6.1662  -6.1547  -6.1250  -6.1145  -6.1092  -6.0928
    -6.0498  -6.0119  -6.0086  -5.9264  -5.9068  -5.8585  -5.8497  -5.8405
    -5.8235  -5.8181  -5.8078  -5.8063  -5.7958  -5.7747  -5.7494  -5.7229
    -5.7015  -5.6872  -5.6777  -5.6741  -5.6660  -5.6492  -5.6322  -5.6147
    -5.6120  -5.6078  -5.5963  -5.5936  -5.5911  -5.5863  -5.5852  -5.5746
    -5.5548  -5.5449  -5.5382  -5.5209  -5.5108  -5.5005  -5.4849  -5.4778
    -5.4695  -5.4590  -5.4563  -5.4399  -5.4280  -5.4139  -5.4091  -5.3758
    -5.3704  -5.3616  -5.3549  -5.3516  -5.3413  -5.3285  -5.3231  -5.3131
    -5.2992  -5.2927  -5.2837  -5.2783  -5.2693  -5.2553  -5.2476  -5.2369
    -5.2281  -5.2083  -5.1972  -5.1722  -5.1593  -5.1146  -5.0721  -5.0507
    -5.0482  -5.0391  -5.0338  -5.0203  -5.0089  -5.0033  -4.9990  -4.9934
    -4.9779  -4.9723  -4.9695  -4.9535  -4.9490  -4.9444  -4.9355  -4.9148
    -4.8994  -4.8952  -4.8791  -4.8673  -4.8623  -4.8298  -4.8183  -4.7823
    -4.7561  -4.7366  -4.7099  -4.6909  -4.6686  -4.6614  -4.6436  -4.6175
    -4.5818  -4.5449  -4.5297  -4.5129  -4.4803  -4.4605  -4.4497  -4.4142
    -4.4008  -4.3848  -4.3596  -4.3422  -4.3268  -4.2992  -4.2888  -4.2802
    -4.2657  -4.2487  -4.2407  -4.2357  -4.2322  -4.2197  -4.2047  -4.1884
    -4.1504  -4.1429  -4.1345  -4.1087  -4.1053  -4.0784  -4.0735  -4.0568
    -4.0437  -4.0339  -4.0249  -4.0196  -4.0095  -3.9993  -3.9909  -3.9829
    -3.9658  -3.9459  -3.9409  -3.9284  -3.9182  -3.9136  -3.8919  -3.8801
    -3.8767  -3.8695  -3.8629  -3.8587  -3.8541  -3.8461  -3.8313  -3.8283
    -3.8183  -3.8145  -3.7980  -3.7912  -3.7842  -3.7663  -3.7469  -3.7434
    -3.7320  -3.7211  -3.7131  -3.7057  -3.6980  -3.6967  -3.6869  -3.6791
    -3.6758  -3.6703  -3.6675  -3.6440  -3.6394  -3.6312  -3.6266  -3.6233
    -3.6155  -3.6086  -3.6022  -3.5889  -3.5796  -3.5716  -3.5669  -3.5631
    -3.5573  -3.5477  -3.5388  -3.5359  -3.5304  -3.5282  -3.5183  -3.5054
    -3.5021  -3.4971  -3.4842  -3.4744  -3.4693  -3.4666  -3.4611  -3.4601
    -3.4500  -3.4436  -3.4392  -3.4249  -3.4234  -3.4182  -3.4106  -3.4091
    -3.3954  -3.3782  -3.3665  -3.3577  -3.3483  -3.3364  -3.3304  -3.3099
    -3.3025  -3.2963  -3.2785  -3.2605  -3.2292  -3.2122  -3.2075  -3.1709
    -3.1537  -3.1527  -3.1368  -3.1045  -3.0876  -3.0705  -3.0555  -3.0262
    -3.0135  -3.0038  -2.9983  -2.9856  -2.9603  -2.9310  -2.9145  -2.9078
    -2.8906  -2.8719  -2.8489  -2.8339  -2.8207  -2.8013  -2.7818  -2.7783
    -2.7633  -2.7498  -2.7125  -2.7032  -2.6919  -2.6835  -2.6747  -2.6550
    -2.6502  -2.6295  -2.6086  -2.5916  -2.5699  -2.5518  -2.5407  -2.4761
    -2.4443  -2.3293  -2.2882  -2.0804  -2.0455  -1.9496  -1.9097  -1.7797
    -1.7418  -1.7118  -1.6011  -1.4474  -1.3347  -1.2148  -1.0126  -0.9900
    -0.9064  -0.8698  -0.7963

          k = 0.2500-0.3536 0.0000 (128397 PWs)   bands (ev):

   -90.7038 -90.6919 -90.6877 -90.6875 -90.6832 -90.6810 -90.6791 -90.6780
   -90.6774 -90.6725 -90.6673 -90.6639 -90.6625 -90.6607 -90.6605 -90.6567
   -90.6522 -90.6498 -90.6491 -90.6487 -90.6458 -90.6434 -90.6414 -90.6407
   -90.6388 -90.6374 -90.6305 -90.6290 -90.6280 -90.6253 -90.6137 -90.6095
   -90.6064 -90.5546 -90.5458 -90.5422 -90.5327 -90.5306 -90.5290 -90.5256
   -90.5214 -90.5188 -90.5170 -90.5158 -90.5125 -90.5117 -90.5086 -90.5062
   -90.5057 -90.5047 -90.5030 -90.5016 -90.5004 -90.4989 -90.4972 -90.4902
   -90.4896 -90.4876 -90.4813 -90.4781 -90.4701 -90.4666 -90.4627 -90.4591
   -56.9026 -56.8980 -56.8898 -56.8819 -56.8775 -56.8722 -56.8715 -56.8689
   -56.8647 -56.8642 -56.8618 -56.8568 -56.8554 -56.8529 -56.8518 -56.8515
   -56.8509 -56.8493 -56.8448 -56.8428 -56.8409 -56.8401 -56.8371 -56.8322
   -56.8303 -56.8278 -56.8218 -56.8203 -56.8182 -56.8120 -56.8019 -56.8011
   -56.7976 -56.7964 -56.7936 -56.7909 -56.7855 -56.7810 -56.7798 -56.7790
[...]
    -0.9185  -0.9152  -0.8975  -0.8955  -0.8790  -0.8731  -0.8585  -0.8343
    -0.8310  -0.8244  -0.8149  -0.8108  -0.8076  -0.7914  -0.7828  -0.7746
    -0.7687  -0.7628  -0.7551  -0.7407  -0.7375  -0.7289  -0.7144  -0.7093
    -0.7025  -0.6909  -0.6840  -0.6792  -0.6689  -0.6559  -0.6392  -0.6255
    -0.6094  -0.6070  -0.6002  -0.5917  -0.5827  -0.5779  -0.5757  -0.5711
    -0.5646  -0.5564  -0.5522  -0.5427  -0.5360  -0.5237  -0.5180  -0.5113
    -0.4914  -0.4866  -0.4755  -0.4673  -0.4610  -0.4522  -0.4504  -0.4479
    -0.4452  -0.4407  -0.4332  -0.4138  -0.4127  -0.4065  -0.3942  -0.3775
    -0.3721  -0.3697  -0.3609  -0.3532  -0.3395  -0.3337  -0.3215  -0.2910
    -0.2840  -0.2771  -0.2572  -0.2536  -0.2389  -0.2350  -0.2314  -0.2242
    -0.2191  -0.2122  -0.1997  -0.1728  -0.1537  -0.1380  -0.1351  -0.1248
    -0.1051  -0.1012  -0.0842  -0.0489   0.0522   0.0654   0.1291   0.1516
     0.1779   0.2358   0.3124   0.3883   0.4021   0.4948   0.6155   0.6489
     0.7267   0.7535   0.7873

          k =-0.5000-0.3536 0.0000 (128560 PWs)   bands (ev):

   -87.9496 -87.9466 -87.7639 -87.7629 -87.7144 -87.7061 -87.7047 -87.6959
   -87.6825 -87.6820 -87.6729 -87.6724 -87.6654 -87.6631 -87.6586 -87.6581
   -87.6527 -87.6525 -87.6501 -87.6499 -87.6459 -87.6432 -87.6414 -87.6364
   -87.6354 -87.6342 -87.6341 -87.6317 -87.6317 -87.6276 -87.6263 -87.6221
   -87.6217 -87.6155 -87.6131 -87.6102 -87.6074 -87.5994 -87.5924 -87.5914
   -87.5897 -87.5889 -87.5884 -87.5878 -87.5845 -87.5804 -87.5786 -87.5718
   -87.5705 -87.5686 -87.5681 -87.5675 -87.5662 -87.5653 -87.5623 -87.5614
   -87.5579 -87.5559 -87.5534 -87.5476 -87.5462 -87.5442 -87.5430 -87.5389
   -54.2738 -54.2582 -54.0653 -54.0581 -54.0112 -53.9965 -53.9827 -53.9763
   -53.9691 -53.9647 -53.9555 -53.9513 -53.9498 -53.9487 -53.9480 -53.9462
   -53.9395 -53.9383 -53.9373 -53.9359 -53.9332 -53.9290 -53.9246 -53.9227
   -53.9226 -53.9185 -53.9183 -53.9175 -53.9130 -53.9074 -53.9044 -53.8995
   -53.8982 -53.8920 -53.8911 -53.8878 -53.8872 -53.8816 -53.8779 -53.8773
   -53.8756 -53.8685 -53.8649 -53.8647 -53.8628 -53.8627 -53.8614 -53.8578
   -53.8553 -53.8500 -53.8497 -53.8470 -53.8436 -53.8422 -53.8420 -53.8389
   -53.8372 -53.8360 -53.8357 -53.8338 -53.8327 -53.8309 -53.8298 -53.8276
   -53.8172 -53.8133 -53.8068 -53.8024 -53.8019 -53.7974 -53.7962 -53.7936
   -53.7890 -53.7829 -53.7827 -53.7752 -53.7717 -53.7680 -53.7679 -53.7595
   -53.7587 -53.7539 -53.7503 -53.7484 -53.7456 -53.7439 -53.7408 -53.7402
   -53.7387 -53.7379 -53.7335 -53.7333 -53.7308 -53.7295 -53.7272 -53.7189
   -53.7180 -53.7162 -53.7154 -53.7124 -53.7102 -53.7094 -53.7063 -53.7037
   -53.6977 -53.6943 -53.6942 -53.6920 -53.6914 -53.6910 -53.6903 -53.6854
   -53.6810 -53.6793 -53.6792 -53.6773 -53.6748 -53.6726 -53.6711 -53.6674
   -53.6674 -53.6670 -53.6663 -53.6644 -53.6631 -53.6626 -53.6571 -53.6560
   -53.6546 -53.6536 -53.6511 -53.6502 -53.6471 -53.6438 -53.6405 -53.6371
   -53.6343 -53.6318 -53.6317 -53.6298 -53.6295 -53.6278 -53.6272 -53.6257
   -53.6254 -53.6239 -53.6226 -53.6224 -53.6224 -53.6187 -53.6179 -53.6170
   -53.6143 -53.6118 -53.6099 -53.6085 -53.6079 -53.6057 -53.6051 -53.6031
   -53.6028 -53.6005 -53.5993 -53.5987 -53.5986 -53.5977 -53.5971 -53.5966
   -53.5961 -53.5946 -53.5936 -53.5932 -53.5927 -53.5899 -53.5872 -53.5853
   -53.5849 -53.5834 -53.5814 -53.5813 -53.5782 -53.5771 -53.5768 -53.5746
   -53.5724 -53.5724 -53.5722 -53.5707 -53.5691 -53.5656 -53.5642 -53.5637
   -19.9321 -11.0354  -9.8117  -9.6479  -9.3781  -9.0691  -9.0675  -8.6720
    -8.3426  -7.8747  -7.8559  -7.4766  -7.1423  -7.0611  -7.0552  -6.9999
    -6.7721  -6.6439  -6.3796  -6.2160  -6.2086  -6.2046  -6.1872  -6.1746
    -6.1423  -6.0909  -6.0839  -6.0761  -6.0749  -5.9960  -5.8374  -5.6612
    -5.6607  -5.6478  -5.6429  -5.6000  -5.5383  -5.4353  -5.3671  -5.1882
    -5.1724  -5.1544  -5.1398  -5.1340  -5.0861  -5.0840  -5.0567  -5.0492
    -5.0298  -5.0099  -4.9633  -4.8901  -4.8899  -4.8740  -4.8691  -4.8331
    -4.7885  -4.6262  -4.6092  -4.6041  -4.6023  -4.5943  -4.5513  -4.3819
    -4.3354  -4.3240  -4.2946  -4.2802  -4.2730  -4.1880  -4.1646  -4.1095
    -4.0966  -4.0941  -4.0778  -4.0755  -4.0732  -4.0640  -4.0605  -4.0597
    -4.0406  -3.9937  -3.9766  -3.9749  -3.9635  -3.9593  -3.9558  -3.9553
    -3.9496  -3.9373  -3.9369  -3.8744  -3.8452  -3.7565  -3.7361  -3.7225
    -3.7177  -3.6217  -3.6102  -3.6084  -3.5991  -3.5820  -3.5695  -3.5629
    -3.5546  -3.5529  -3.5386  -3.5338  -3.5317  -3.5221  -3.5200  -3.5159
    -3.5019  -3.4965  -3.4936  -3.4794  -3.4744  -3.4663  -3.4628  -3.4613
    -3.4594  -3.4514  -3.4479  -3.4364  -3.4361  -3.4109  -3.4075  -3.4030
    -3.3768  -3.3716  -3.3638  -3.3602  -3.3561  -3.3468  -3.3467  -3.3427
    -3.3381  -3.3355  -3.3300  -3.3245  -3.2917  -3.2723  -3.2485  -3.1612
    -3.1414  -3.0945  -3.0919  -3.0897  -3.0881  -3.0702  -3.0552  -3.0358
    -3.0247  -3.0155  -2.9940  -2.9735  -2.9220  -2.9103  -2.8970  -2.8750
    -2.8728  -2.8675  -2.8486  -2.8467  -2.8404  -2.8296  -2.7819  -2.7811
    -2.6829  -2.6594  -2.6435  -2.6427  -2.6377  -2.6077  -2.5999  -2.5816
    -2.5753  -2.5625  -2.5610  -2.5459  -2.4925  -2.4767  -2.4704  -2.4586
    -2.4458  -2.4456  -2.4360  -2.4269  -2.3972  -2.2249  -2.1602  -2.1579
    -2.1092  -2.0524  -2.0479  -1.9941  -1.9319  -1.8216  -1.8087  -1.7916
    -1.7763  -1.7724  -1.7277  -1.7157  -1.6827  -1.6537  -1.6422  -1.6214
    -1.6132  -1.6019  -1.5850  -1.5406  -1.5301  -1.5221  -1.5066  -1.4912
    -1.4848  -1.4557  -1.4352  -1.4109  -1.3865  -1.3561  -1.3503  -1.3182
    -1.3135  -1.3026  -1.2898  -1.2836  -1.2731  -1.2713  -1.2627  -1.2518
    -1.2461  -1.2452  -1.2417  -1.2230  -1.1879  -1.1848  -1.1798  -1.1373
    -1.1193  -1.1185  -1.1086  -1.0720  -1.0551  -1.0512  -1.0158  -0.9940
    -0.9827  -0.9668  -0.9361  -0.9338  -0.8868  -0.8861  -0.8635  -0.8501
    -0.8484  -0.8429  -0.8421  -0.8365  -0.8283  -0.8231  -0.8174  -0.8115
    -0.7925  -0.7909  -0.7865  -0.7799  -0.7747  -0.7677  -0.7659  -0.7613
    -0.7491  -0.7245  -0.7199  -0.7100  -0.6989  -0.6972  -0.6950  -0.6903
    -0.6838  -0.6811  -0.6765  -0.6585  -0.6545  -0.6537  -0.6401  -0.6343
    -0.6293  -0.6241  -0.6138  -0.6045  -0.5977  -0.5958  -0.5932  -0.5927
    -0.5900  -0.5880  -0.5725  -0.5614  -0.5501  -0.5448  -0.4950  -0.4691
    -0.4668  -0.4659  -0.4578  -0.4463  -0.4394  -0.4388  -0.4209  -0.4141
    -0.4106  -0.4088  -0.4029  -0.4019  -0.4006  -0.3998  -0.3944  -0.3893
    -0.3891  -0.3845  -0.3684  -0.3634  -0.3589  -0.3480  -0.3398  -0.3383
    -0.3321  -0.3259  -0.3219  -0.3194  -0.3061  -0.3047  -0.2939  -0.2880
    -0.2863  -0.2661  -0.2158  -0.2129  -0.2112  -0.2069  -0.2059  -0.1912
    -0.0660  -0.0546  -0.0108   0.0194   0.1332   0.1901   0.2215   0.2235
     0.2407   0.2661   0.2762   0.2822   0.3123   0.3162   0.3216   0.3472
     0.3655   0.4429   0.5174

     the Fermi energy is    -2.5295 ev

!    total energy              =  -21096.12482712 Ry
     Harris-Foulkes estimate   =  -21096.12482553 Ry
     estimated scf accuracy    <          9.3E-11 Ry

     The total energy is the sum of the following terms:

     one-electron contribution = -745208.10417842 Ry
     hartree contribution      =  372503.72758221 Ry
     xc contribution           =   -2235.82893438 Ry
     ewald contribution        =  358718.92118903 Ry
     Dispersion Correction     =      -1.40157708 Ry
     one-center paw contrib.   =   -4873.44005130 Ry
     smearing contrib. (-TS)   =       0.00114281 Ry

     total magnetization       =   161.43 Bohr mag/cell
     absolute magnetization    =   168.11 Bohr mag/cell

     convergence has been achieved in  15 iterations

     negative rho (up, down):  2.467E-02 1.955E-02

     Forces acting on atoms (cartesian axes, Ry/au):

     atom    1 type  1   force =     0.00043303    0.00001208    0.00974882
     atom    2 type  1   force =    -0.00114578    0.00160333   -0.00548794
     atom    3 type  1   force =    -0.00008075    0.00009967    0.00997465
     atom    4 type  1   force =    -0.00010246    0.00018157   -0.01099204
     atom    5 type  1   force =    -0.00001773   -0.00000262   -0.00001147
     atom    6 type  1   force =     0.00000939   -0.00000316    0.00004333
     atom    7 type  1   force =     0.00001141   -0.00000140   -0.00005152
     atom    8 type  1   force =     0.00003222   -0.00001002    0.00001732
     atom    9 type  1   force =    -0.00005099   -0.00004074    0.01000791
     atom   10 type  1   force =    -0.00015032   -0.00013211    0.00902790
     atom   11 type  1   force =     0.00012472   -0.00020321   -0.01110129
     atom   12 type  1   force =    -0.00047053   -0.00025799   -0.01020075
     atom   13 type  1   force =     0.00000018   -0.00000072    0.00000317
     atom   14 type  1   force =     0.00000898    0.00000891   -0.00002348
     atom   15 type  1   force =    -0.00002852   -0.00001359    0.00002930
     atom   16 type  1   force =    -0.00002266   -0.00000903   -0.00000561
     atom   17 type  1   force =     0.00008449   -0.00012762    0.00992824
     atom   18 type  1   force =     0.00017629   -0.00013518   -0.01101425
     atom   19 type  1   force =    -0.00001121    0.00008026    0.01007506
     atom   20 type  1   force =    -0.00004443   -0.00012922   -0.00641064
     atom   21 type  1   force =     0.00000132    0.00001328   -0.00005746
     atom   22 type  1   force =    -0.00000185    0.00003504    0.00001501
     atom   23 type  1   force =    -0.00000878    0.00000582   -0.00005404
     atom   24 type  1   force =    -0.00005153    0.00008172    0.00002586
     atom   25 type  1   force =     0.00003254   -0.00000921    0.00812023
     atom   26 type  1   force =     0.00004523   -0.00026076    0.00981945
     atom   27 type  1   force =     0.00001139   -0.00010817   -0.01108364
     atom   28 type  1   force =     0.00034914   -0.00020018   -0.01048741
     atom   29 type  1   force =     0.00000177    0.00000367   -0.00015256
     atom   30 type  1   force =     0.00002403   -0.00002021   -0.00010243
     atom   31 type  1   force =     0.00007469    0.00005082    0.00007382
     atom   32 type  1   force =     0.00003184    0.00002168    0.00001681
     atom   33 type  1   force =    -0.00023501   -0.00008034    0.00966073
     atom   34 type  1   force =     0.00027422   -0.00009999   -0.01102705
     atom   35 type  1   force =     0.00016864    0.00041390    0.00980753
     atom   36 type  1   force =     0.00103239   -0.00149302   -0.00550724
     atom   37 type  1   force =     0.00001977    0.00001743    0.00000493
     atom   38 type  1   force =    -0.00004044   -0.00000620    0.00000865
     atom   39 type  1   force =    -0.00000945   -0.00001501   -0.00000950
     atom   40 type  1   force =    -0.00000452    0.00001089    0.00005061
     atom   41 type  1   force =     0.00006816    0.00008608    0.00711517
     atom   42 type  1   force =    -0.00022906    0.00013687    0.00981515
     atom   43 type  1   force =     0.00011640    0.00017919   -0.00975085
     atom   44 type  1   force =    -0.00012841    0.00039357   -0.01047492
     atom   45 type  1   force =     0.00000560    0.00000254   -0.00003053
     atom   46 type  1   force =    -0.00001232    0.00002840   -0.00009883
     atom   47 type  1   force =     0.00004445    0.00002964    0.00004261
     atom   48 type  1   force =     0.00003115    0.00002554    0.00002547
     atom   49 type  1   force =     0.00011134   -0.00006830    0.01012341
     atom   50 type  1   force =    -0.00007280   -0.00009588   -0.00638669
     atom   51 type  1   force =    -0.00015396   -0.00019098    0.00962160
     atom   52 type  1   force =     0.00001566    0.00033009   -0.01100892
     atom   53 type  1   force =     0.00000414   -0.00000852   -0.00005085
     atom   54 type  1   force =     0.00006049   -0.00007780    0.00002104
     atom   55 type  1   force =     0.00002407    0.00001036    0.00000121
     atom   56 type  1   force =    -0.00002054   -0.00003857    0.00001281
     atom   57 type  1   force =    -0.00007543   -0.00002368    0.01001622
     atom   58 type  1   force =     0.00004875    0.00000376    0.00898299
     atom   59 type  1   force =    -0.00013646    0.00022437   -0.01108878
     atom   60 type  1   force =     0.00002532   -0.00008725   -0.01099525
     atom   61 type  1   force =    -0.00000178   -0.00000023    0.00000465
     atom   62 type  1   force =    -0.00001029   -0.00000614   -0.00002064
     atom   63 type  1   force =    -0.00002922   -0.00002353    0.00003181
     atom   64 type  1   force =    -0.00008171   -0.00005922    0.00005798
     atom   65 type  2   force =    -0.00002348   -0.00001988    0.00001035
     atom   66 type  3   force =     0.00006707    0.00003311    0.00003024
     atom   67 type  3   force =    -0.00009193   -0.00005297    0.00001557
     atom   68 type  3   force =    -0.00002588   -0.00001093    0.00011083

     Total force =     0.000408     Total SCF correction =     0.000048
     SCF correction compared to forces is large: reduce conv_thr to get better values

     bfgs converged in  12 scf cycles and  11 bfgs steps
     (criteria: energy <  7.3E-07 Ry, force <  3.9E-04 Ry/Bohr)

     End of BFGS Geometry Optimization

     Final energy   =  -21096.1248271159 Ry
Begin final coordinates

ATOMIC_POSITIONS (angstrom)
Fe       1.654912953   1.170200133   0.000000000    0   0   0
Fe       0.000000000   0.000000000   2.026984232    0   0   0
Fe       4.964738858   3.510600399   0.000000000    0   0   0
Fe       3.309825906   2.340400266   2.026984232    0   0   0
Fe       1.650451379   1.168151062   4.024229448
Fe       3.307031065   9.374267690   6.015949699
Fe       4.961298612   3.516782254   4.013376432
Fe       3.307257686   2.331758351   6.004809423
Fe       2.482363858   3.510600399   0.000000000    0   0   0
Fe       4.137287953   1.170200133   0.000000000    0   0   0
Fe       0.827450906   2.340400266   2.026984232    0   0   0
Fe       2.482375000   0.000000000   2.026984232    0   0   0
Fe       2.482599086   3.509678963   4.028545216
Fe       4.130576628   1.165459704   4.020535196
Fe       0.820101639   2.346787168   5.994116985
Fe       2.482648183   0.000352189   6.007795562
Fe       6.619662953   1.170200133   0.000000000    0   0   0
Fe       4.964750000   0.000000000   2.026984232    0   0   0
Fe       9.929488858   3.510600399   0.000000000    0   0   0
Fe       8.274575906   2.340400266   2.026984232    0   0   0
Fe       6.624354383   1.164814545   4.013458241
Fe       4.955614378   0.000397819   6.004693955
Fe       9.932427444   3.503504345   4.012022675
Fe       8.285500019   2.324672109   6.088278850
Fe       7.447113858   3.510600399   0.000000000    0   0   0
Fe       9.102037953   1.170200133   0.000000000    0   0   0
Fe       5.792200906   2.340400266   2.026984232    0   0   0
Fe       7.447125000   0.000000000   2.026984232    0   0   0
Fe       7.446813775   3.510194197   4.045981839
Fe       9.094194945   1.179008074   4.055679876
Fe       5.745205745   2.307151900   5.935162234
Fe      10.759707361   9.373499375   5.995029417
Fe       3.309814764   5.851000664   0.000000000    0   0   0
Fe       1.654901811   4.680800531   2.026984232    0   0   0
Fe       6.619640670   8.191400930   0.000000000    0   0   0
Fe       4.964727717   7.021200797   2.026984232    0   0   0
Fe       3.314831853   5.853724700   4.028223290
Fe      11.588617694   4.681570427   5.999468341
Fe       6.616082388   8.188171263   4.024223800
Fe       4.975348678   7.014956894   6.015999448
Fe       4.137265670   8.191400930   0.000000000    0   0   0
Fe       5.792189764   5.851000664   0.000000000    0   0   0
Fe       2.482352717   7.021200797   2.026984232    0   0   0
Fe       4.137276811   4.680800531   2.026984232    0   0   0
Fe       4.135489242   8.190564313   4.026352724
Fe       5.797727375   5.840929464   4.055690054
Fe      12.400422376   7.013364510   6.017169977
Fe       4.149379987   4.679647822   5.994993164
Fe       8.274564764   5.851000664   0.000000000    0   0   0
Fe       6.619651811   4.680800531   2.026984232    0   0   0
Fe      11.584390670   8.191400930   0.000000000    0   0   0
Fe       9.929477717   7.021200797   2.026984232    0   0   0
Fe       8.268921517   5.856063821   4.011887575
Fe       6.608805714   4.695704689   6.088021795
Fe      11.588426881   8.195551431   4.028288579
Fe       9.931448843   7.024847262   5.999780688
Fe       9.102015670   8.191400930   0.000000000    0   0   0
Fe      10.756939764   5.851000664   0.000000000    0   0   0
Fe       7.447102717   7.021200797   2.026984232    0   0   0
Fe       9.102026811   4.680800531   2.026984232    0   0   0
Fe       9.101201312   8.191999272   4.028592127
Fe      10.763277939   5.855516219   4.018020218
Fe       7.450536170   7.012094621   5.994205502
Fe       9.150468545   4.715092486   5.935086038
N        7.447254400   3.510479754   7.475138070
H        8.111897555   3.981184774   8.103691646
H        6.783059170   3.040497580   8.104707738
H        4.544408972   8.479715158   6.942054006
End final coordinates



     Writing output data file Fe_NH2_H_paper_480c_ESM_p25.save/

     init_run     :     87.76s CPU     89.65s WALL (       1 calls)
     electrons    :  84413.98s CPU  85228.39s WALL (      12 calls)
     update_pot   :    200.66s CPU    201.25s WALL (      11 calls)
     forces       :    542.45s CPU    546.97s WALL (      12 calls)

     Called by init_run:
     wfcinit      :     59.08s CPU     60.48s WALL (       1 calls)
     potinit      :      8.12s CPU      8.16s WALL (       1 calls)
     hinit0       :     15.41s CPU     15.46s WALL (       1 calls)

     Called by electrons:
     c_bands      :  77096.02s CPU  77805.85s WALL (     256 calls)
     sum_band     :   4052.09s CPU   4119.15s WALL (     256 calls)
     v_of_rho     :    421.97s CPU    424.31s WALL (     257 calls)
     newd         :     76.21s CPU     79.46s WALL (     257 calls)
     PAW_pot      :    118.10s CPU    118.82s WALL (     268 calls)
     mix_rho      :   2542.91s CPU   2568.89s WALL (     256 calls)

     Called by c_bands:
     init_us_2    :    118.36s CPU    122.14s WALL (    1608 calls)
     cegterg      :  64384.72s CPU  64918.84s WALL (     774 calls)

     Called by sum_band:
     sum_band:bec :      7.81s CPU      7.87s WALL (     801 calls)
     addusdens    :     92.27s CPU     98.04s WALL (     256 calls)

     Called by *egterg:
     h_psi        :  19850.41s CPU  20021.01s WALL (    6287 calls)
     s_psi        :   4103.97s CPU   4111.58s WALL (    6287 calls)
     g_psi        :     55.43s CPU     55.87s WALL (    5510 calls)
     cdiaghg      :  23511.04s CPU  23618.53s WALL (    6218 calls)

     Called by h_psi:
     h_psi:pot    :  19800.14s CPU  19915.19s WALL (    6287 calls)
     h_psi:calbec :   4142.51s CPU   4150.11s WALL (    6287 calls)
     vloc_psi     :  11539.78s CPU  11638.44s WALL (    6287 calls)
     add_vuspsi   :   4117.76s CPU   4126.60s WALL (    6287 calls)

     General routines
     calbec       :   5847.50s CPU   5858.32s WALL (    7232 calls)
     fft          :    268.40s CPU    270.03s WALL (    6614 calls)
     ffts         :   1306.63s CPU   1317.69s WALL (  154801 calls)
     fftw         :  10834.09s CPU  10929.90s WALL ( 3183312 calls)
     interpolate  :     25.66s CPU     25.80s WALL (     514 calls)
     davcio       :      1.23s CPU    169.84s WALL (    6627 calls)

     Parallel routines
     fft_scatt_xy :   2362.92s CPU   2376.60s WALL ( 3344727 calls)
     fft_scatt_yz :   3226.01s CPU   3274.27s WALL ( 3344727 calls)

     PWSCF        :     23h42m CPU     23h56m WALL


   This run was terminated on:  23:38:58   9Jun2022            

=------------------------------------------------------------------------------=
   JOB DONE.
=------------------------------------------------------------------------------=
