     Message from routine get_command_line:
     unexpected argument # 4     :-in

     Program PWSCF v.6.7MaX starts on 28Sep2022 at 20:46:31 

     This program is part of the open-source Quantum ESPRESSO suite
     for quantum simulation of materials; please cite
         "P. Giannozzi et al., J. Phys.:Condens. Matter 21 395502 (2009);
         "P. Giannozzi et al., J. Phys.:Condens. Matter 29 465901 (2017);
          URL http://www.quantum-espresso.org", 
     in publications or presentations arising from this work. More details at
     http://www.quantum-espresso.org/quote

     Parallel version (MPI), running on   120 processors

     MPI processes distributed on     1 nodes
     K-points division:     npool     =       8
     R & G space division:  proc/nbgrp/npool/nimage =      15
     Waiting for input...
     Reading input from standard input
Warning: card &CELL ignored
Warning: card / ignored

     Current dimensions of program PWSCF are:
     Max number of different atomic species (ntypx) = 10
     Max number of k-points (npk) =  40000
     Max angular momentum in pseudopotentials (lmaxx) =  3

     IMPORTANT: XC functional enforced from input :
     Exchange-correlation= PBE
                           (   1   4   3   4   0   0   0)
     Any further DFT definition will be discarded
     Please, verify this is what you really want


     -------------------------------------------------
     Parameters for Dispersion (Grimme-D2) Correction:
     -------------------------------------------------
       atom      VdW radius       C_6     

        H          1.892          4.857

     Subspace diagonalization in iterative solution of the eigenvalue problem:
     one sub-group per band group will be used
     scalapack distributed-memory algorithm (size of sub-group:  3*  3 procs)


     Parallelization info
     --------------------
     sticks:   dense  smooth     PW     G-vecs:    dense   smooth      PW
     Min        3636    1818    468               639190   225950   29545
     Max        3637    1819    470               639197   225953   29547
     Sum       54553   27281   7033              9587919  3389267  443191



     bravais-lattice index     =            0
     lattice parameter (alat)  =      37.7945  a.u.
     unit-cell volume          =   53986.6760 (a.u.)^3
     number of atoms/cell      =            2
     number of atomic types    =            1
     number of electrons       =         2.00
     number of Kohn-Sham states=            5
     kinetic-energy cutoff     =      60.0000  Ry
     charge density cutoff     =     480.0000  Ry
     scf convergence threshold =      1.0E-08
     mixing beta               =       0.7000
     number of iterations used =           10  plain     mixing
     energy convergence thresh.=      7.3E-07
     force convergence thresh. =      3.9E-04
     Exchange-correlation= PBE
                           (   1   4   3   4   0   0   0)
     nstep                     =           50


     celldm(1)=  37.794522  celldm(2)=   0.000000  celldm(3)=   0.000000
     celldm(4)=   0.000000  celldm(5)=   0.000000  celldm(6)=   0.000000

     crystal axes: (cart. coord. in units of alat)
               a(1) = (   1.000000   0.000000   0.000000 )  
               a(2) = (   0.000000   1.000000   0.000000 )  
               a(3) = (   0.000000   0.000000   1.000000 )  

     reciprocal axes: (cart. coord. in units 2 pi/alat)
               b(1) = (  1.000000  0.000000  0.000000 )  
               b(2) = (  0.000000  1.000000  0.000000 )  
               b(3) = (  0.000000  0.000000  1.000000 )  


     PseudoPot. # 1 for H  read from file:
     ../../SSSP/H.pbe-rrkjus_psl.1.0.0.UPF
     MD5 check sum: f52b6d4d1c606e5624b1dc7b2218f220
     Pseudo is Ultrasoft, Zval =  1.0
     Generated using "atomic" code by A. Dal Corso  v.5.1
     Using radial grid of  929 points,  2 beta functions with: 
                l(1) =   0
                l(2) =   0
     Q(r) pseudized with 0 coefficients 


     atomic species   valence    mass     pseudopotential
        H              1.00     1.00800     H ( 1.00)

     Starting magnetic structure 
     atomic species   magnetization
        H            0.100

     No symmetry found



   Cartesian axes

     site n.     atom                  positions (alat units)
         1           H   tau(   1) = (   0.5000000   0.5000000   0.0000000  )
         2           H   tau(   2) = (   0.5000000   0.5000000  -0.0369000  )

     number of k points=    10  Methfessel-Paxton smearing, width (Ry)=  0.0100
                       cart. coord. in units 2pi/alat
        k(    1) = (   0.0000000   0.0000000   0.0000000), wk =   0.0625000
        k(    2) = (   0.0000000   0.2500000   0.0000000), wk =   0.1250000
        k(    3) = (   0.0000000  -0.5000000   0.0000000), wk =   0.0625000
        k(    4) = (   0.2500000   0.0000000   0.0000000), wk =   0.1250000
        k(    5) = (   0.2500000   0.2500000   0.0000000), wk =   0.1250000
        k(    6) = (   0.2500000  -0.5000000   0.0000000), wk =   0.1250000
        k(    7) = (   0.2500000  -0.2500000   0.0000000), wk =   0.1250000
        k(    8) = (  -0.5000000   0.0000000   0.0000000), wk =   0.0625000
        k(    9) = (  -0.5000000   0.2500000   0.0000000), wk =   0.1250000
        k(   10) = (  -0.5000000  -0.5000000   0.0000000), wk =   0.0625000

     Dense  grid:  9587919 G-vectors     FFT dimensions: ( 270, 270, 270)

     Smooth grid:  3389267 G-vectors     FFT dimensions: ( 192, 192, 192)

     Estimated max dynamical RAM per process >     317.71 MB

     Estimated total dynamical RAM >      37.23 GB

     Adding external electric field
        E field amplitude [Ha a.u.]: -7.8812E-03
        Potential amp.       -0.5362 Ry
        Total length         34.0151 bohr

     Generating pointlists ...
     new r_m :   0.0152 (alat units)  0.5753 (a.u.) for type    1

     Initial potential from superposition of free atoms

     starting charge    1.99998, renormalised to    2.00000

     negative rho (up, down):  2.630E-05 2.152E-05
     Starting wfcs are    2 randomized atomic wfcs +    3 random wfcs

     total cpu time spent up to now is       19.8 secs

     Self-consistent Calculation

     iteration #  1     ecut=    60.00 Ry     beta= 0.70
     CG style diagonalization
     c_bands:  3 eigenvalues not converged
     c_bands:  1 eigenvalues not converged
     c_bands:  2 eigenvalues not converged
     ethr =  1.00E-04,  avg # of iterations = 15.6

     negative rho (up, down):  5.259E-05 5.105E-05

     total cpu time spent up to now is       47.1 secs

     total energy              =      -2.32452535 Ry
     estimated scf accuracy    <       0.12020059 Ry

     total magnetization       =     0.00 Bohr mag/cell
     absolute magnetization    =     0.01 Bohr mag/cell

     iteration #  2     ecut=    60.00 Ry     beta= 0.70
     CG style diagonalization
     ethr =  6.01E-03,  avg # of iterations =  3.0

     negative rho (up, down):  5.982E-05 5.959E-05

     total cpu time spent up to now is       61.6 secs

     total energy              =      -2.33283868 Ry
     estimated scf accuracy    <       0.00147965 Ry

     total magnetization       =     0.00 Bohr mag/cell
     absolute magnetization    =     0.00 Bohr mag/cell

     iteration #  3     ecut=    60.00 Ry     beta= 0.70
     CG style diagonalization
     ethr =  7.40E-05,  avg # of iterations =  7.8

     negative rho (up, down):  6.337E-05 6.293E-05

     total cpu time spent up to now is       81.1 secs

     total energy              =      -2.33339984 Ry
     estimated scf accuracy    <       0.00006030 Ry

     total magnetization       =     0.00 Bohr mag/cell
     absolute magnetization    =     0.00 Bohr mag/cell

     iteration #  4     ecut=    60.00 Ry     beta= 0.70
     CG style diagonalization
     ethr =  3.02E-06,  avg # of iterations =  8.4

     negative rho (up, down):  6.365E-05 6.350E-05

     total cpu time spent up to now is      101.3 secs

     total energy              =      -2.33340419 Ry
     estimated scf accuracy    <       0.00001006 Ry

     total magnetization       =     0.00 Bohr mag/cell
     absolute magnetization    =     0.00 Bohr mag/cell

     iteration #  5     ecut=    60.00 Ry     beta= 0.70
     CG style diagonalization
     ethr =  5.03E-07,  avg # of iterations =  3.2

     negative rho (up, down):  6.364E-05 6.361E-05

     total cpu time spent up to now is      116.2 secs

     total energy              =      -2.33340540 Ry
     estimated scf accuracy    <       0.00000002 Ry

     total magnetization       =    -0.00 Bohr mag/cell
     absolute magnetization    =     0.00 Bohr mag/cell

     iteration #  6     ecut=    60.00 Ry     beta= 0.70
     CG style diagonalization
     ethr =  7.94E-10,  avg # of iterations =  3.3

     negative rho (up, down):  6.370E-05 6.367E-05

     total cpu time spent up to now is      131.3 secs

     total energy              =      -2.33340542 Ry
     estimated scf accuracy    <       0.00000001 Ry

     total magnetization       =    -0.00 Bohr mag/cell
     absolute magnetization    =     0.00 Bohr mag/cell

     iteration #  7     ecut=    60.00 Ry     beta= 0.70
     CG style diagonalization
     ethr =  6.57E-10,  avg # of iterations =  3.1

     negative rho (up, down):  6.368E-05 6.368E-05

     Magnetic moment per site:
     atom:    1    charge:    0.2103    magn:   -0.0000    constr:    0.0000
     atom:    2    charge:    0.2061    magn:    0.0000    constr:    0.0000

     total cpu time spent up to now is      144.1 secs

     End of self-consistent calculation

 ------ SPIN UP ------------


          k = 0.0000 0.0000 0.0000 (423701 PWs)   bands (ev):

   -13.0855  -2.4688  -2.1824  -2.0989  -2.0987

          k = 0.0000 0.2500 0.0000 (423725 PWs)   bands (ev):

   -13.0855  -2.4594  -2.2247  -2.0944  -2.0888

          k = 0.0000-0.5000 0.0000 (423542 PWs)   bands (ev):

   -13.0855  -2.4480  -2.2611  -2.0841  -2.0765

          k = 0.2500 0.0000 0.0000 (423725 PWs)   bands (ev):

   -13.0855  -2.4594  -2.2247  -2.0945  -2.0888

          k = 0.2500 0.2500 0.0000 (423766 PWs)   bands (ev):

   -13.0855  -2.4510  -2.2222  -2.1669  -2.0226

          k = 0.2500-0.5000 0.0000 (423782 PWs)   bands (ev):

   -13.0855  -2.4412  -2.2414  -2.1673  -2.0036

          k = 0.2500-0.2500 0.0000 (423766 PWs)   bands (ev):

   -13.0855  -2.4511  -2.2223  -2.1669  -2.0222

          k =-0.5000 0.0000 0.0000 (423542 PWs)   bands (ev):

   -13.0855  -2.4478  -2.2611  -2.0841  -2.0765

          k =-0.5000 0.2500 0.0000 (423782 PWs)   bands (ev):

   -13.0855  -2.4411  -2.2413  -2.1673  -2.0039

          k =-0.5000-0.5000 0.0000 (423708 PWs)   bands (ev):

   -13.0855  -2.4332  -2.2058  -2.2056  -2.1210

 ------ SPIN DOWN ----------


          k = 0.0000 0.0000 0.0000 (423701 PWs)   bands (ev):

   -13.0856  -2.4687  -2.1825  -2.0988  -2.0986

          k = 0.0000 0.2500 0.0000 (423725 PWs)   bands (ev):

   -13.0856  -2.4595  -2.2248  -2.0945  -2.0889

          k = 0.0000-0.5000 0.0000 (423542 PWs)   bands (ev):

   -13.0856  -2.4480  -2.2611  -2.0843  -2.0763

          k = 0.2500 0.0000 0.0000 (423725 PWs)   bands (ev):

   -13.0856  -2.4595  -2.2246  -2.0946  -2.0889

          k = 0.2500 0.2500 0.0000 (423766 PWs)   bands (ev):

   -13.0856  -2.4512  -2.2225  -2.1669  -2.0230

          k = 0.2500-0.5000 0.0000 (423782 PWs)   bands (ev):

   -13.0856  -2.4413  -2.2413  -2.1674  -2.0036

          k = 0.2500-0.2500 0.0000 (423766 PWs)   bands (ev):

   -13.0856  -2.4512  -2.2222  -2.1669  -2.0227

          k =-0.5000 0.0000 0.0000 (423542 PWs)   bands (ev):

   -13.0856  -2.4480  -2.2610  -2.0843  -2.0765

          k =-0.5000 0.2500 0.0000 (423782 PWs)   bands (ev):

   -13.0856  -2.4413  -2.2414  -2.1673  -2.0042

          k =-0.5000-0.5000 0.0000 (423708 PWs)   bands (ev):

   -13.0856  -2.4334  -2.2058  -2.2055  -1.9819

     the Fermi energy is    -7.5337 ev

!    total energy              =      -2.33340542 Ry
     estimated scf accuracy    <          8.1E-10 Ry
     smearing contrib. (-TS)   =       0.00000000 Ry
     internal energy E=F+TS    =      -2.33340542 Ry

     The total energy is F=E-TS. E is the sum of the following terms:
     one-electron contribution =      -4.81085240 Ry
     hartree contribution      =       2.33122031 Ry
     xc contribution           =      -1.38275065 Ry
     ewald contribution        =       1.13394916 Ry
     Dispersion Correction     =      -0.00000164 Ry
     electric field correction =       0.39502979 Ry

     total magnetization       =     0.00 Bohr mag/cell
     absolute magnetization    =     0.00 Bohr mag/cell

     convergence has been achieved in   7 iterations

     Forces acting on atoms (cartesian axes, Ry/au):

     atom    1 type  1   force =    -0.00000000    0.00000000    0.01759912
     atom    2 type  1   force =     0.00000000   -0.00000000   -0.01759912

     Total force =     0.017599     Total SCF correction =     0.000005

     BFGS Geometry Optimization
     Energy error            =      0.0E+00
     Gradient error          =      1.8E-02

     number of scf cycles    =   1
     number of bfgs steps    =   0

     energy   new            =      -2.3334054211 Ry

     new trust radius        =       0.0175991178 bohr
     new conv_thr            =       0.0000000100 Ry


ATOMIC_POSITIONS (angstrom)
H            10.0000000000       10.0000000000        0.0000000000    0   0   0
H            10.0000000001        9.9999999999       -0.7473130521



     Writing output data file ./H2_ESM_VA4.save/
     NEW-OLD atomic charge density approx. for the potential

     negative rho (up, down):  6.338E-05 6.338E-05

     Adding external electric field
        E field amplitude [Ha a.u.]: -7.8812E-03
        Potential amp.       -0.5362 Ry
        Total length         34.0151 bohr

     Generating pointlists ...

     total cpu time spent up to now is      156.6 secs

     Self-consistent Calculation

     iteration #  1     ecut=    60.00 Ry     beta= 0.70
     CG style diagonalization
     ethr =  1.00E-06,  avg # of iterations =  3.2

     negative rho (up, down):  6.311E-05 6.311E-05

     total cpu time spent up to now is      171.4 secs

     total energy              =      -2.33359483 Ry
     estimated scf accuracy    <       0.00003614 Ry

     total magnetization       =     0.00 Bohr mag/cell
     absolute magnetization    =     0.00 Bohr mag/cell

     iteration #  2     ecut=    60.00 Ry     beta= 0.70
     CG style diagonalization
     ethr =  1.81E-06,  avg # of iterations =  3.2

     negative rho (up, down):  6.313E-05 6.313E-05

     total cpu time spent up to now is      186.1 secs

     total energy              =      -2.33359908 Ry
     estimated scf accuracy    <       0.00000042 Ry

     total magnetization       =     0.00 Bohr mag/cell
     absolute magnetization    =     0.00 Bohr mag/cell

     iteration #  3     ecut=    60.00 Ry     beta= 0.70
     CG style diagonalization
     ethr =  2.10E-08,  avg # of iterations =  3.1

     negative rho (up, down):  6.319E-05 6.319E-05

     total cpu time spent up to now is      200.5 secs

     total energy              =      -2.33359918 Ry
     estimated scf accuracy    <       0.00000003 Ry

     total magnetization       =     0.00 Bohr mag/cell
     absolute magnetization    =     0.00 Bohr mag/cell

     iteration #  4     ecut=    60.00 Ry     beta= 0.70
     CG style diagonalization
     ethr =  1.60E-09,  avg # of iterations =  3.0

     negative rho (up, down):  6.319E-05 6.319E-05

     Magnetic moment per site:
     atom:    1    charge:    0.2079    magn:   -0.0000    constr:    0.0000
     atom:    2    charge:    0.2034    magn:    0.0000    constr:    0.0000

     total cpu time spent up to now is      213.3 secs

     End of self-consistent calculation

 ------ SPIN UP ------------


          k = 0.0000 0.0000 0.0000 (423701 PWs)   bands (ev):

   -13.0389  -2.4770  -2.1938  -2.1007  -2.1005

          k = 0.0000 0.2500 0.0000 (423725 PWs)   bands (ev):

   -13.0389  -2.4684  -2.2290  -2.1046  -2.0907

          k = 0.0000-0.5000 0.0000 (423542 PWs)   bands (ev):

   -13.0389  -2.4583  -2.2616  -2.0986  -2.0787

          k = 0.2500 0.0000 0.0000 (423725 PWs)   bands (ev):

   -13.0389  -2.4684  -2.2290  -2.1046  -2.0908

          k = 0.2500 0.2500 0.0000 (423766 PWs)   bands (ev):

   -13.0389  -2.4608  -2.2263  -2.1680  -2.0375

          k = 0.2500-0.5000 0.0000 (423782 PWs)   bands (ev):

   -13.0389  -2.4521  -2.2419  -2.1705  -2.0210

          k = 0.2500-0.2500 0.0000 (423766 PWs)   bands (ev):

   -13.0389  -2.4608  -2.2263  -2.1680  -2.0374

          k =-0.5000 0.0000 0.0000 (423542 PWs)   bands (ev):

   -13.0389  -2.4583  -2.2616  -2.0986  -2.0788

          k =-0.5000 0.2500 0.0000 (423782 PWs)   bands (ev):

   -13.0389  -2.4521  -2.2418  -2.1705  -2.0212

          k =-0.5000-0.5000 0.0000 (423708 PWs)   bands (ev):

   -13.0389  -2.4448  -2.2066  -2.2064  -2.1208

 ------ SPIN DOWN ----------


          k = 0.0000 0.0000 0.0000 (423701 PWs)   bands (ev):

   -13.0389  -2.4771  -2.1937  -2.1007  -2.1005

          k = 0.0000 0.2500 0.0000 (423725 PWs)   bands (ev):

   -13.0389  -2.4684  -2.2289  -2.1046  -2.0907

          k = 0.0000-0.5000 0.0000 (423542 PWs)   bands (ev):

   -13.0389  -2.4583  -2.2616  -2.0985  -2.0784

          k = 0.2500 0.0000 0.0000 (423725 PWs)   bands (ev):

   -13.0389  -2.4684  -2.2289  -2.1046  -2.0908

          k = 0.2500 0.2500 0.0000 (423766 PWs)   bands (ev):

   -13.0389  -2.4608  -2.2264  -2.1680  -2.0375

          k = 0.2500-0.5000 0.0000 (423782 PWs)   bands (ev):

   -13.0389  -2.4520  -2.2419  -2.1705  -2.0210

          k = 0.2500-0.2500 0.0000 (423766 PWs)   bands (ev):

   -13.0389  -2.4609  -2.2262  -2.1681  -2.0374

          k =-0.5000 0.0000 0.0000 (423542 PWs)   bands (ev):

   -13.0389  -2.4583  -2.2615  -2.0985  -2.0787

          k =-0.5000 0.2500 0.0000 (423782 PWs)   bands (ev):

   -13.0389  -2.4520  -2.2419  -2.1705  -2.0213

          k =-0.5000-0.5000 0.0000 (423708 PWs)   bands (ev):

   -13.0389  -2.4448  -2.2066  -2.2065  -2.1207

     the Fermi energy is    -7.5300 ev

!    total energy              =      -2.33359918 Ry
     estimated scf accuracy    <          7.9E-10 Ry
     smearing contrib. (-TS)   =       0.00000000 Ry
     internal energy E=F+TS    =      -2.33359918 Ry

     The total energy is F=E-TS. E is the sum of the following terms:
     one-electron contribution =      -4.78612001 Ry
     hartree contribution      =       2.31852656 Ry
     xc contribution           =      -1.37683782 Ry
     ewald contribution        =       1.11608138 Ry
     Dispersion Correction     =      -0.00000167 Ry
     electric field correction =       0.39475239 Ry

     total magnetization       =     0.00 Bohr mag/cell
     absolute magnetization    =     0.00 Bohr mag/cell

     convergence has been achieved in   4 iterations

     Forces acting on atoms (cartesian axes, Ry/au):

     atom    1 type  1   force =     0.00000000    0.00000000    0.00446773
     atom    2 type  1   force =    -0.00000000   -0.00000000   -0.00446773

     Total force =     0.004468     Total SCF correction =     0.000006
     Energy error            =      1.9E-04
     Gradient error          =      4.5E-03

     number of scf cycles    =   2
     number of bfgs steps    =   1

     energy   old            =      -2.3334054211 Ry
     energy   new            =      -2.3335991814 Ry

     CASE: energy  _new < energy  _old

     new trust radius        =       0.0059878066 bohr
     new conv_thr            =       0.0000000011 Ry


ATOMIC_POSITIONS (angstrom)
H            10.0000000000       10.0000000000        0.0000000000    0   0   0
H            10.0000000001        9.9999999999       -0.7504816629



     Writing output data file ./H2_ESM_VA4.save/
     NEW-OLD atomic charge density approx. for the potential

     negative rho (up, down):  6.313E-05 6.313E-05

     Adding external electric field
        E field amplitude [Ha a.u.]: -7.8812E-03
        Potential amp.       -0.5362 Ry
        Total length         34.0151 bohr

     Generating pointlists ...

     total cpu time spent up to now is      225.9 secs

     Self-consistent Calculation

     iteration #  1     ecut=    60.00 Ry     beta= 0.70
     CG style diagonalization
     ethr =  1.00E-06,  avg # of iterations =  2.2

     negative rho (up, down):  6.306E-05 6.306E-05

     total cpu time spent up to now is      239.6 secs

     total energy              =      -2.33361288 Ry
     estimated scf accuracy    <       0.00000394 Ry

     total magnetization       =     0.00 Bohr mag/cell
     absolute magnetization    =     0.00 Bohr mag/cell

     iteration #  2     ecut=    60.00 Ry     beta= 0.70
     CG style diagonalization
     ethr =  1.97E-07,  avg # of iterations =  3.0

     negative rho (up, down):  6.304E-05 6.304E-05

     total cpu time spent up to now is      253.9 secs

     total energy              =      -2.33361329 Ry
     estimated scf accuracy    <       0.00000006 Ry

     total magnetization       =     0.00 Bohr mag/cell
     absolute magnetization    =     0.00 Bohr mag/cell

     iteration #  3     ecut=    60.00 Ry     beta= 0.70
     CG style diagonalization
     ethr =  2.89E-09,  avg # of iterations =  3.2

     negative rho (up, down):  6.305E-05 6.305E-05

     total cpu time spent up to now is      269.6 secs

     total energy              =      -2.33361332 Ry
     estimated scf accuracy    <          7.3E-09 Ry

     total magnetization       =    -0.00 Bohr mag/cell
     absolute magnetization    =     0.00 Bohr mag/cell

     iteration #  4     ecut=    60.00 Ry     beta= 0.70
     CG style diagonalization
     ethr =  3.67E-10,  avg # of iterations =  3.1

     negative rho (up, down):  6.305E-05 6.305E-05

     Magnetic moment per site:
     atom:    1    charge:    0.2071    magn:    0.0000    constr:    0.0000
     atom:    2    charge:    0.2025    magn:    0.0000    constr:    0.0000

     total cpu time spent up to now is      282.5 secs

     End of self-consistent calculation

 ------ SPIN UP ------------


          k = 0.0000 0.0000 0.0000 (423701 PWs)   bands (ev):

   -13.0230  -2.4800  -2.1976  -2.1013  -2.1011

          k = 0.0000 0.2500 0.0000 (423725 PWs)   bands (ev):

   -13.0230  -2.4717  -2.2305  -2.1078  -2.0914

          k = 0.0000-0.5000 0.0000 (423542 PWs)   bands (ev):

   -13.0230  -2.4620  -2.2617  -2.1034  -2.0794

          k = 0.2500 0.0000 0.0000 (423725 PWs)   bands (ev):

   -13.0230  -2.4717  -2.2305  -2.1078  -2.0914

          k = 0.2500 0.2500 0.0000 (423766 PWs)   bands (ev):

   -13.0230  -2.4644  -2.2277  -2.1684  -2.0423

          k = 0.2500-0.5000 0.0000 (423782 PWs)   bands (ev):

   -13.0230  -2.4560  -2.2420  -2.1717  -2.0267

          k = 0.2500-0.2500 0.0000 (423766 PWs)   bands (ev):

   -13.0230  -2.4644  -2.2277  -2.1683  -2.0423

          k =-0.5000 0.0000 0.0000 (423542 PWs)   bands (ev):

   -13.0230  -2.4621  -2.2617  -2.1035  -2.0795

          k =-0.5000 0.2500 0.0000 (423782 PWs)   bands (ev):

   -13.0230  -2.4560  -2.2420  -2.1716  -2.0268

          k =-0.5000-0.5000 0.0000 (423708 PWs)   bands (ev):

   -13.0230  -2.4489  -2.2068  -2.2067  -2.1207

 ------ SPIN DOWN ----------


          k = 0.0000 0.0000 0.0000 (423701 PWs)   bands (ev):

   -13.0230  -2.4801  -2.1976  -2.1013  -2.1011

          k = 0.0000 0.2500 0.0000 (423725 PWs)   bands (ev):

   -13.0230  -2.4717  -2.2304  -2.1078  -2.0914

          k = 0.0000-0.5000 0.0000 (423542 PWs)   bands (ev):

   -13.0230  -2.4621  -2.2617  -2.1033  -2.0792

          k = 0.2500 0.0000 0.0000 (423725 PWs)   bands (ev):

   -13.0230  -2.4717  -2.2305  -2.1078  -2.0914

          k = 0.2500 0.2500 0.0000 (423766 PWs)   bands (ev):

   -13.0230  -2.4644  -2.2277  -2.1684  -2.0423

          k = 0.2500-0.5000 0.0000 (423782 PWs)   bands (ev):

   -13.0230  -2.4560  -2.2420  -2.1717  -2.0267

          k = 0.2500-0.2500 0.0000 (423766 PWs)   bands (ev):

   -13.0230  -2.4644  -2.2276  -2.1684  -2.0423

          k =-0.5000 0.0000 0.0000 (423542 PWs)   bands (ev):

   -13.0230  -2.4621  -2.2617  -2.1033  -2.0794

          k =-0.5000 0.2500 0.0000 (423782 PWs)   bands (ev):

   -13.0230  -2.4560  -2.2420  -2.1716  -2.0269

          k =-0.5000-0.5000 0.0000 (423708 PWs)   bands (ev):

   -13.0230  -2.4489  -2.2068  -2.2068  -2.1206

     the Fermi energy is    -7.5248 ev

!    total energy              =      -2.33361332 Ry
     estimated scf accuracy    <          2.9E-10 Ry
     smearing contrib. (-TS)   =       0.00000000 Ry
     internal energy E=F+TS    =      -2.33361332 Ry

     The total energy is F=E-TS. E is the sum of the following terms:
     one-electron contribution =      -4.77776493 Ry
     hartree contribution      =       2.31423114 Ry
     xc contribution           =      -1.37483916 Ry
     ewald contribution        =       1.11010330 Ry
     Dispersion Correction     =      -0.00000168 Ry
     electric field correction =       0.39465800 Ry

     total magnetization       =     0.00 Bohr mag/cell
     absolute magnetization    =     0.00 Bohr mag/cell

     convergence has been achieved in   4 iterations

     Forces acting on atoms (cartesian axes, Ry/au):

     atom    1 type  1   force =     0.00000000    0.00000000    0.00017892
     atom    2 type  1   force =    -0.00000000   -0.00000000   -0.00017892

     Total force =     0.000179     Total SCF correction =     0.000002
     Energy error            =      1.4E-05
     Gradient error          =      1.8E-04

     number of scf cycles    =   3
     number of bfgs steps    =   2

     energy   old            =      -2.3335991814 Ry
     energy   new            =      -2.3336133205 Ry

     CASE: energy  _new < energy  _old

     new trust radius        =       0.0002497994 bohr
     new conv_thr            =            1.0E-10 Ry


ATOMIC_POSITIONS (angstrom)
H            10.0000000000       10.0000000000        0.0000000000    0   0   0
H            10.0000000001        9.9999999999       -0.7506138510



     Writing output data file ./H2_ESM_VA4.save/
     NEW-OLD atomic charge density approx. for the potential

     negative rho (up, down):  6.305E-05 6.305E-05

     Adding external electric field
        E field amplitude [Ha a.u.]: -7.8812E-03
        Potential amp.       -0.5362 Ry
        Total length         34.0151 bohr

     Generating pointlists ...

     total cpu time spent up to now is      295.1 secs

     Self-consistent Calculation

     iteration #  1     ecut=    60.00 Ry     beta= 0.70
     CG style diagonalization
     ethr =  1.00E-06,  avg # of iterations =  2.0

     Threshold (ethr) on eigenvalues was too large:
     Diagonalizing with lowered threshold

     CG style diagonalization
     ethr =  1.72E-10,  avg # of iterations =  2.2

     negative rho (up, down):  6.304E-05 6.304E-05

     total cpu time spent up to now is      312.8 secs

     total energy              =      -2.33361335 Ry
     estimated scf accuracy    <          6.9E-09 Ry

     total magnetization       =     0.00 Bohr mag/cell
     absolute magnetization    =     0.00 Bohr mag/cell

     iteration #  2     ecut=    60.00 Ry     beta= 0.70
     CG style diagonalization
     ethr =  3.46E-10,  avg # of iterations =  3.0

     negative rho (up, down):  6.304E-05 6.304E-05

     Magnetic moment per site:
     atom:    1    charge:    0.2070    magn:    0.0000    constr:    0.0000
     atom:    2    charge:    0.2025    magn:   -0.0000    constr:    0.0000

     total cpu time spent up to now is      325.6 secs

     End of self-consistent calculation

 ------ SPIN UP ------------


          k = 0.0000 0.0000 0.0000 (423701 PWs)   bands (ev):

   -13.0223  -2.4802  -2.1978  -2.1013  -2.1012

          k = 0.0000 0.2500 0.0000 (423725 PWs)   bands (ev):

   -13.0223  -2.4719  -2.2305  -2.1079  -2.0914

          k = 0.0000-0.5000 0.0000 (423542 PWs)   bands (ev):

   -13.0223  -2.4622  -2.2617  -2.1037  -2.0794

          k = 0.2500 0.0000 0.0000 (423725 PWs)   bands (ev):

   -13.0223  -2.4719  -2.2305  -2.1079  -2.0914

          k = 0.2500 0.2500 0.0000 (423766 PWs)   bands (ev):

   -13.0223  -2.4646  -2.2278  -2.1684  -2.0424

          k = 0.2500-0.5000 0.0000 (423782 PWs)   bands (ev):

   -13.0223  -2.4562  -2.2420  -2.1717  -2.0269

          k = 0.2500-0.2500 0.0000 (423766 PWs)   bands (ev):

   -13.0223  -2.4646  -2.2278  -2.1684  -2.0425

          k =-0.5000 0.0000 0.0000 (423542 PWs)   bands (ev):

   -13.0223  -2.4622  -2.2617  -2.1037  -2.0795

          k =-0.5000 0.2500 0.0000 (423782 PWs)   bands (ev):

   -13.0223  -2.4562  -2.2420  -2.1717  -2.0270

          k =-0.5000-0.5000 0.0000 (423708 PWs)   bands (ev):

   -13.0223  -2.4491  -2.2068  -2.2067  -2.1207

 ------ SPIN DOWN ----------


          k = 0.0000 0.0000 0.0000 (423701 PWs)   bands (ev):

   -13.0223  -2.4802  -2.1978  -2.1013  -2.1012

          k = 0.0000 0.2500 0.0000 (423725 PWs)   bands (ev):

   -13.0223  -2.4719  -2.2305  -2.1079  -2.0914

          k = 0.0000-0.5000 0.0000 (423542 PWs)   bands (ev):

   -13.0223  -2.4622  -2.2617  -2.1035  -2.0792

          k = 0.2500 0.0000 0.0000 (423725 PWs)   bands (ev):

   -13.0223  -2.4719  -2.2305  -2.1079  -2.0914

          k = 0.2500 0.2500 0.0000 (423766 PWs)   bands (ev):

   -13.0223  -2.4646  -2.2278  -2.1684  -2.0424

          k = 0.2500-0.5000 0.0000 (423782 PWs)   bands (ev):

   -13.0223  -2.4562  -2.2420  -2.1717  -2.0269

          k = 0.2500-0.2500 0.0000 (423766 PWs)   bands (ev):

   -13.0223  -2.4646  -2.2277  -2.1684  -2.0425

          k =-0.5000 0.0000 0.0000 (423542 PWs)   bands (ev):

   -13.0223  -2.4622  -2.2617  -2.1035  -2.0795

          k =-0.5000 0.2500 0.0000 (423782 PWs)   bands (ev):

   -13.0223  -2.4562  -2.2420  -2.1717  -2.0271

          k =-0.5000-0.5000 0.0000 (423708 PWs)   bands (ev):

   -13.0223  -2.4492  -2.2068  -2.2068  -2.1206

     the Fermi energy is    -7.5246 ev

!    total energy              =      -2.33361335 Ry
     estimated scf accuracy    <          9.6E-11 Ry
     smearing contrib. (-TS)   =       0.00000000 Ry
     internal energy E=F+TS    =      -2.33361335 Ry

     The total energy is F=E-TS. E is the sum of the following terms:
     one-electron contribution =      -4.77741595 Ry
     hartree contribution      =       2.31404988 Ry
     xc contribution           =      -1.37475467 Ry
     ewald contribution        =       1.10985501 Ry
     Dispersion Correction     =      -0.00000168 Ry
     electric field correction =       0.39465407 Ry

     total magnetization       =    -0.00 Bohr mag/cell
     absolute magnetization    =     0.00 Bohr mag/cell

     convergence has been achieved in   2 iterations

     Forces acting on atoms (cartesian axes, Ry/au):

     atom    1 type  1   force =    -0.00000000   -0.00000000    0.00000387
     atom    2 type  1   force =     0.00000000    0.00000000   -0.00000387

     Total force =     0.000004     Total SCF correction =     0.000001
     SCF correction compared to forces is large: reduce conv_thr to get better values
     Energy error            =      3.4E-08
     Gradient error          =      3.9E-06
Begin final coordinates

ATOMIC_POSITIONS (angstrom)
H            10.0000000000       10.0000000000        0.0000000000    0   0   0
H            10.0000000001        9.9999999999       -0.7506138510
End final coordinates



     Writing output data file ./H2_ESM_VA4.save/

     lsda relaxation :  a final configuration with zero
                        absolute magnetization has been found

     the program is checking if it is really the minimum energy structure
     by performing a new scf iteration without any "electronic" history

     Initial potential from superposition of free atoms

     starting charge    1.99998, renormalised to    2.00000

     negative rho (up, down):  2.643E-05 2.163E-05

     total cpu time spent up to now is      336.9 secs

     Self-consistent Calculation

     iteration #  1     ecut=    60.00 Ry     beta= 0.70
     CG style diagonalization
     c_bands:  1 eigenvalues not converged
     ethr =  1.00E-06,  avg # of iterations = 12.5

     negative rho (up, down):  5.233E-05 5.077E-05

     total cpu time spent up to now is      361.3 secs

     total energy              =      -2.32512041 Ry
     estimated scf accuracy    <       0.11562700 Ry

     total magnetization       =    -0.00 Bohr mag/cell
     absolute magnetization    =     0.01 Bohr mag/cell

     iteration #  2     ecut=    60.00 Ry     beta= 0.70
     CG style diagonalization
     ethr =  5.78E-03,  avg # of iterations =  3.0

     negative rho (up, down):  5.942E-05 5.908E-05

     total cpu time spent up to now is      375.7 secs

     total energy              =      -2.33306811 Ry
     estimated scf accuracy    <       0.00143471 Ry

     total magnetization       =    -0.00 Bohr mag/cell
     absolute magnetization    =     0.00 Bohr mag/cell

     iteration #  3     ecut=    60.00 Ry     beta= 0.70
     CG style diagonalization
     ethr =  7.17E-05,  avg # of iterations =  7.4

     negative rho (up, down):  6.275E-05 6.233E-05

     total cpu time spent up to now is      394.7 secs

     total energy              =      -2.33360778 Ry
     estimated scf accuracy    <       0.00005869 Ry

     total magnetization       =    -0.00 Bohr mag/cell
     absolute magnetization    =     0.00 Bohr mag/cell

     iteration #  4     ecut=    60.00 Ry     beta= 0.70
     CG style diagonalization
     ethr =  2.93E-06,  avg # of iterations =  7.9

     negative rho (up, down):  6.303E-05 6.289E-05

     total cpu time spent up to now is      414.5 secs

     total energy              =      -2.33361212 Ry
     estimated scf accuracy    <       0.00001114 Ry

     total magnetization       =     0.00 Bohr mag/cell
     absolute magnetization    =     0.00 Bohr mag/cell

     iteration #  5     ecut=    60.00 Ry     beta= 0.70
     CG style diagonalization
     ethr =  5.57E-07,  avg # of iterations =  3.2

     negative rho (up, down):  6.304E-05 6.301E-05

     total cpu time spent up to now is      429.3 secs

     total energy              =      -2.33361334 Ry
     estimated scf accuracy    <       0.00000001 Ry

     total magnetization       =     0.00 Bohr mag/cell
     absolute magnetization    =     0.00 Bohr mag/cell

     iteration #  6     ecut=    60.00 Ry     beta= 0.70
     CG style diagonalization
     ethr =  7.27E-10,  avg # of iterations =  3.3

     negative rho (up, down):  6.305E-05 6.303E-05

     total cpu time spent up to now is      444.3 secs

     total energy              =      -2.33361336 Ry
     estimated scf accuracy    <          3.6E-09 Ry

     total magnetization       =     0.00 Bohr mag/cell
     absolute magnetization    =     0.00 Bohr mag/cell

     iteration #  7     ecut=    60.00 Ry     beta= 0.70
     CG style diagonalization
     ethr =  1.80E-10,  avg # of iterations =  3.2

     negative rho (up, down):  6.303E-05 6.303E-05

     total cpu time spent up to now is      459.3 secs

     total energy              =      -2.33361335 Ry
     estimated scf accuracy    <          9.5E-10 Ry

     total magnetization       =    -0.00 Bohr mag/cell
     absolute magnetization    =     0.00 Bohr mag/cell

     iteration #  8     ecut=    60.00 Ry     beta= 0.70
     CG style diagonalization
     ethr =  4.74E-11,  avg # of iterations =  3.1

     negative rho (up, down):  6.304E-05 6.304E-05

     total cpu time spent up to now is      474.3 secs

     total energy              =      -2.33361335 Ry
     estimated scf accuracy    <          1.2E-10 Ry

     total magnetization       =     0.00 Bohr mag/cell
     absolute magnetization    =     0.00 Bohr mag/cell

     iteration #  9     ecut=    60.00 Ry     beta= 0.70
     CG style diagonalization
     ethr =  6.09E-12,  avg # of iterations =  3.1

     negative rho (up, down):  6.304E-05 6.304E-05

     Magnetic moment per site:
     atom:    1    charge:    0.2070    magn:   -0.0000    constr:    0.0000
     atom:    2    charge:    0.2025    magn:    0.0000    constr:    0.0000

     total cpu time spent up to now is      487.2 secs

     End of self-consistent calculation

 ------ SPIN UP ------------


          k = 0.0000 0.0000 0.0000 (423701 PWs)   bands (ev):

   -13.0223  -2.4801  -2.1981  -2.1013  -2.1013

          k = 0.0000 0.2500 0.0000 (423725 PWs)   bands (ev):

   -13.0223  -2.4720  -2.2305  -2.1077  -2.0913

          k = 0.0000-0.5000 0.0000 (423542 PWs)   bands (ev):

   -13.0223  -2.4622  -2.2616  -2.1038  -2.0795

          k = 0.2500 0.0000 0.0000 (423725 PWs)   bands (ev):

   -13.0223  -2.4720  -2.2305  -2.1077  -2.0913

          k = 0.2500 0.2500 0.0000 (423766 PWs)   bands (ev):

   -13.0223  -2.4646  -2.2276  -2.1683  -2.0423

          k = 0.2500-0.5000 0.0000 (423782 PWs)   bands (ev):

   -13.0223  -2.4562  -2.2420  -2.1715  -2.0267

          k = 0.2500-0.2500 0.0000 (423766 PWs)   bands (ev):

   -13.0223  -2.4646  -2.2276  -2.1683  -2.0423

          k =-0.5000 0.0000 0.0000 (423542 PWs)   bands (ev):

   -13.0223  -2.4622  -2.2616  -2.1038  -2.0795

          k =-0.5000 0.2500 0.0000 (423782 PWs)   bands (ev):

   -13.0223  -2.4562  -2.2420  -2.1715  -2.0267

          k =-0.5000-0.5000 0.0000 (423708 PWs)   bands (ev):

   -13.0223  -2.4494  -2.2068  -2.2067  -2.1207

 ------ SPIN DOWN ----------


          k = 0.0000 0.0000 0.0000 (423701 PWs)   bands (ev):

   -13.0223  -2.4802  -2.1982  -2.1013  -2.1013

          k = 0.0000 0.2500 0.0000 (423725 PWs)   bands (ev):

   -13.0223  -2.4720  -2.2304  -2.1076  -2.0913

          k = 0.0000-0.5000 0.0000 (423542 PWs)   bands (ev):

   -13.0223  -2.4622  -2.2616  -2.1038  -2.0794

          k = 0.2500 0.0000 0.0000 (423725 PWs)   bands (ev):

   -13.0223  -2.4720  -2.2304  -2.1076  -2.0913

          k = 0.2500 0.2500 0.0000 (423766 PWs)   bands (ev):

   -13.0223  -2.4646  -2.2276  -2.1684  -2.0423

          k = 0.2500-0.5000 0.0000 (423782 PWs)   bands (ev):

   -13.0223  -2.4562  -2.2419  -2.1715  -2.0267

          k = 0.2500-0.2500 0.0000 (423766 PWs)   bands (ev):

   -13.0223  -2.4646  -2.2276  -2.1684  -2.0423

          k =-0.5000 0.0000 0.0000 (423542 PWs)   bands (ev):

   -13.0223  -2.4622  -2.2616  -2.1038  -2.0795

          k =-0.5000 0.2500 0.0000 (423782 PWs)   bands (ev):

   -13.0223  -2.4562  -2.2419  -2.1715  -2.0267

          k =-0.5000-0.5000 0.0000 (423708 PWs)   bands (ev):

   -13.0223  -2.4494  -2.2068  -2.2068  -2.0094

     the Fermi energy is    -7.5159 ev

!    total energy              =      -2.33361336 Ry
     estimated scf accuracy    <          3.2E-12 Ry
     smearing contrib. (-TS)   =       0.00000000 Ry
     internal energy E=F+TS    =      -2.33361336 Ry

     The total energy is F=E-TS. E is the sum of the following terms:
     one-electron contribution =      -4.77741809 Ry
     hartree contribution      =       2.31405425 Ry
     xc contribution           =      -1.37475690 Ry
     ewald contribution        =       1.10985501 Ry
     Dispersion Correction     =      -0.00000168 Ry
     electric field correction =       0.39465407 Ry

     total magnetization       =    -0.00 Bohr mag/cell
     absolute magnetization    =     0.00 Bohr mag/cell

     convergence has been achieved in   9 iterations

     Forces acting on atoms (cartesian axes, Ry/au):

     atom    1 type  1   force =    -0.00000000    0.00000000    0.00000212
     atom    2 type  1   force =     0.00000000   -0.00000000   -0.00000212

     Total force =     0.000002     Total SCF correction =     0.000000
     SCF correction compared to forces is large: reduce conv_thr to get better values
     Energy error            =      3.5E-08
     Gradient error          =      2.1E-06

     bfgs converged in   4 scf cycles and   3 bfgs steps
     (criteria: energy <  7.3E-07 Ry, force <  3.9E-04 Ry/Bohr)

     End of BFGS Geometry Optimization

     Final energy   =      -2.3336133551 Ry

     File ./H2_ESM_VA4.bfgs deleted, as requested
Begin final coordinates

ATOMIC_POSITIONS (angstrom)
H            10.0000000000       10.0000000000        0.0000000000    0   0   0
H            10.0000000001        9.9999999999       -0.7506138510
End final coordinates



     Writing output data file ./H2_ESM_VA4.save/

     init_run     :     18.50s CPU     19.63s WALL (       1 calls)
     electrons    :    393.56s CPU    427.55s WALL (       5 calls)
     update_pot   :     20.82s CPU     22.41s WALL (       3 calls)
     forces       :      8.08s CPU      8.27s WALL (       5 calls)

     Called by init_run:
     wfcinit      :      1.00s CPU      1.12s WALL (       1 calls)
     potinit      :     14.69s CPU     15.86s WALL (       2 calls)
     hinit0       :      0.38s CPU      0.43s WALL (       1 calls)

     Called by electrons:
     c_bands      :    127.90s CPU    130.36s WALL (      27 calls)
     sum_band     :     45.03s CPU     46.10s WALL (      27 calls)
     v_of_rho     :    174.50s CPU    191.19s WALL (      31 calls)
     newd         :     18.84s CPU     19.36s WALL (      31 calls)
     mix_rho      :     28.91s CPU     35.34s WALL (      27 calls)

     Called by c_bands:
     init_us_2    :      0.30s CPU      0.33s WALL (     180 calls)
     ccgdiagg     :    100.72s CPU    102.42s WALL (      81 calls)
     wfcrot       :     22.33s CPU     22.59s WALL (      66 calls)

     Called by *cgdiagg:
     h_psi        :    116.74s CPU    118.58s WALL (    1572 calls)
     s_psi        :      0.54s CPU      0.54s WALL (    3078 calls)

     Called by h_psi:
     h_psi:calbec :      2.04s CPU      2.07s WALL (    1572 calls)
     vloc_psi     :    112.68s CPU    114.43s WALL (    1572 calls)
     add_vuspsi   :      1.56s CPU      1.59s WALL (    1572 calls)
     hs_1psi      :     95.82s CPU     97.42s WALL (    1506 calls)
     s_1psi       :      1.10s CPU      1.11s WALL (    1506 calls)

     General routines
     calbec       :      2.97s CPU      3.03s WALL (    3219 calls)
     fft          :    177.19s CPU    183.23s WALL (     764 calls)
     ffts         :      9.44s CPU      9.54s WALL (     116 calls)
     fftw         :    103.22s CPU    104.71s WALL (    4077 calls)
     interpolate  :     21.20s CPU     23.00s WALL (      62 calls)
     davcio       :      0.07s CPU      3.12s WALL (     436 calls)

     Parallel routines
     fft_scatt_xy :     44.38s CPU     44.93s WALL (    4957 calls)
     fft_scatt_yz :    103.89s CPU    105.92s WALL (    4957 calls)

     PWSCF        :   7m34.91s CPU   8m13.23s WALL


   This run was terminated on:  20:54:45  28Sep2022            

=------------------------------------------------------------------------------=
   JOB DONE.
=------------------------------------------------------------------------------=
