
     Program PHONON v.6.7MaX starts on 29Sep2022 at  0:55:12 

     This program is part of the open-source Quantum ESPRESSO suite
     for quantum simulation of materials; please cite
         "P. Giannozzi et al., J. Phys.:Condens. Matter 21 395502 (2009);
         "P. Giannozzi et al., J. Phys.:Condens. Matter 29 465901 (2017);
          URL http://www.quantum-espresso.org", 
     in publications or presentations arising from this work. More details at
     http://www.quantum-espresso.org/quote

     Parallel version (MPI), running on   120 processors

     MPI processes distributed on     1 nodes
     K-points division:     npool     =       8
     R & G space division:  proc/nbgrp/npool/nimage =      15
     Waiting for input...
     Reading input from standard input

     Reading xml data from directory:

     ./H2_ESM_VA4.save/

     IMPORTANT: XC functional enforced from input :
     Exchange-correlation= PBE
                           (   1   4   3   4   0   0   0)
     Any further DFT definition will be discarded
     Please, verify this is what you really want


     Parallelization info
     --------------------
     sticks:   dense  smooth     PW     G-vecs:    dense   smooth      PW
     Min        3636    1818    468               639190   225950   29545
     Max        3637    1819    470               639197   225953   29547
     Sum       54553   27281   7033              9587919  3389267  443191


     Adding external electric field
        E field amplitude [Ha a.u.]: -7.8812E-03
        Potential amp.       -0.5362 Ry
        Total length         34.0151 bohr


     negative rho (up, down):  6.304E-05 6.304E-05
     Reading collected, re-writing distributed wavefunctions

     Calculation of q =    0.0000000   0.0000000   0.0000000

     phonons (vibrational modes) for H2                                         

     bravais-lattice index     =            0
     lattice parameter (alat)  =      37.7945  a.u.
     unit-cell volume          =   53986.6760 (a.u.)^3
     number of atoms/cell      =            2
     number of atomic types    =            1
     kinetic-energy cut-off    =      60.0000  Ry
     charge density cut-off    =     480.0000  Ry
     convergence threshold     =      1.0E-12
     beta                      =       0.7000
     number of iterations used =            4
     Exchange-correlation= PBE
                           (   1   4   3   4   0   0   0)


     celldm(1)=   37.79452  celldm(2)=    0.00000  celldm(3)=    0.00000
     celldm(4)=    0.00000  celldm(5)=    0.00000  celldm(6)=    0.00000

     crystal axes: (cart. coord. in units of alat)
               a(1) = (  1.0000  0.0000  0.0000 )  
               a(2) = (  0.0000  1.0000  0.0000 )  
               a(3) = (  0.0000  0.0000  1.0000 )  

     reciprocal axes: (cart. coord. in units 2 pi/alat)
               b(1) = (  1.0000  0.0000  0.0000 )  
               b(2) = (  0.0000  1.0000  0.0000 )  
               b(3) = (  0.0000  0.0000  1.0000 )  


     Atoms inside the unit cell: 

     Cartesian axes

     site n.  atom      mass           positions (alat units)
        1     H    1.0078   tau(    1) = (    0.50000    0.50000    0.00000  )
        2     H    1.0078   tau(    2) = (    0.50000    0.50000   -0.03753  )

     Computing dynamical matrix for 
                    q = (   0.0000000   0.0000000   0.0000000 )

      2 Sym.Ops. (with q -> -q+G )


     G cutoff =17367.5767  ( 639197 G-vectors)     FFT grid: (270,270,270)
     G cutoff = 8683.7884  ( 225950 G-vectors)  smooth grid: (192,192,192)

     number of k points=    20  Methfessel-Paxton smearing, width (Ry)=  0.0100
                       cart. coord. in units 2pi/alat
        k(    1) = (   0.0000000   0.0000000   0.0000000), wk =   0.0625000
        k(    2) = (   0.0000000   0.2500000   0.0000000), wk =   0.1250000
        k(    3) = (   0.0000000  -0.5000000   0.0000000), wk =   0.0625000
        k(    4) = (   0.2500000   0.0000000   0.0000000), wk =   0.1250000
        k(    5) = (   0.2500000   0.2500000   0.0000000), wk =   0.1250000
        k(    6) = (   0.2500000  -0.5000000   0.0000000), wk =   0.1250000
        k(    7) = (   0.2500000  -0.2500000   0.0000000), wk =   0.1250000
        k(    8) = (  -0.5000000   0.0000000   0.0000000), wk =   0.0625000
        k(    9) = (  -0.5000000   0.2500000   0.0000000), wk =   0.1250000
        k(   10) = (  -0.5000000  -0.5000000   0.0000000), wk =   0.0625000
        k(   11) = (   0.0000000   0.0000000   0.0000000), wk =   0.0625000
        k(   12) = (   0.0000000   0.2500000   0.0000000), wk =   0.1250000
        k(   13) = (   0.0000000  -0.5000000   0.0000000), wk =   0.0625000
        k(   14) = (   0.2500000   0.0000000   0.0000000), wk =   0.1250000
        k(   15) = (   0.2500000   0.2500000   0.0000000), wk =   0.1250000
        k(   16) = (   0.2500000  -0.5000000   0.0000000), wk =   0.1250000
        k(   17) = (   0.2500000  -0.2500000   0.0000000), wk =   0.1250000
        k(   18) = (  -0.5000000   0.0000000   0.0000000), wk =   0.0625000
        k(   19) = (  -0.5000000   0.2500000   0.0000000), wk =   0.1250000
        k(   20) = (  -0.5000000  -0.5000000   0.0000000), wk =   0.0625000

     PseudoPot. # 1 for H  read from file:
     ../../SSSP/H.pbe-rrkjus_psl.1.0.0.UPF
     MD5 check sum: f52b6d4d1c606e5624b1dc7b2218f220
     Pseudo is Ultrasoft, Zval =  1.0
     Generated using "atomic" code by A. Dal Corso  v.5.1
     Using radial grid of  929 points,  2 beta functions with: 
                l(1) =   0
                l(2) =   0
     Q(r) pseudized with 0 coefficients 


     Mode symmetry, C_1 (1)     point group:


     Atomic displacements:
     There are    6 irreducible representations

     Representation     1      1 modes -  To be done

     Representation     2      1 modes -  To be done

     Representation     3      1 modes -  To be done

     Representation     4      1 modes -  To be done

     Representation     5      1 modes -  To be done

     Representation     6      1 modes -  To be done



     Alpha used in Ewald sum =   2.8000

     -------------------------------------------------
     Parameters for Dispersion (Grimme-D2) Correction:
     -------------------------------------------------
       atom      VdW radius       C_6     

        H          1.892          4.857

     Calculating the D2 contribution to the dynamical matrix.
     D2 energy =       -0.00000168 Ry
     Done.

     PHONON       :     56.64s CPU   1m 2.86s WALL



     Representation #   1 mode #   1

     Self-consistent Calculation

     Pert. #  1: Fermi energy shift (Ry) =     0.0000E+00     0.0000E+00

      iter #   1 total cpu time :    90.0 secs   av.it.:   4.0
      thresh= 1.000E-02 alpha_mix =  0.700 |ddv_scf|^2 =  6.199E-08

     Pert. #  1: Fermi energy shift (Ry) =     0.0000E+00     0.0000E+00

      iter #   2 total cpu time :   116.3 secs   av.it.:   8.0
      thresh= 2.490E-05 alpha_mix =  0.700 |ddv_scf|^2 =  5.581E-09

     Pert. #  1: Fermi energy shift (Ry) =     0.0000E+00     0.0000E+00

      iter #   3 total cpu time :   140.1 secs   av.it.:   8.0
      thresh= 7.471E-06 alpha_mix =  0.700 |ddv_scf|^2 =  2.333E-15

     End of self-consistent calculation

     Convergence has been achieved 


     Representation #   2 mode #   2

     Self-consistent Calculation

     Pert. #  1: Fermi energy shift (Ry) =     0.0000E+00     0.0000E+00

      iter #   1 total cpu time :   174.6 secs   av.it.:   4.0
      thresh= 1.000E-02 alpha_mix =  0.700 |ddv_scf|^2 =  6.199E-08

     Pert. #  1: Fermi energy shift (Ry) =     0.0000E+00     0.0000E+00

      iter #   2 total cpu time :   202.7 secs   av.it.:   8.0
      thresh= 2.490E-05 alpha_mix =  0.700 |ddv_scf|^2 =  5.581E-09

     Pert. #  1: Fermi energy shift (Ry) =     0.0000E+00     0.0000E+00

      iter #   3 total cpu time :   225.3 secs   av.it.:   8.0
      thresh= 7.471E-06 alpha_mix =  0.700 |ddv_scf|^2 =  2.333E-15

     End of self-consistent calculation

     Convergence has been achieved 


     Representation #   3 mode #   3

     Self-consistent Calculation

     Pert. #  1: Fermi energy shift (Ry) =     0.0000E+00     0.0000E+00

      iter #   1 total cpu time :   253.7 secs   av.it.:   7.0
      thresh= 1.000E-02 alpha_mix =  0.700 |ddv_scf|^2 =  6.853E-08

     Pert. #  1: Fermi energy shift (Ry) =     0.0000E+00     0.0000E+00

      iter #   2 total cpu time :   278.1 secs   av.it.:  11.0
      thresh= 2.618E-05 alpha_mix =  0.700 |ddv_scf|^2 =  5.407E-09

     Pert. #  1: Fermi energy shift (Ry) =     0.0000E+00     0.0000E+00

      iter #   3 total cpu time :   302.7 secs   av.it.:  10.0
      thresh= 7.353E-06 alpha_mix =  0.700 |ddv_scf|^2 =  1.320E-11

     Pert. #  1: Fermi energy shift (Ry) =     0.0000E+00     0.0000E+00

      iter #   4 total cpu time :   326.2 secs   av.it.:  12.0
      thresh= 3.633E-07 alpha_mix =  0.700 |ddv_scf|^2 =  1.372E-15

     End of self-consistent calculation

     Convergence has been achieved 


     Representation #   4 mode #   4

     Self-consistent Calculation

     Pert. #  1: Fermi energy shift (Ry) =     0.0000E+00     0.0000E+00

      iter #   1 total cpu time :   355.0 secs   av.it.:   4.0
      thresh= 1.000E-02 alpha_mix =  0.700 |ddv_scf|^2 =  6.754E-08

     Pert. #  1: Fermi energy shift (Ry) =     0.0000E+00     0.0000E+00

      iter #   2 total cpu time :   378.3 secs   av.it.:   8.0
      thresh= 2.599E-05 alpha_mix =  0.700 |ddv_scf|^2 =  6.075E-09

     Pert. #  1: Fermi energy shift (Ry) =     0.0000E+00     0.0000E+00

      iter #   3 total cpu time :   401.4 secs   av.it.:   7.6
      thresh= 7.794E-06 alpha_mix =  0.700 |ddv_scf|^2 =  2.507E-15

     End of self-consistent calculation

     Convergence has been achieved 


     Representation #   5 mode #   5

     Self-consistent Calculation

     Pert. #  1: Fermi energy shift (Ry) =     0.0000E+00     0.0000E+00

      iter #   1 total cpu time :   430.4 secs   av.it.:   4.0
      thresh= 1.000E-02 alpha_mix =  0.700 |ddv_scf|^2 =  6.754E-08

     Pert. #  1: Fermi energy shift (Ry) =     0.0000E+00     0.0000E+00

      iter #   2 total cpu time :   454.2 secs   av.it.:   8.0
      thresh= 2.599E-05 alpha_mix =  0.700 |ddv_scf|^2 =  6.075E-09

     Pert. #  1: Fermi energy shift (Ry) =     0.0000E+00     0.0000E+00

      iter #   3 total cpu time :   477.0 secs   av.it.:   7.6
      thresh= 7.794E-06 alpha_mix =  0.700 |ddv_scf|^2 =  2.507E-15

     End of self-consistent calculation

     Convergence has been achieved 


     Representation #   6 mode #   6

     Self-consistent Calculation

     Pert. #  1: Fermi energy shift (Ry) =     0.0000E+00     0.0000E+00

      iter #   1 total cpu time :   506.3 secs   av.it.:   7.0
      thresh= 1.000E-02 alpha_mix =  0.700 |ddv_scf|^2 =  4.792E-08

     Pert. #  1: Fermi energy shift (Ry) =     0.0000E+00     0.0000E+00

      iter #   2 total cpu time :   530.7 secs   av.it.:  11.0
      thresh= 2.189E-05 alpha_mix =  0.700 |ddv_scf|^2 =  5.280E-09

     Pert. #  1: Fermi energy shift (Ry) =     0.0000E+00     0.0000E+00

      iter #   3 total cpu time :   554.4 secs   av.it.:  10.0
      thresh= 7.266E-06 alpha_mix =  0.700 |ddv_scf|^2 =  2.199E-11

     Pert. #  1: Fermi energy shift (Ry) =     0.0000E+00     0.0000E+00

      iter #   4 total cpu time :   577.9 secs   av.it.:  11.0
      thresh= 4.689E-07 alpha_mix =  0.700 |ddv_scf|^2 =  9.482E-16

     End of self-consistent calculation

     Convergence has been achieved 

     Number of q in the star =    1
     List of q in the star:
          1   0.000000000   0.000000000   0.000000000

     Diagonalizing the dynamical matrix

     q = (    0.000000000   0.000000000   0.000000000 ) 

 **************************************************************************
     freq (    1) =       1.626717 [THz] =      54.261430 [cm-1]
     freq (    2) =       2.434142 [THz] =      81.194252 [cm-1]
     freq (    3) =       2.434142 [THz] =      81.194253 [cm-1]
     freq (    4) =      13.015999 [THz] =     434.166992 [cm-1]
     freq (    5) =      13.015999 [THz] =     434.166992 [cm-1]
     freq (    6) =     129.303421 [THz] =    4313.097853 [cm-1]
 **************************************************************************

     Mode symmetry, C_1 (1)     point group:

     freq (   1-   1) =         54.3  [cm-1]   --> A               I+R
     freq (   2-   2) =         81.2  [cm-1]   --> A               I+R
     freq (   3-   3) =         81.2  [cm-1]   --> A               I+R
     freq (   4-   4) =        434.2  [cm-1]   --> A               I+R
     freq (   5-   5) =        434.2  [cm-1]   --> A               I+R
     freq (   6-   6) =       4313.1  [cm-1]   --> A               I+R

     PHONON       :   8m 0.17s CPU   9m48.91s WALL

     INITIALIZATION: 
     phq_setup    :     12.75s CPU     14.26s WALL (       1 calls)
     phq_init     :     26.51s CPU     28.49s WALL (       1 calls)

     phq_init     :     26.51s CPU     28.49s WALL (       1 calls)
     init_vloc    :      0.14s CPU      0.14s WALL (       1 calls)
     init_us_1    :      0.02s CPU      0.02s WALL (       1 calls)
     newd         :      0.71s CPU      0.73s WALL (       1 calls)
     dvanqq       :      7.02s CPU      7.16s WALL (       1 calls)
     drho         :     11.82s CPU     13.57s WALL (       1 calls)

     DYNAMICAL MATRIX:
     dynmat0      :      0.84s CPU      0.88s WALL (       1 calls)
     phqscf       :    423.50s CPU    520.46s WALL (       1 calls)
     dynmatrix    :      0.02s CPU      0.06s WALL (       1 calls)

     phqscf       :    423.50s CPU    520.46s WALL (       1 calls)
     solve_linter :    419.59s CPU    506.40s WALL (       6 calls)
     drhodv       :      3.92s CPU      4.06s WALL (       6 calls)

     dynmat0      :      0.84s CPU      0.88s WALL (       1 calls)
     dynmat_us    :      0.64s CPU      0.66s WALL (       1 calls)
     d2ionq       :      0.20s CPU      0.20s WALL (       1 calls)

     dynmat_us    :      0.64s CPU      0.66s WALL (       1 calls)
     addusdynmat  :      0.00s CPU      0.00s WALL (       1 calls)

     phqscf       :    423.50s CPU    520.46s WALL (       1 calls)
     solve_linter :    419.59s CPU    506.40s WALL (       6 calls)

     solve_linter :    419.59s CPU    506.40s WALL (       6 calls)
     dvqpsi_us    :      8.28s CPU      8.47s WALL (      18 calls)
     ortho        :      0.78s CPU      0.81s WALL (      60 calls)
     cgsolve      :     36.77s CPU     37.25s WALL (      60 calls)
     incdrhoscf   :      4.86s CPU      4.97s WALL (      60 calls)
     addusddens   :     15.45s CPU     17.22s WALL (      26 calls)
     vpsifft      :      3.04s CPU      3.15s WALL (      42 calls)
     dv_of_drho   :    147.37s CPU    152.09s WALL (      20 calls)
     mix_pot      :      6.98s CPU     18.95s WALL (      20 calls)
     ef_shift     :     19.58s CPU     19.87s WALL (      26 calls)
     localdos     :     12.46s CPU     13.16s WALL (       6 calls)
     psymdvscf    :     98.16s CPU    137.46s WALL (      20 calls)
     newdq        :     16.45s CPU     17.90s WALL (      20 calls)
     adddvscf     :      0.07s CPU      0.07s WALL (      42 calls)
     drhodvus     :      2.48s CPU     12.73s WALL (       6 calls)

     dvqpsi_us    :      8.28s CPU      8.47s WALL (      18 calls)
     dvqpsi_us_on :      0.07s CPU      0.07s WALL (      18 calls)

     cgsolve      :     36.77s CPU     37.25s WALL (      60 calls)
     ch_psi       :     36.05s CPU     36.52s WALL (     473 calls)

     ch_psi       :     36.05s CPU     36.52s WALL (     473 calls)
     h_psi        :     34.92s CPU     35.37s WALL (     473 calls)
     last         :      0.98s CPU      0.99s WALL (     473 calls)

     h_psi        :     34.92s CPU     35.37s WALL (     473 calls)
     add_vuspsi   :      0.36s CPU      0.37s WALL (     473 calls)

     incdrhoscf   :      4.86s CPU      4.97s WALL (      60 calls)
     addusdbec    :      0.67s CPU      0.67s WALL (      78 calls)

     drhodvus     :      2.48s CPU     12.73s WALL (       6 calls)

      General routines
     calbec       :      2.60s CPU      2.77s WALL (    1204 calls)
     fft          :    197.87s CPU    201.78s WALL (     739 calls)
     ffts         :     14.45s CPU     14.91s WALL (     184 calls)
     fftw         :     40.94s CPU     41.51s WALL (    1363 calls)
     davcio       :      0.11s CPU     20.85s WALL (     450 calls)
     write_rec    :      0.00s CPU     21.06s WALL (      26 calls)


     PHONON       :   8m 0.17s CPU   9m48.92s WALL


   This run was terminated on:   1: 5: 1  29Sep2022            

=------------------------------------------------------------------------------=
   JOB DONE.
=------------------------------------------------------------------------------=
