     Message from routine get_command_line:
     unexpected argument # 4     :-in

     Program PWSCF v.6.7MaX starts on 30Jun2022 at 22:42: 8 

     This program is part of the open-source Quantum ESPRESSO suite
     for quantum simulation of materials; please cite
         "P. Giannozzi et al., J. Phys.:Condens. Matter 21 395502 (2009);
         "P. Giannozzi et al., J. Phys.:Condens. Matter 29 465901 (2017);
          URL http://www.quantum-espresso.org", 
     in publications or presentations arising from this work. More details at
     http://www.quantum-espresso.org/quote

     Parallel version (MPI), running on   120 processors

     MPI processes distributed on     1 nodes
     K-points division:     npool     =       8
     R & G space division:  proc/nbgrp/npool/nimage =      15
     Waiting for input...
     Reading input from standard input
Warning: card &CELL ignored
Warning: card / ignored

     Current dimensions of program PWSCF are:
     Max number of different atomic species (ntypx) = 10
     Max number of k-points (npk) =  40000
     Max angular momentum in pseudopotentials (lmaxx) =  3

     IMPORTANT: XC functional enforced from input :
     Exchange-correlation= PBE
                           (   1   4   3   4   0   0   0)
     Any further DFT definition will be discarded
     Please, verify this is what you really want


     -------------------------------------------------
     Parameters for Dispersion (Grimme-D2) Correction:
     -------------------------------------------------
       atom      VdW radius       C_6     

        N          2.640         42.670

     Subspace diagonalization in iterative solution of the eigenvalue problem:
     one sub-group per band group will be used
     scalapack distributed-memory algorithm (size of sub-group:  3*  3 procs)


     Parallelization info
     --------------------
     sticks:   dense  smooth     PW     G-vecs:    dense   smooth      PW
     Min        3636    1818    468               639190   225950   29545
     Max        3637    1819    470               639197   225953   29547
     Sum       54553   27281   7033              9587919  3389267  443191



     bravais-lattice index     =            0
     lattice parameter (alat)  =      37.7945  a.u.
     unit-cell volume          =   53986.6760 (a.u.)^3
     number of atoms/cell      =            1
     number of atomic types    =            1
     number of electrons       =         5.00
     number of Kohn-Sham states=            7
     kinetic-energy cutoff     =      60.0000  Ry
     charge density cutoff     =     480.0000  Ry
     scf convergence threshold =      1.0E-08
     mixing beta               =       0.7000
     number of iterations used =           10  plain     mixing
     energy convergence thresh.=      7.3E-07
     force convergence thresh. =      3.9E-04
     Exchange-correlation= PBE
                           (   1   4   3   4   0   0   0)
     nstep                     =           50


     Effective Screening Medium Method
     =================================
     Boundary Conditions: Metal-Slab-Metal
     field strength                   =     0.03 Ry/a.u.
     grid points for fit at edges     =        4 


     celldm(1)=  37.794522  celldm(2)=   0.000000  celldm(3)=   0.000000
     celldm(4)=   0.000000  celldm(5)=   0.000000  celldm(6)=   0.000000

     crystal axes: (cart. coord. in units of alat)
               a(1) = (   1.000000   0.000000   0.000000 )  
               a(2) = (   0.000000   1.000000   0.000000 )  
               a(3) = (   0.000000   0.000000   1.000000 )  

     reciprocal axes: (cart. coord. in units 2 pi/alat)
               b(1) = (  1.000000  0.000000  0.000000 )  
               b(2) = (  0.000000  1.000000  0.000000 )  
               b(3) = (  0.000000  0.000000  1.000000 )  


     PseudoPot. # 1 for N  read from file:
     ../../SSSP/N.pbe-n-radius_5.UPF
     MD5 check sum: 16739722b17309cd8fe442a2ace49922
     Pseudo is Ultrasoft + core correction, Zval =  5.0
     Generated using "atomic" code by A. Dal Corso  v.5.1
     Using radial grid of 1085 points,  4 beta functions with: 
                l(1) =   0
                l(2) =   0
                l(3) =   1
                l(4) =   1
     Q(r) pseudized with 0 coefficients 


     atomic species   valence    mass     pseudopotential
        N              5.00    14.00700     N ( 1.00)

     Starting magnetic structure 
     atomic species   magnetization
        N            0.100

     No symmetry found



   Cartesian axes

     site n.     atom                  positions (alat units)
         1           N   tau(   1) = (   0.5000000   0.5000000   0.0000000  )

     number of k points=    10  Methfessel-Paxton smearing, width (Ry)=  0.0100
                       cart. coord. in units 2pi/alat
        k(    1) = (   0.0000000   0.0000000   0.0000000), wk =   0.0625000
        k(    2) = (   0.0000000   0.2500000   0.0000000), wk =   0.1250000
        k(    3) = (   0.0000000  -0.5000000   0.0000000), wk =   0.0625000
        k(    4) = (   0.2500000   0.0000000   0.0000000), wk =   0.1250000
        k(    5) = (   0.2500000   0.2500000   0.0000000), wk =   0.1250000
        k(    6) = (   0.2500000  -0.5000000   0.0000000), wk =   0.1250000
        k(    7) = (   0.2500000  -0.2500000   0.0000000), wk =   0.1250000
        k(    8) = (  -0.5000000   0.0000000   0.0000000), wk =   0.0625000
        k(    9) = (  -0.5000000   0.2500000   0.0000000), wk =   0.1250000
        k(   10) = (  -0.5000000  -0.5000000   0.0000000), wk =   0.0625000

     Dense  grid:  9587919 G-vectors     FFT dimensions: ( 270, 270, 270)

     Smooth grid:  3389267 G-vectors     FFT dimensions: ( 192, 192, 192)

     Estimated max dynamical RAM per process >     364.64 MB

     Estimated total dynamical RAM >      42.73 GB
     Generating pointlists ...
     new r_m :   0.4125 (alat units) 15.5902 (a.u.) for type    1

     Initial potential from superposition of free atoms

     starting charge    4.99999, renormalised to    5.00000

     negative rho (up, down):  9.787E-05 8.007E-05
     Starting wfcs are    4 randomized atomic wfcs +    3 random wfcs

     total cpu time spent up to now is       21.5 secs

     Self-consistent Calculation

     iteration #  1     ecut=    60.00 Ry     beta= 0.70
     Davidson diagonalization with overlap
     c_bands:  2 eigenvalues not converged
     ethr =  1.00E-04,  avg # of iterations = 19.6

     negative rho (up, down):  2.456E-04 3.297E-05

     total cpu time spent up to now is       50.1 secs

     total energy              =     -19.79739083 Ry
     estimated scf accuracy    <       0.07771948 Ry

     total magnetization       =     3.00 Bohr mag/cell
     absolute magnetization    =     3.00 Bohr mag/cell

     iteration #  2     ecut=    60.00 Ry     beta= 0.70
     Davidson diagonalization with overlap
     ethr =  1.55E-03,  avg # of iterations =  1.0

     negative rho (up, down):  3.161E-04 9.820E-05

     total cpu time spent up to now is       65.2 secs

     total energy              =     -19.81858802 Ry
     estimated scf accuracy    <       0.01026868 Ry

     total magnetization       =     3.00 Bohr mag/cell
     absolute magnetization    =     3.00 Bohr mag/cell

     iteration #  3     ecut=    60.00 Ry     beta= 0.70
     Davidson diagonalization with overlap
     ethr =  2.05E-04,  avg # of iterations =  1.5

     negative rho (up, down):  3.189E-04 8.582E-05

     total cpu time spent up to now is       80.9 secs

     total energy              =     -19.81874507 Ry
     estimated scf accuracy    <       0.00030626 Ry

     total magnetization       =     3.00 Bohr mag/cell
     absolute magnetization    =     3.00 Bohr mag/cell

     iteration #  4     ecut=    60.00 Ry     beta= 0.70
     Davidson diagonalization with overlap
     ethr =  6.13E-06,  avg # of iterations = 12.4

     negative rho (up, down):  3.258E-04 8.620E-05

     total cpu time spent up to now is      104.3 secs

     total energy              =     -19.81897834 Ry
     estimated scf accuracy    <       0.00006924 Ry

     total magnetization       =     3.00 Bohr mag/cell
     absolute magnetization    =     3.00 Bohr mag/cell

     iteration #  5     ecut=    60.00 Ry     beta= 0.70
     Davidson diagonalization with overlap
     ethr =  1.38E-06,  avg # of iterations = 10.7

     negative rho (up, down):  3.324E-04 8.529E-05

     total cpu time spent up to now is      124.5 secs

     total energy              =     -19.81898217 Ry
     estimated scf accuracy    <       0.00001861 Ry

     total magnetization       =     3.00 Bohr mag/cell
     absolute magnetization    =     3.00 Bohr mag/cell

     iteration #  6     ecut=    60.00 Ry     beta= 0.70
     Davidson diagonalization with overlap
     ethr =  3.72E-07,  avg # of iterations =  3.0

     negative rho (up, down):  3.328E-04 8.542E-05

     total cpu time spent up to now is      140.7 secs

     total energy              =     -19.81985811 Ry
     estimated scf accuracy    <       0.00000372 Ry

     total magnetization       =     3.00 Bohr mag/cell
     absolute magnetization    =     3.00 Bohr mag/cell

     iteration #  7     ecut=    60.00 Ry     beta= 0.70
     Davidson diagonalization with overlap
     ethr =  7.45E-08,  avg # of iterations =  1.0

     negative rho (up, down):  3.328E-04 8.551E-05

     total cpu time spent up to now is      156.2 secs

     total energy              =     -19.81985766 Ry
     estimated scf accuracy    <       0.00000479 Ry

     total magnetization       =     3.00 Bohr mag/cell
     absolute magnetization    =     3.00 Bohr mag/cell

     iteration #  8     ecut=    60.00 Ry     beta= 0.70
     Davidson diagonalization with overlap
     ethr =  7.45E-08,  avg # of iterations =  1.0

     negative rho (up, down):  3.325E-04 8.571E-05

     total cpu time spent up to now is      171.8 secs

     total energy              =     -19.81985675 Ry
     estimated scf accuracy    <       0.00000292 Ry

     total magnetization       =     3.00 Bohr mag/cell
     absolute magnetization    =     3.00 Bohr mag/cell

     iteration #  9     ecut=    60.00 Ry     beta= 0.70
     Davidson diagonalization with overlap
     ethr =  5.84E-08,  avg # of iterations =  1.5

     negative rho (up, down):  3.325E-04 8.562E-05

     total cpu time spent up to now is      187.7 secs

     total energy              =     -19.81985707 Ry
     estimated scf accuracy    <       0.00000010 Ry

     total magnetization       =     3.00 Bohr mag/cell
     absolute magnetization    =     3.00 Bohr mag/cell

     iteration # 10     ecut=    60.00 Ry     beta= 0.70
     Davidson diagonalization with overlap
     ethr =  1.93E-09,  avg # of iterations =  3.0

     negative rho (up, down):  3.325E-04 8.557E-05

     total cpu time spent up to now is      204.5 secs

     total energy              =     -19.81985713 Ry
     estimated scf accuracy    <       0.00000007 Ry

     total magnetization       =     3.00 Bohr mag/cell
     absolute magnetization    =     3.00 Bohr mag/cell

     iteration # 11     ecut=    60.00 Ry     beta= 0.70
     Davidson diagonalization with overlap
     ethr =  1.36E-09,  avg # of iterations =  1.0

     negative rho (up, down):  3.324E-04 8.558E-05

     total cpu time spent up to now is      220.4 secs

     total energy              =     -19.81985713 Ry
     estimated scf accuracy    <       0.00000002 Ry

     total magnetization       =     3.00 Bohr mag/cell
     absolute magnetization    =     3.00 Bohr mag/cell

     iteration # 12     ecut=    60.00 Ry     beta= 0.70
     Davidson diagonalization with overlap
     ethr =  4.42E-10,  avg # of iterations =  2.0

     negative rho (up, down):  3.324E-04 8.561E-05

     total cpu time spent up to now is      236.8 secs

     total energy              =     -19.81985713 Ry
     estimated scf accuracy    <       0.00000001 Ry

     total magnetization       =     3.00 Bohr mag/cell
     absolute magnetization    =     3.00 Bohr mag/cell

     iteration # 13     ecut=    60.00 Ry     beta= 0.70
     Davidson diagonalization with overlap
     ethr =  2.33E-10,  avg # of iterations =  1.5

     negative rho (up, down):  3.324E-04 8.560E-05

     Magnetic moment per site:
     atom:    1    charge:    5.0000    magn:    3.0000    constr:    0.0000

     total cpu time spent up to now is      250.4 secs

     End of self-consistent calculation

 ------ SPIN UP ------------


          k = 0.0000 0.0000 0.0000 (423701 PWs)   bands (ev):

   -11.8055  -0.2225  -0.2184  -0.2184   2.6525   3.0276   3.0304

          k = 0.0000 0.2500 0.0000 (423725 PWs)   bands (ev):

   -11.8055  -0.2225  -0.2184  -0.2184   2.6758   2.8639   3.0522

          k = 0.0000-0.5000 0.0000 (423542 PWs)   bands (ev):

   -11.8055  -0.2225  -0.2184  -0.2184   2.7434   2.7493   3.1249

          k = 0.2500 0.0000 0.0000 (423725 PWs)   bands (ev):

   -11.8055  -0.2225  -0.2184  -0.2184   2.6758   2.8642   3.0518

          k = 0.2500 0.2500 0.0000 (423766 PWs)   bands (ev):

   -11.8055  -0.2225  -0.2184  -0.2184   2.6993   2.8865   2.8884

          k = 0.2500-0.5000 0.0000 (423782 PWs)   bands (ev):

   -11.8055  -0.2226  -0.2184  -0.2184   2.7670   2.7729   2.9593

          k = 0.2500-0.2500 0.0000 (423766 PWs)   bands (ev):

   -11.8055  -0.2225  -0.2184  -0.2184   2.6992   2.8864   2.8884

          k =-0.5000 0.0000 0.0000 (423542 PWs)   bands (ev):

   -11.8055  -0.2225  -0.2184  -0.2184   2.7434   2.7494   3.1227

          k =-0.5000 0.2500 0.0000 (423782 PWs)   bands (ev):

   -11.8055  -0.2226  -0.2184  -0.2184   2.7670   2.7728   2.9553

          k =-0.5000-0.5000 0.0000 (423708 PWs)   bands (ev):

   -11.8055  -0.2225  -0.2184  -0.2184   2.8398   2.8413   2.8453

 ------ SPIN DOWN ----------


          k = 0.0000 0.0000 0.0000 (423701 PWs)   bands (ev):

    -6.9916   2.6656   3.0405   3.0417   3.0419   3.0432   3.4179

          k = 0.0000 0.2500 0.0000 (423725 PWs)   bands (ev):

    -6.9916   2.6891   2.8772   3.0651   3.0656   3.2532   3.2534

          k = 0.0000-0.5000 0.0000 (423542 PWs)   bands (ev):

    -6.9916   2.7572   2.7620   3.1333   3.1334   3.1380   3.1382

          k = 0.2500 0.0000 0.0000 (423725 PWs)   bands (ev):

    -6.9916   2.6891   2.8772   3.0651   3.0654   3.2532   3.2533

          k = 0.2500 0.2500 0.0000 (423766 PWs)   bands (ev):

    -6.9916   2.7126   2.8999   2.9014   3.0888   3.2762   3.2775

          k = 0.2500-0.5000 0.0000 (423782 PWs)   bands (ev):

    -6.9916   2.7807   2.7855   2.9689   2.9736   3.3451   3.3498

          k = 0.2500-0.2500 0.0000 (423766 PWs)   bands (ev):

    -6.9916   2.7126   2.9000   2.9014   3.0887   3.2762   3.2775

          k =-0.5000 0.0000 0.0000 (423542 PWs)   bands (ev):

    -6.9916   2.7572   2.7620   3.1333   3.1334   3.1380   3.1382

          k =-0.5000 0.2500 0.0000 (423782 PWs)   bands (ev):

    -6.9916   2.7807   2.7855   2.9688   2.9736   3.3451   3.3498

          k =-0.5000-0.5000 0.0000 (423708 PWs)   bands (ev):

    -6.9916   2.8483   2.8544   2.8545   2.8577   3.6025   3.6056

     the Fermi energy is     1.8833 ev

!    total energy              =     -19.81985713 Ry
     estimated scf accuracy    <          1.4E-09 Ry
     smearing contrib. (-TS)   =       0.00000000 Ry
     internal energy E=F+TS    =     -19.81985713 Ry

     The total energy is F=E-TS. E is the sum of the following terms:
     one-electron contribution =     -27.22664854 Ry
     hartree contribution      =      16.02388002 Ry
     xc contribution           =      -5.11194243 Ry
     ewald contribution        =      -3.50514614 Ry
     Dispersion Correction     =      -0.00000005 Ry

     total magnetization       =     3.00 Bohr mag/cell
     absolute magnetization    =     3.00 Bohr mag/cell

     convergence has been achieved in  13 iterations

     negative rho (up, down):  3.324E-04 8.560E-05

     Forces acting on atoms (cartesian axes, Ry/au):

     atom    1 type  1   force =     0.00000000    0.00000000    0.00002291

     Total force =     0.000000     Total SCF correction =     0.000000

     BFGS Geometry Optimization
     Energy error            =      0.0E+00
     Gradient error          =      0.0E+00

     bfgs converged in   1 scf cycles and   0 bfgs steps
     (criteria: energy <  7.3E-07 Ry, force <  3.9E-04 Ry/Bohr)

     End of BFGS Geometry Optimization

     Final energy   =     -19.8198571316 Ry
Begin final coordinates

ATOMIC_POSITIONS (angstrom)
N            10.0000000000       10.0000000000        0.0000000000    0   0   0
End final coordinates



     Writing output data file ./N_ESM_p5.save/

     init_run     :     19.90s CPU     21.27s WALL (       1 calls)
     electrons    :    213.76s CPU    231.67s WALL (       1 calls)
     forces       :      7.80s CPU      8.41s WALL (       1 calls)

     Called by init_run:
     wfcinit      :      1.51s CPU      1.74s WALL (       1 calls)
     potinit      :      7.39s CPU      8.07s WALL (       1 calls)
     hinit0       :      1.23s CPU      1.39s WALL (       1 calls)

     Called by electrons:
     c_bands      :     67.98s CPU     69.70s WALL (      13 calls)
     sum_band     :     27.42s CPU     28.58s WALL (      13 calls)
     v_of_rho     :     82.25s CPU     89.55s WALL (      14 calls)
     newd         :      9.22s CPU      9.84s WALL (      14 calls)
     mix_rho      :     19.61s CPU     23.92s WALL (      13 calls)

     Called by c_bands:
     init_us_2    :      0.39s CPU      0.40s WALL (      84 calls)
     cegterg      :     56.21s CPU     57.50s WALL (      39 calls)

     Called by *egterg:
     cdiaghg      :      0.20s CPU      0.21s WALL (     173 calls)
     h_psi        :     51.76s CPU     52.69s WALL (     176 calls)
     s_psi        :      0.46s CPU      0.47s WALL (     176 calls)
     g_psi        :      0.09s CPU      0.10s WALL (     134 calls)

     Called by h_psi:
     h_psi:calbec :      0.60s CPU      0.61s WALL (     176 calls)
     vloc_psi     :     50.39s CPU     51.17s WALL (     176 calls)
     add_vuspsi   :      0.58s CPU      0.58s WALL (     176 calls)

     General routines
     calbec       :      0.82s CPU      0.83s WALL (     227 calls)
     fft          :     84.28s CPU     86.71s WALL (     363 calls)
     ffts         :      4.39s CPU      4.44s WALL (      54 calls)
     fftw         :     48.88s CPU     49.62s WALL (    1927 calls)
     interpolate  :      9.50s CPU     10.40s WALL (      28 calls)
     davcio       :      0.05s CPU      2.77s WALL (     302 calls)

     Parallel routines
     fft_scatt_xy :     20.78s CPU     21.08s WALL (    2344 calls)
     fft_scatt_yz :     51.34s CPU     51.99s WALL (    2344 calls)

     PWSCF        :   4m 2.18s CPU   4m23.05s WALL


   This run was terminated on:  22:46:31  30Jun2022            

=------------------------------------------------------------------------------=
   JOB DONE.
=------------------------------------------------------------------------------=
