
     Program PHONON v.6.7MaX starts on 20Sep2022 at 22:24:35 

     This program is part of the open-source Quantum ESPRESSO suite
     for quantum simulation of materials; please cite
         "P. Giannozzi et al., J. Phys.:Condens. Matter 21 395502 (2009);
         "P. Giannozzi et al., J. Phys.:Condens. Matter 29 465901 (2017);
          URL http://www.quantum-espresso.org", 
     in publications or presentations arising from this work. More details at
     http://www.quantum-espresso.org/quote

     Parallel version (MPI), running on   120 processors

     MPI processes distributed on     1 nodes
     K-points division:     npool     =       8
     R & G space division:  proc/nbgrp/npool/nimage =      15
     Waiting for input...
     Reading input from standard input

     Reading xml data from directory:

     ./NH_ESM_p5.save/

     IMPORTANT: XC functional enforced from input :
     Exchange-correlation= PBE
                           (   1   4   3   4   0   0   0)
     Any further DFT definition will be discarded
     Please, verify this is what you really want


     Parallelization info
     --------------------
     sticks:   dense  smooth     PW     G-vecs:    dense   smooth      PW
     Min        3636    1818    468               639190   225950   29545
     Max        3637    1819    470               639197   225953   29547
     Sum       54553   27281   7033              9587919  3389267  443191


     negative rho (up, down):  2.784E-04 1.229E-04
     Reading collected, re-writing distributed wavefunctions

     Calculation of q =    0.0000000   0.0000000   0.0000000

     phonons (vibrational modes) for NH                                         

     bravais-lattice index     =            0
     lattice parameter (alat)  =      37.7945  a.u.
     unit-cell volume          =   53986.6760 (a.u.)^3
     number of atoms/cell      =            2
     number of atomic types    =            2
     kinetic-energy cut-off    =      60.0000  Ry
     charge density cut-off    =     480.0000  Ry
     convergence threshold     =      1.0E-12
     beta                      =       0.7000
     number of iterations used =            4
     Exchange-correlation= PBE
                           (   1   4   3   4   0   0   0)


     celldm(1)=   37.79452  celldm(2)=    0.00000  celldm(3)=    0.00000
     celldm(4)=    0.00000  celldm(5)=    0.00000  celldm(6)=    0.00000

     crystal axes: (cart. coord. in units of alat)
               a(1) = (  1.0000  0.0000  0.0000 )  
               a(2) = (  0.0000  1.0000  0.0000 )  
               a(3) = (  0.0000  0.0000  1.0000 )  

     reciprocal axes: (cart. coord. in units 2 pi/alat)
               b(1) = (  1.0000  0.0000  0.0000 )  
               b(2) = (  0.0000  1.0000  0.0000 )  
               b(3) = (  0.0000  0.0000  1.0000 )  


     Atoms inside the unit cell: 

     Cartesian axes

     site n.  atom      mass           positions (alat units)
        1     N   14.0067   tau(    1) = (    0.50000    0.50000    0.00000  )
        2     H    1.0078   tau(    2) = (    0.50015    0.49994   -0.05241  )

     Computing dynamical matrix for 
                    q = (   0.0000000   0.0000000   0.0000000 )

      2 Sym.Ops. (with q -> -q+G )


     G cutoff =17367.5767  ( 639197 G-vectors)     FFT grid: (270,270,270)
     G cutoff = 8683.7884  ( 225950 G-vectors)  smooth grid: (192,192,192)

     number of k points=    20  Methfessel-Paxton smearing, width (Ry)=  0.0100
                       cart. coord. in units 2pi/alat
        k(    1) = (   0.0000000   0.0000000   0.0000000), wk =   0.0625000
        k(    2) = (   0.0000000   0.2500000   0.0000000), wk =   0.1250000
        k(    3) = (   0.0000000  -0.5000000   0.0000000), wk =   0.0625000
        k(    4) = (   0.2500000   0.0000000   0.0000000), wk =   0.1250000
        k(    5) = (   0.2500000   0.2500000   0.0000000), wk =   0.1250000
        k(    6) = (   0.2500000  -0.5000000   0.0000000), wk =   0.1250000
        k(    7) = (   0.2500000  -0.2500000   0.0000000), wk =   0.1250000
        k(    8) = (  -0.5000000   0.0000000   0.0000000), wk =   0.0625000
        k(    9) = (  -0.5000000   0.2500000   0.0000000), wk =   0.1250000
        k(   10) = (  -0.5000000  -0.5000000   0.0000000), wk =   0.0625000
        k(   11) = (   0.0000000   0.0000000   0.0000000), wk =   0.0625000
        k(   12) = (   0.0000000   0.2500000   0.0000000), wk =   0.1250000
        k(   13) = (   0.0000000  -0.5000000   0.0000000), wk =   0.0625000
        k(   14) = (   0.2500000   0.0000000   0.0000000), wk =   0.1250000
        k(   15) = (   0.2500000   0.2500000   0.0000000), wk =   0.1250000
        k(   16) = (   0.2500000  -0.5000000   0.0000000), wk =   0.1250000
        k(   17) = (   0.2500000  -0.2500000   0.0000000), wk =   0.1250000
        k(   18) = (  -0.5000000   0.0000000   0.0000000), wk =   0.0625000
        k(   19) = (  -0.5000000   0.2500000   0.0000000), wk =   0.1250000
        k(   20) = (  -0.5000000  -0.5000000   0.0000000), wk =   0.0625000

     PseudoPot. # 1 for N  read from file:
     ../../SSSP/N.pbe-n-radius_5.UPF
     MD5 check sum: 16739722b17309cd8fe442a2ace49922
     Pseudo is Ultrasoft + core correction, Zval =  5.0
     Generated using "atomic" code by A. Dal Corso  v.5.1
     Using radial grid of 1085 points,  4 beta functions with: 
                l(1) =   0
                l(2) =   0
                l(3) =   1
                l(4) =   1
     Q(r) pseudized with 0 coefficients 


     PseudoPot. # 2 for H  read from file:
     ../../SSSP/H.pbe-rrkjus_psl.1.0.0.UPF
     MD5 check sum: f52b6d4d1c606e5624b1dc7b2218f220
     Pseudo is Ultrasoft, Zval =  1.0
     Generated using "atomic" code by A. Dal Corso  v.5.1
     Using radial grid of  929 points,  2 beta functions with: 
                l(1) =   0
                l(2) =   0
     Q(r) pseudized with 0 coefficients 


     Mode symmetry, C_1 (1)     point group:


     Atomic displacements:
     There are    6 irreducible representations

     Representation     1      1 modes -  To be done

     Representation     2      1 modes -  To be done

     Representation     3      1 modes -  To be done

     Representation     4      1 modes -  To be done

     Representation     5      1 modes -  To be done

     Representation     6      1 modes -  To be done



     Alpha used in Ewald sum =   2.8000

     -------------------------------------------------
     Parameters for Dispersion (Grimme-D2) Correction:
     -------------------------------------------------
       atom      VdW radius       C_6     

        N          2.640         42.670
        H          1.892          4.857

     Calculating the D2 contribution to the dynamical matrix.
     D2 energy =       -0.00000239 Ry
     Done.


     negative rho (up, down):  2.784E-04 1.229E-04
     PHONON       :   2m28.32s CPU   2m35.31s WALL



     Representation #   1 mode #   1

     Self-consistent Calculation

     Pert. #  1: Fermi energy shift (Ry) =     0.0000E+00     0.0000E+00

      iter #   1 total cpu time :   219.8 secs   av.it.:  37.8
      thresh= 1.000E-02 alpha_mix =  0.700 |ddv_scf|^2 =  3.230E-08

     Pert. #  1: Fermi energy shift (Ry) =     0.0000E+00     0.0000E+00

      iter #   2 total cpu time :   326.4 secs   av.it.:  89.9
      thresh= 1.797E-05 alpha_mix =  0.700 |ddv_scf|^2 =  1.597E-07

     Pert. #  1: Fermi energy shift (Ry) =     0.0000E+00     0.0000E+00

      iter #   3 total cpu time :   420.6 secs   av.it.:  74.2
      thresh= 3.996E-05 alpha_mix =  0.700 |ddv_scf|^2 =  6.930E-08

     Pert. #  1: Fermi energy shift (Ry) =     0.0000E+00     0.0000E+00

      iter #   4 total cpu time :   518.9 secs   av.it.:  80.7
      thresh= 2.633E-05 alpha_mix =  0.700 |ddv_scf|^2 =  2.072E-08

     Pert. #  1: Fermi energy shift (Ry) =     0.0000E+00     0.0000E+00

      iter #   5 total cpu time :   624.4 secs   av.it.:  83.0
      thresh= 1.439E-05 alpha_mix =  0.700 |ddv_scf|^2 =  2.453E-08

     Pert. #  1: Fermi energy shift (Ry) =     0.0000E+00     0.0000E+00

      iter #   6 total cpu time :   717.6 secs   av.it.:  72.3
      thresh= 1.566E-05 alpha_mix =  0.700 |ddv_scf|^2 =  7.246E-10

     Pert. #  1: Fermi energy shift (Ry) =     0.0000E+00     0.0000E+00

      iter #   7 total cpu time :   820.0 secs   av.it.:  85.4
      thresh= 2.692E-06 alpha_mix =  0.700 |ddv_scf|^2 =  4.322E-10

     Pert. #  1: Fermi energy shift (Ry) =     0.0000E+00     0.0000E+00

      iter #   8 total cpu time :   919.0 secs   av.it.:  77.0
      thresh= 2.079E-06 alpha_mix =  0.700 |ddv_scf|^2 =  6.234E-11

     Pert. #  1: Fermi energy shift (Ry) =     0.0000E+00     0.0000E+00

      iter #   9 total cpu time :  1055.5 secs   av.it.:  85.0
      thresh= 7.895E-07 alpha_mix =  0.700 |ddv_scf|^2 =  3.798E-11

     Pert. #  1: Fermi energy shift (Ry) =     0.0000E+00     0.0000E+00

      iter #  10 total cpu time :  1152.2 secs   av.it.:  82.3
      thresh= 6.163E-07 alpha_mix =  0.700 |ddv_scf|^2 =  3.438E-13

     End of self-consistent calculation

     Convergence has been achieved 


     Representation #   2 mode #   2

     Self-consistent Calculation

     Pert. #  1: Fermi energy shift (Ry) =     0.0000E+00     0.0000E+00

      iter #   1 total cpu time :  1230.4 secs   av.it.:  37.7
      thresh= 1.000E-02 alpha_mix =  0.700 |ddv_scf|^2 =  3.089E-08

     Pert. #  1: Fermi energy shift (Ry) =     0.0000E+00     0.0000E+00

      iter #   2 total cpu time :  1333.8 secs   av.it.:  90.1
      thresh= 1.758E-05 alpha_mix =  0.700 |ddv_scf|^2 =  1.589E-07

     Pert. #  1: Fermi energy shift (Ry) =     0.0000E+00     0.0000E+00

      iter #   3 total cpu time :  1423.8 secs   av.it.:  72.0
      thresh= 3.986E-05 alpha_mix =  0.700 |ddv_scf|^2 =  7.012E-08

     Pert. #  1: Fermi energy shift (Ry) =     0.0000E+00     0.0000E+00

      iter #   4 total cpu time :  1521.8 secs   av.it.:  80.5
      thresh= 2.648E-05 alpha_mix =  0.700 |ddv_scf|^2 =  2.697E-08

     Pert. #  1: Fermi energy shift (Ry) =     0.0000E+00     0.0000E+00

      iter #   5 total cpu time :  1625.4 secs   av.it.:  84.3
      thresh= 1.642E-05 alpha_mix =  0.700 |ddv_scf|^2 =  6.337E-08

     Pert. #  1: Fermi energy shift (Ry) =     0.0000E+00     0.0000E+00

      iter #   6 total cpu time :  1719.6 secs   av.it.:  71.0
      thresh= 2.517E-05 alpha_mix =  0.700 |ddv_scf|^2 =  3.074E-10

     Pert. #  1: Fermi energy shift (Ry) =     0.0000E+00     0.0000E+00

      iter #   7 total cpu time :  1858.1 secs   av.it.:  86.0
      thresh= 1.753E-06 alpha_mix =  0.700 |ddv_scf|^2 =  4.129E-10

     Pert. #  1: Fermi energy shift (Ry) =     0.0000E+00     0.0000E+00

      iter #   8 total cpu time :  1953.8 secs   av.it.:  77.7
      thresh= 2.032E-06 alpha_mix =  0.700 |ddv_scf|^2 =  5.980E-11

     Pert. #  1: Fermi energy shift (Ry) =     0.0000E+00     0.0000E+00

      iter #   9 total cpu time :  2059.7 secs   av.it.:  85.0
      thresh= 7.733E-07 alpha_mix =  0.700 |ddv_scf|^2 =  5.660E-11

     Pert. #  1: Fermi energy shift (Ry) =     0.0000E+00     0.0000E+00

      iter #  10 total cpu time :  2158.5 secs   av.it.:  80.8
      thresh= 7.523E-07 alpha_mix =  0.700 |ddv_scf|^2 =  5.136E-11

     Pert. #  1: Fermi energy shift (Ry) =     0.0000E+00     0.0000E+00

      iter #  11 total cpu time :  2265.3 secs   av.it.:  86.2
      thresh= 7.166E-07 alpha_mix =  0.700 |ddv_scf|^2 =  4.567E-10

     Pert. #  1: Fermi energy shift (Ry) =     0.0000E+00     0.0000E+00

      iter #  12 total cpu time :  2362.5 secs   av.it.:  79.6
      thresh= 2.137E-06 alpha_mix =  0.700 |ddv_scf|^2 =  3.155E-14

     End of self-consistent calculation

     Convergence has been achieved 


     Representation #   3 mode #   3

     Self-consistent Calculation

     Pert. #  1: Fermi energy shift (Ry) =     0.0000E+00     0.0000E+00

      iter #   1 total cpu time :  2433.1 secs   av.it.:  33.5
      thresh= 1.000E-02 alpha_mix =  0.700 |ddv_scf|^2 =  2.096E-05

     Pert. #  1: Fermi energy shift (Ry) =     0.0000E+00     0.0000E+00

      iter #   2 total cpu time :  2522.8 secs   av.it.:  74.8
      thresh= 4.578E-04 alpha_mix =  0.700 |ddv_scf|^2 =  7.381E-04

     Pert. #  1: Fermi energy shift (Ry) =     0.0000E+00     0.0000E+00

      iter #   3 total cpu time :  2607.8 secs   av.it.:  66.8
      thresh= 2.717E-03 alpha_mix =  0.700 |ddv_scf|^2 =  2.496E-04

     Pert. #  1: Fermi energy shift (Ry) =     0.0000E+00     0.0000E+00

      iter #   4 total cpu time :  2695.0 secs   av.it.:  69.0
      thresh= 1.580E-03 alpha_mix =  0.700 |ddv_scf|^2 =  2.358E-06

     Pert. #  1: Fermi energy shift (Ry) =     0.0000E+00     0.0000E+00

      iter #   5 total cpu time :  2793.1 secs   av.it.:  76.6
      thresh= 1.536E-04 alpha_mix =  0.700 |ddv_scf|^2 =  1.852E-06

     Pert. #  1: Fermi energy shift (Ry) =     0.0000E+00     0.0000E+00

      iter #   6 total cpu time :  2885.7 secs   av.it.:  72.2
      thresh= 1.361E-04 alpha_mix =  0.700 |ddv_scf|^2 =  2.122E-07

     Pert. #  1: Fermi energy shift (Ry) =     0.0000E+00     0.0000E+00

      iter #   7 total cpu time :  2980.3 secs   av.it.:  70.1
      thresh= 4.606E-05 alpha_mix =  0.700 |ddv_scf|^2 =  3.140E-08

     Pert. #  1: Fermi energy shift (Ry) =     0.0000E+00     0.0000E+00

      iter #   8 total cpu time :  3073.1 secs   av.it.:  72.3
      thresh= 1.772E-05 alpha_mix =  0.700 |ddv_scf|^2 =  3.026E-10

     Pert. #  1: Fermi energy shift (Ry) =     0.0000E+00     0.0000E+00

      iter #   9 total cpu time :  3171.1 secs   av.it.:  77.7
      thresh= 1.740E-06 alpha_mix =  0.700 |ddv_scf|^2 =  8.055E-11

     Pert. #  1: Fermi energy shift (Ry) =     0.0000E+00     0.0000E+00

      iter #  10 total cpu time :  3265.1 secs   av.it.:  71.8
      thresh= 8.975E-07 alpha_mix =  0.700 |ddv_scf|^2 =  2.412E-12

     Pert. #  1: Fermi energy shift (Ry) =     0.0000E+00     0.0000E+00

      iter #  11 total cpu time :  3366.5 secs   av.it.:  83.0
      thresh= 1.553E-07 alpha_mix =  0.700 |ddv_scf|^2 =  3.597E-11

     Pert. #  1: Fermi energy shift (Ry) =     0.0000E+00     0.0000E+00

      iter #  12 total cpu time :  3457.6 secs   av.it.:  71.5
      thresh= 5.997E-07 alpha_mix =  0.700 |ddv_scf|^2 =  1.036E-10

     Pert. #  1: Fermi energy shift (Ry) =     0.0000E+00     0.0000E+00

      iter #  13 total cpu time :  3549.0 secs   av.it.:  70.8
      thresh= 1.018E-06 alpha_mix =  0.700 |ddv_scf|^2 =  1.237E-12

     Pert. #  1: Fermi energy shift (Ry) =     0.0000E+00     0.0000E+00

      iter #  14 total cpu time :  3648.3 secs   av.it.:  79.2
      thresh= 1.112E-07 alpha_mix =  0.700 |ddv_scf|^2 =  1.677E-12

     Pert. #  1: Fermi energy shift (Ry) =     0.0000E+00     0.0000E+00

      iter #  15 total cpu time :  3736.0 secs   av.it.:  73.2
      thresh= 1.295E-07 alpha_mix =  0.700 |ddv_scf|^2 =  2.862E-15

     End of self-consistent calculation

     Convergence has been achieved 


     Representation #   4 mode #   4

     Self-consistent Calculation

     Pert. #  1: Fermi energy shift (Ry) =     0.0000E+00     0.0000E+00

      iter #   1 total cpu time :  3802.3 secs   av.it.:  22.9
      thresh= 1.000E-02 alpha_mix =  0.700 |ddv_scf|^2 =  1.349E-09

     Pert. #  1: Fermi energy shift (Ry) =     0.0000E+00     0.0000E+00

      iter #   2 total cpu time :  3906.0 secs   av.it.:  90.8
      thresh= 3.673E-06 alpha_mix =  0.700 |ddv_scf|^2 =  7.854E-09

     Pert. #  1: Fermi energy shift (Ry) =     0.0000E+00     0.0000E+00

      iter #   3 total cpu time :  3993.2 secs   av.it.:  71.2
      thresh= 8.863E-06 alpha_mix =  0.700 |ddv_scf|^2 =  9.936E-09

     Pert. #  1: Fermi energy shift (Ry) =     0.0000E+00     0.0000E+00

      iter #   4 total cpu time :  4090.6 secs   av.it.:  78.2
      thresh= 9.968E-06 alpha_mix =  0.700 |ddv_scf|^2 =  1.123E-08

     Pert. #  1: Fermi energy shift (Ry) =     0.0000E+00     0.0000E+00

      iter #   5 total cpu time :  4188.0 secs   av.it.:  79.9
      thresh= 1.060E-05 alpha_mix =  0.700 |ddv_scf|^2 =  1.049E-08

     Pert. #  1: Fermi energy shift (Ry) =     0.0000E+00     0.0000E+00

      iter #   6 total cpu time :  4283.0 secs   av.it.:  74.2
      thresh= 1.024E-05 alpha_mix =  0.700 |ddv_scf|^2 =  2.221E-09

     Pert. #  1: Fermi energy shift (Ry) =     0.0000E+00     0.0000E+00

      iter #   7 total cpu time :  4384.5 secs   av.it.:  78.8
      thresh= 4.713E-06 alpha_mix =  0.700 |ddv_scf|^2 =  8.639E-12

     Pert. #  1: Fermi energy shift (Ry) =     0.0000E+00     0.0000E+00

      iter #   8 total cpu time :  4489.7 secs   av.it.:  87.2
      thresh= 2.939E-07 alpha_mix =  0.700 |ddv_scf|^2 =  4.943E-12

     Pert. #  1: Fermi energy shift (Ry) =     0.0000E+00     0.0000E+00

      iter #   9 total cpu time :  4592.2 secs   av.it.:  84.8
      thresh= 2.223E-07 alpha_mix =  0.700 |ddv_scf|^2 =  4.537E-11

     Pert. #  1: Fermi energy shift (Ry) =     0.0000E+00     0.0000E+00

      iter #  10 total cpu time :  4692.5 secs   av.it.:  78.3
      thresh= 6.736E-07 alpha_mix =  0.700 |ddv_scf|^2 =  1.368E-11

     Pert. #  1: Fermi energy shift (Ry) =     0.0000E+00     0.0000E+00

      iter #  11 total cpu time :  4787.5 secs   av.it.:  77.3
      thresh= 3.699E-07 alpha_mix =  0.700 |ddv_scf|^2 =  1.257E-12

     Pert. #  1: Fermi energy shift (Ry) =     0.0000E+00     0.0000E+00

      iter #  12 total cpu time :  4885.0 secs   av.it.:  78.5
      thresh= 1.121E-07 alpha_mix =  0.700 |ddv_scf|^2 =  6.380E-14

     End of self-consistent calculation

     Convergence has been achieved 


     Representation #   5 mode #   5

     Self-consistent Calculation

     Pert. #  1: Fermi energy shift (Ry) =     0.0000E+00     0.0000E+00

      iter #   1 total cpu time :  4951.0 secs   av.it.:  22.6
      thresh= 1.000E-02 alpha_mix =  0.700 |ddv_scf|^2 =  1.364E-09

     Pert. #  1: Fermi energy shift (Ry) =     0.0000E+00     0.0000E+00

      iter #   2 total cpu time :  5054.1 secs   av.it.:  90.7
      thresh= 3.693E-06 alpha_mix =  0.700 |ddv_scf|^2 =  7.887E-09

     Pert. #  1: Fermi energy shift (Ry) =     0.0000E+00     0.0000E+00

      iter #   3 total cpu time :  5139.4 secs   av.it.:  68.7
      thresh= 8.881E-06 alpha_mix =  0.700 |ddv_scf|^2 =  9.894E-09

     Pert. #  1: Fermi energy shift (Ry) =     0.0000E+00     0.0000E+00

      iter #   4 total cpu time :  5236.9 secs   av.it.:  78.5
      thresh= 9.947E-06 alpha_mix =  0.700 |ddv_scf|^2 =  5.197E-09

     Pert. #  1: Fermi energy shift (Ry) =     0.0000E+00     0.0000E+00

      iter #   5 total cpu time :  5335.4 secs   av.it.:  77.8
      thresh= 7.209E-06 alpha_mix =  0.700 |ddv_scf|^2 =  2.341E-09

     Pert. #  1: Fermi energy shift (Ry) =     0.0000E+00     0.0000E+00

      iter #   6 total cpu time :  5436.1 secs   av.it.:  79.8
      thresh= 4.839E-06 alpha_mix =  0.700 |ddv_scf|^2 =  5.852E-09

     Pert. #  1: Fermi energy shift (Ry) =     0.0000E+00     0.0000E+00

      iter #   7 total cpu time :  5534.8 secs   av.it.:  77.7
      thresh= 7.650E-06 alpha_mix =  0.700 |ddv_scf|^2 =  9.630E-12

     Pert. #  1: Fermi energy shift (Ry) =     0.0000E+00     0.0000E+00

      iter #   8 total cpu time :  5642.4 secs   av.it.:  87.7
      thresh= 3.103E-07 alpha_mix =  0.700 |ddv_scf|^2 =  4.121E-12

     Pert. #  1: Fermi energy shift (Ry) =     0.0000E+00     0.0000E+00

      iter #   9 total cpu time :  5750.2 secs   av.it.:  84.8
      thresh= 2.030E-07 alpha_mix =  0.700 |ddv_scf|^2 =  1.191E-11

     Pert. #  1: Fermi energy shift (Ry) =     0.0000E+00     0.0000E+00

      iter #  10 total cpu time :  5848.6 secs   av.it.:  81.0
      thresh= 3.451E-07 alpha_mix =  0.700 |ddv_scf|^2 =  9.026E-12

     Pert. #  1: Fermi energy shift (Ry) =     0.0000E+00     0.0000E+00

      iter #  11 total cpu time :  5943.9 secs   av.it.:  77.3
      thresh= 3.004E-07 alpha_mix =  0.700 |ddv_scf|^2 =  7.372E-13

     End of self-consistent calculation

     Convergence has been achieved 


     Representation #   6 mode #   6

     Self-consistent Calculation

     Pert. #  1: Fermi energy shift (Ry) =     0.0000E+00     0.0000E+00

      iter #   1 total cpu time :  6022.6 secs   av.it.:  41.8
      thresh= 1.000E-02 alpha_mix =  0.700 |ddv_scf|^2 =  3.129E-05

     Pert. #  1: Fermi energy shift (Ry) =     0.0000E+00     0.0000E+00

      iter #   2 total cpu time :  6112.8 secs   av.it.:  75.0
      thresh= 5.594E-04 alpha_mix =  0.700 |ddv_scf|^2 =  7.019E-04

     Pert. #  1: Fermi energy shift (Ry) =     0.0000E+00     0.0000E+00

      iter #   3 total cpu time :  6197.2 secs   av.it.:  67.8
      thresh= 2.649E-03 alpha_mix =  0.700 |ddv_scf|^2 =  2.579E-04

     Pert. #  1: Fermi energy shift (Ry) =     0.0000E+00     0.0000E+00

      iter #   4 total cpu time :  6286.2 secs   av.it.:  69.8
      thresh= 1.606E-03 alpha_mix =  0.700 |ddv_scf|^2 =  1.149E-05

     Pert. #  1: Fermi energy shift (Ry) =     0.0000E+00     0.0000E+00

      iter #   5 total cpu time :  6379.4 secs   av.it.:  71.0
      thresh= 3.389E-04 alpha_mix =  0.700 |ddv_scf|^2 =  3.044E-07

     Pert. #  1: Fermi energy shift (Ry) =     0.0000E+00     0.0000E+00

      iter #   6 total cpu time :  6471.0 secs   av.it.:  68.5
      thresh= 5.517E-05 alpha_mix =  0.700 |ddv_scf|^2 =  1.417E-07

     Pert. #  1: Fermi energy shift (Ry) =     0.0000E+00     0.0000E+00

      iter #   7 total cpu time :  6565.2 secs   av.it.:  72.8
      thresh= 3.764E-05 alpha_mix =  0.700 |ddv_scf|^2 =  2.508E-09

     Pert. #  1: Fermi energy shift (Ry) =     0.0000E+00     0.0000E+00

      iter #   8 total cpu time :  6662.7 secs   av.it.:  77.0
      thresh= 5.008E-06 alpha_mix =  0.700 |ddv_scf|^2 =  1.004E-08

     Pert. #  1: Fermi energy shift (Ry) =     0.0000E+00     0.0000E+00

      iter #   9 total cpu time :  6752.9 secs   av.it.:  68.0
      thresh= 1.002E-05 alpha_mix =  0.700 |ddv_scf|^2 =  3.871E-10

     Pert. #  1: Fermi energy shift (Ry) =     0.0000E+00     0.0000E+00

      iter #  10 total cpu time :  6845.1 secs   av.it.:  69.0
      thresh= 1.968E-06 alpha_mix =  0.700 |ddv_scf|^2 =  8.575E-12

     Pert. #  1: Fermi energy shift (Ry) =     0.0000E+00     0.0000E+00

      iter #  11 total cpu time :  6937.4 secs   av.it.:  75.2
      thresh= 2.928E-07 alpha_mix =  0.700 |ddv_scf|^2 =  3.290E-14

     End of self-consistent calculation

     Convergence has been achieved 

     Number of q in the star =    1
     List of q in the star:
          1   0.000000000   0.000000000   0.000000000

     Diagonalizing the dynamical matrix

     q = (    0.000000000   0.000000000   0.000000000 ) 

 **************************************************************************
     freq (    1) =     -94.953385 [THz] =   -3167.303983 [cm-1]
     freq (    2) =     -77.151824 [THz] =   -2573.507825 [cm-1]
     freq (    3) =     -77.137279 [THz] =   -2573.022679 [cm-1]
     freq (    4) =     -57.322825 [THz] =   -1912.083634 [cm-1]
     freq (    5) =     -51.045829 [THz] =   -1702.705564 [cm-1]
     freq (    6) =     -51.023821 [THz] =   -1701.971466 [cm-1]
 **************************************************************************

     Mode symmetry, C_1 (1)     point group:

     freq (   1-   1) =      -3167.3  [cm-1]   --> A               I+R
     freq (   2-   2) =      -2573.5  [cm-1]   --> A               I+R
     freq (   3-   3) =      -2573.0  [cm-1]   --> A               I+R
     freq (   4-   4) =      -1912.1  [cm-1]   --> A               I+R
     freq (   5-   5) =      -1702.7  [cm-1]   --> A               I+R
     freq (   6-   6) =      -1702.0  [cm-1]   --> A               I+R

     PHONON       :      1h47m CPU      1h55m WALL

     INITIALIZATION: 
     phq_setup    :     12.98s CPU     14.30s WALL (       1 calls)
     phq_init     :    117.60s CPU    120.89s WALL (       1 calls)

     phq_init     :    117.60s CPU    120.89s WALL (       1 calls)
     set_drhoc    :     23.93s CPU     24.03s WALL (       3 calls)
     init_vloc    :      0.31s CPU      0.32s WALL (       1 calls)
     init_us_1    :      0.05s CPU      0.05s WALL (       1 calls)
     newd         :      1.26s CPU      1.31s WALL (       1 calls)
     dvanqq       :     43.25s CPU     43.77s WALL (       1 calls)
     drho         :     29.00s CPU     30.90s WALL (       1 calls)

     DYNAMICAL MATRIX:
     dynmat0      :     22.88s CPU     23.66s WALL (       1 calls)
     phqscf       :   6330.01s CPU   6796.73s WALL (       1 calls)
     dynmatrix    :      0.04s CPU      0.13s WALL (       1 calls)

     phqscf       :   6330.01s CPU   6796.73s WALL (       1 calls)
     solve_linter :   6325.58s CPU   6778.09s WALL (       6 calls)
     drhodv       :      4.42s CPU      4.56s WALL (       6 calls)

     dynmat0      :     22.88s CPU     23.66s WALL (       1 calls)
     dynmat_us    :      0.82s CPU      0.84s WALL (       1 calls)
     d2ionq       :      0.20s CPU      0.20s WALL (       1 calls)
     dynmatcc     :     21.83s CPU     22.47s WALL (       1 calls)

     dynmat_us    :      0.82s CPU      0.84s WALL (       1 calls)
     addusdynmat  :      0.00s CPU      0.00s WALL (       1 calls)

     phqscf       :   6330.01s CPU   6796.73s WALL (       1 calls)
     solve_linter :   6325.58s CPU   6778.09s WALL (       6 calls)

     solve_linter :   6325.58s CPU   6778.09s WALL (       6 calls)
     dvqpsi_us    :      8.31s CPU      8.48s WALL (      18 calls)
     ortho        :      3.12s CPU      3.18s WALL (     213 calls)
     cgsolve      :   4403.56s CPU   4443.85s WALL (     213 calls)
     incdrhoscf   :     35.69s CPU     36.10s WALL (     213 calls)
     addusddens   :     71.14s CPU     78.80s WALL (      77 calls)
     vpsifft      :     42.94s CPU     43.58s WALL (     195 calls)
     dv_of_drho   :    479.15s CPU    500.32s WALL (      71 calls)
     mix_pot      :    111.00s CPU    230.16s WALL (      71 calls)
     ef_shift     :     67.84s CPU     68.88s WALL (      77 calls)
     localdos     :     29.32s CPU     30.54s WALL (       6 calls)
     psymdvscf    :    362.59s CPU    543.15s WALL (      71 calls)
     newdq        :    212.19s CPU    222.55s WALL (      71 calls)
     adddvscf     :      1.04s CPU      1.05s WALL (     195 calls)
     drhodvus     :      1.51s CPU     14.70s WALL (       6 calls)

     dvqpsi_us    :      8.31s CPU      8.48s WALL (      18 calls)
     dvqpsi_us_on :      0.13s CPU      0.13s WALL (      18 calls)

     cgsolve      :   4403.56s CPU   4443.85s WALL (     213 calls)
     ch_psi       :   4295.38s CPU   4334.57s WALL (   42718 calls)

     ch_psi       :   4295.38s CPU   4334.57s WALL (   42718 calls)
     h_psi        :   3927.19s CPU   3962.83s WALL (   42718 calls)
     last         :    261.76s CPU    264.29s WALL (   42718 calls)

     h_psi        :   3927.19s CPU   3962.83s WALL (   42718 calls)
     add_vuspsi   :     74.85s CPU     75.71s WALL (   42718 calls)

     incdrhoscf   :     35.69s CPU     36.10s WALL (     213 calls)
     addusdbec    :      0.82s CPU      0.83s WALL (     231 calls)

     drhodvus     :      1.51s CPU     14.70s WALL (       6 calls)

      General routines
     calbec       :    165.29s CPU    167.21s WALL (   86000 calls)
     fft          :    733.32s CPU    748.71s WALL (    2647 calls)
     ffts         :     27.42s CPU     28.04s WALL (     442 calls)
     fftw         :   3321.55s CPU   3350.42s WALL (  185097 calls)
     davcio       :      0.41s CPU    139.76s WALL (    1697 calls)
     write_rec    :      0.00s CPU     48.30s WALL (      77 calls)


     PHONON       :      1h47m CPU      1h55m WALL


   This run was terminated on:   0:20:32  21Sep2022            

=------------------------------------------------------------------------------=
   JOB DONE.
=------------------------------------------------------------------------------=
