
     Program PWSCF v.6.7MaX starts on  8Jul2022 at 17:28:54 

     This program is part of the open-source Quantum ESPRESSO suite
     for quantum simulation of materials; please cite
         "P. Giannozzi et al., J. Phys.:Condens. Matter 21 395502 (2009);
         "P. Giannozzi et al., J. Phys.:Condens. Matter 29 465901 (2017);
          URL http://www.quantum-espresso.org", 
     in publications or presentations arising from this work. More details at
     http://www.quantum-espresso.org/quote

     Parallel version (MPI), running on   256 processors

     MPI processes distributed on     2 nodes
     K-points division:     npool     =       8
     R & G space division:  proc/nbgrp/npool/nimage =      32
     Waiting for input...
     Reading input from standard input
Warning: card &CELL ignored
Warning: card / ignored

     Current dimensions of program PWSCF are:
     Max number of different atomic species (ntypx) = 10
     Max number of k-points (npk) =  40000
     Max angular momentum in pseudopotentials (lmaxx) =  3
     file Fe.pbe-spn-kjpaw_psl.0.2.1.UPF: wavefunction(s)  3D renormalized

     IMPORTANT: XC functional enforced from input :
     Exchange-correlation= PBE
                           (   1   4   3   4   0   0   0)
     Any further DFT definition will be discarded
     Please, verify this is what you really want


     -------------------------------------------------
     Parameters for Dispersion (Grimme-D2) Correction:
     -------------------------------------------------
       atom      VdW radius       C_6     

        Fe         2.952        374.666
        N          2.640         42.670
        H          1.892          4.857

     Subspace diagonalization in iterative solution of the eigenvalue problem:
     one sub-group per band group will be used
     scalapack distributed-memory algorithm (size of sub-group:  5*  5 procs)


     Parallelization info
     --------------------
     sticks:   dense  smooth     PW     G-vecs:    dense   smooth      PW
     Min         396     198     52                90796    32100    4368
     Max         397     199     53                90807    32109    4377
     Sum       12685    6351   1677              2905599  1027285  139897



     bravais-lattice index     =            0
     lattice parameter (alat)  =      18.7640  a.u.
     unit-cell volume          =   16360.3161 (a.u.)^3
     number of atoms/cell      =           66
     number of atomic types    =            3
     number of electrons       =      1030.00
     number of Kohn-Sham states=          618
     kinetic-energy cutoff     =      60.0000  Ry
     charge density cutoff     =     480.0000  Ry
     scf convergence threshold =      1.0E-08
     mixing beta               =       0.2000
     number of iterations used =           10  local-TF  mixing
     energy convergence thresh.=      7.3E-07
     force convergence thresh. =      3.9E-04
     Exchange-correlation= PBE
                           (   1   4   3   4   0   0   0)
     nstep                     =           50


     Effective Screening Medium Method
     =================================
     Boundary Conditions: Metal-Slab-Metal
     field strength                   =     0.00 Ry/a.u.
     grid points for fit at edges     =        4 


     celldm(1)=  18.764036  celldm(2)=   0.000000  celldm(3)=   0.000000
     celldm(4)=   0.000000  celldm(5)=   0.000000  celldm(6)=   0.000000

     crystal axes: (cart. coord. in units of alat)
               a(1) = (   1.000000   0.000000   0.000000 )  
               a(2) = (   0.333330   0.942807   0.000000 )  
               a(3) = (   0.000000   0.000000   2.626577 )  

     reciprocal axes: (cart. coord. in units 2 pi/alat)
               b(1) = (  1.000000 -0.353551  0.000000 )  
               b(2) = (  0.000000  1.060663  0.000000 )  
               b(3) = (  0.000000  0.000000  0.380724 )  


     PseudoPot. # 1 for Fe read from file:
     ../../SSSP/Fe.pbe-spn-kjpaw_psl.0.2.1.UPF
     MD5 check sum: e86618425769142926afa95317d90200
     Pseudo is Projector augmented-wave + core cor, Zval = 16.0
     Generated using "atomic" code by A. Dal Corso  v.5.0.99 svn rev. 10869
     Shape of augmentation charge: PSQ
     Using radial grid of 1191 points,  6 beta functions with: 
                l(1) =   0
                l(2) =   0
                l(3) =   1
                l(4) =   1
                l(5) =   2
                l(6) =   2
     Q(r) pseudized with 0 coefficients 


     PseudoPot. # 2 for N  read from file:
     ../../SSSP/N.pbe-n-radius_5.UPF
     MD5 check sum: 16739722b17309cd8fe442a2ace49922
     Pseudo is Ultrasoft + core correction, Zval =  5.0
     Generated using "atomic" code by A. Dal Corso  v.5.1
     Using radial grid of 1085 points,  4 beta functions with: 
                l(1) =   0
                l(2) =   0
                l(3) =   1
                l(4) =   1
     Q(r) pseudized with 0 coefficients 


     PseudoPot. # 3 for H  read from file:
     ../../SSSP/H.pbe-rrkjus_psl.1.0.0.UPF
     MD5 check sum: f52b6d4d1c606e5624b1dc7b2218f220
     Pseudo is Ultrasoft, Zval =  1.0
     Generated using "atomic" code by A. Dal Corso  v.5.1
     Using radial grid of  929 points,  2 beta functions with: 
                l(1) =   0
                l(2) =   0
     Q(r) pseudized with 0 coefficients 


     atomic species   valence    mass     pseudopotential
        Fe            16.00    55.84500     Fe( 1.00)
        N              5.00    14.00700     N ( 1.00)
        H              1.00     1.00800     H ( 1.00)

     Starting magnetic structure 
     atomic species   magnetization
        Fe           0.100
        N            0.100
        H            0.100

     No symmetry found



   Cartesian axes

     site n.     atom                  positions (alat units)
         1           Fe  tau(   1) = (   0.1666663   0.1178509   0.0000000  )
         2           Fe  tau(   2) = (   0.0000000   0.0000000   0.2041376  )
         3           Fe  tau(   3) = (   0.4999989   0.3535526   0.0000000  )
         4           Fe  tau(   4) = (   0.3333326   0.2357017   0.2041376  )
         5           Fe  tau(   5) = (   0.1686761   0.1178127   0.4053879  )
         6           Fe  tau(   6) = (   0.3341315   0.9417505   0.6038790  )
         7           Fe  tau(   7) = (   0.5010185   0.3547334   0.4069946  )
         8           Fe  tau(   8) = (   0.3389328   0.2353237   0.6057351  )
         9           Fe  tau(   9) = (   0.2499989   0.3535526   0.0000000  )
        10           Fe  tau(  10) = (   0.4166663   0.1178509   0.0000000  )
        11           Fe  tau(  11) = (   0.0833326   0.2357017   0.2041376  )
        12           Fe  tau(  12) = (   0.2500000   0.0000000   0.2041376  )
        13           Fe  tau(  13) = (   0.2500084   0.3535729   0.4069214  )
        14           Fe  tau(  14) = (   0.4190425   0.1195526   0.4061230  )
        15           Fe  tau(  15) = (   0.0867832   0.2339355   0.6042259  )
        16           Fe  tau(  16) = (   0.2513422   0.0009614   0.6055814  )
        17           Fe  tau(  17) = (   0.6666663   0.1178509   0.0000000  )
        18           Fe  tau(  18) = (   0.5000000   0.0000000   0.2041376  )
        19           Fe  tau(  19) = (   0.9999989   0.3535526   0.0000000  )
        20           Fe  tau(  20) = (   0.8333326   0.2357017   0.2041376  )
        21           Fe  tau(  21) = (   0.6681148   0.1184360   0.4069829  )
        22           Fe  tau(  22) = (   0.5015260   0.0054035   0.6057602  )
        23           Fe  tau(  23) = (   0.9990254   0.3524190   0.4069836  )
        24           Fe  tau(  24) = (   0.8421952   0.2232795   0.6023458  )
        25           Fe  tau(  25) = (   0.7499989   0.3535526   0.0000000  )
        26           Fe  tau(  26) = (   0.9166663   0.1178509   0.0000000  )
        27           Fe  tau(  27) = (   0.5833326   0.2357017   0.2041376  )
        28           Fe  tau(  28) = (   0.7500000   0.0000000   0.2041376  )
        29           Fe  tau(  29) = (   0.7500309   0.3535694   0.4028860  )
        30           Fe  tau(  30) = (   0.9184071   0.1154439   0.4036023  )
        31           Fe  tau(  31) = (   0.5922594   0.2420028   0.6095128  )
        32           Fe  tau(  32) = (   1.0839296   0.9390490   0.6042254  )
        33           Fe  tau(  33) = (   0.3333315   0.5892543   0.0000000  )
        34           Fe  tau(  34) = (   0.1666652   0.4714034   0.2041376  )
        35           Fe  tau(  35) = (   0.6666640   0.8249560   0.0000000  )
        36           Fe  tau(  36) = (   0.4999978   0.7071052   0.2041376  )
        37           Fe  tau(  37) = (   0.3313617   0.5893276   0.4053908  )
        38           Fe  tau(  38) = (   1.1611812   0.4718200   0.6057582  )
        39           Fe  tau(  39) = (   0.6673001   0.8268787   0.4053878  )
        40           Fe  tau(  40) = (   0.4992589   0.7082242   0.6038060  )
        41           Fe  tau(  41) = (   0.4166640   0.8249560   0.0000000  )
        42           Fe  tau(  42) = (   0.5833315   0.5892543   0.0000000  )
        43           Fe  tau(  43) = (   1.2499978   0.7071052   0.2041376  )
        44           Fe  tau(  44) = (   0.4166652   0.4714034   0.2041376  )
        45           Fe  tau(  45) = (   0.4166750   0.8249924   0.4051227  )
        46           Fe  tau(  46) = (   0.5816440   0.5916935   0.4035888  )
        47           Fe  tau(  47) = (   1.2487180   0.7062162   0.6055774  )
        48           Fe  tau(  48) = (   0.4133036   0.4732283   0.6042394  )
        49           Fe  tau(  49) = (   0.8333315   0.5892543   0.0000000  )
        50           Fe  tau(  50) = (   0.6666652   0.4714034   0.2041376  )
        51           Fe  tau(  51) = (   1.1666640   0.8249560   0.0000000  )
        52           Fe  tau(  52) = (   0.9999978   0.7071052   0.2041376  )
        53           Fe  tau(  53) = (   0.8319388   0.5887338   0.4069947  )
        54           Fe  tau(  54) = (   0.6578912   0.4839290   0.6023306  )
        55           Fe  tau(  55) = (   1.1660796   0.8230901   0.4053873  )
        56           Fe  tau(  56) = (   0.9985750   0.7017844   0.6057248  )
        57           Fe  tau(  57) = (   0.9166640   0.8249560   0.0000000  )
        58           Fe  tau(  58) = (   1.0833315   0.5892543   0.0000000  )
        59           Fe  tau(  59) = (   0.7499978   0.7071052   0.2041376  )
        60           Fe  tau(  60) = (   0.9166652   0.4714034   0.2041376  )
        61           Fe  tau(  61) = (   0.9166941   0.8250019   0.4069198  )
        62           Fe  tau(  62) = (   1.0809968   0.5876199   0.4061253  )
        63           Fe  tau(  63) = (   0.7494825   0.7109756   0.6042358  )
        64           Fe  tau(  64) = (   0.9078936   0.4651830   0.6094990  )
        65           N   tau(  65) = (   0.7501544   0.3536979   0.7049393  )
        66           H   tau(  66) = (   0.7501627   0.3537519   0.8083875  )

     number of k points=    10  Methfessel-Paxton smearing, width (Ry)=  0.0100
                       cart. coord. in units 2pi/alat
        k(    1) = (   0.0000000   0.0000000   0.0000000), wk =   0.0625000
        k(    2) = (   0.0000000   0.2651656   0.0000000), wk =   0.1250000
        k(    3) = (   0.0000000  -0.5303313   0.0000000), wk =   0.0625000
        k(    4) = (   0.2500000  -0.0883878   0.0000000), wk =   0.1250000
        k(    5) = (   0.2500000   0.1767779   0.0000000), wk =   0.1250000
        k(    6) = (   0.2500000  -0.6187190   0.0000000), wk =   0.1250000
        k(    7) = (   0.2500000  -0.3535534   0.0000000), wk =   0.1250000
        k(    8) = (  -0.5000000   0.1767755   0.0000000), wk =   0.0625000
        k(    9) = (  -0.5000000   0.4419412   0.0000000), wk =   0.1250000
        k(   10) = (  -0.5000000  -0.3535558   0.0000000), wk =   0.0625000

     Dense  grid:  2905599 G-vectors     FFT dimensions: ( 135, 135, 360)

     Smooth grid:  1027285 G-vectors     FFT dimensions: (  96,  96, 243)

     Estimated max dynamical RAM per process >     639.95 MB

     Estimated total dynamical RAM >     159.99 GB

     Check: negative core charge=   -0.000039
     Generating pointlists ...
     new r_m :   0.0783 (alat units)  1.4686 (a.u.) for type    1
     new r_m :   0.0427 (alat units)  0.8007 (a.u.) for type    2
     new r_m :   0.0427 (alat units)  0.8007 (a.u.) for type    3

     Initial potential from superposition of free atoms

     starting charge 1029.97193, renormalised to 1030.00000

     negative rho (up, down):  1.347E-02 1.102E-02
     Starting wfcs are  837 randomized atomic wfcs
     Checking if some PAW data can be deallocated... 

     total cpu time spent up to now is       31.9 secs

     Self-consistent Calculation

     iteration #  1     ecut=    60.00 Ry     beta= 0.20
     Davidson diagonalization with overlap
     c_bands:  1 eigenvalues not converged
     ethr =  1.00E-04,  avg # of iterations = 18.1

     negative rho (up, down):  6.775E-03 5.429E-03

     total cpu time spent up to now is      332.0 secs

     total energy              =  -21093.41852172 Ry
     estimated scf accuracy    <      43.99936956 Ry

     total magnetization       =   133.48 Bohr mag/cell
     absolute magnetization    =   133.83 Bohr mag/cell

     iteration #  2     ecut=    60.00 Ry     beta= 0.20
     Davidson diagonalization with overlap
     ethr =  4.27E-03,  avg # of iterations =  1.0

     negative rho (up, down):  4.004E-03 3.401E-03

     total cpu time spent up to now is      378.9 secs

     total energy              =  -21093.80958985 Ry
     estimated scf accuracy    <       9.51121152 Ry

     total magnetization       =   135.93 Bohr mag/cell
     absolute magnetization    =   136.27 Bohr mag/cell

     iteration #  3     ecut=    60.00 Ry     beta= 0.20
     Davidson diagonalization with overlap
     ethr =  9.23E-04,  avg # of iterations =  1.0

     negative rho (up, down):  1.828E-02 5.726E-02

     total cpu time spent up to now is      424.9 secs

     total energy              =  -21093.03184038 Ry
     estimated scf accuracy    <      10.19007494 Ry

     total magnetization       =   141.51 Bohr mag/cell
     absolute magnetization    =   141.89 Bohr mag/cell

     iteration #  4     ecut=    60.00 Ry     beta= 0.20
     Davidson diagonalization with overlap
     ethr =  9.23E-04,  avg # of iterations =  3.6

     negative rho (up, down):  2.939E-02 1.024E-01

     total cpu time spent up to now is      480.3 secs

     total energy              =  -21092.36743125 Ry
     estimated scf accuracy    <       8.57937637 Ry

     total magnetization       =   154.52 Bohr mag/cell
     absolute magnetization    =   155.58 Bohr mag/cell

     iteration #  5     ecut=    60.00 Ry     beta= 0.20
     Davidson diagonalization with overlap
     ethr =  8.33E-04,  avg # of iterations =  4.8

     negative rho (up, down):  2.859E-03 3.012E-02

     total cpu time spent up to now is      543.9 secs

     total energy              =  -21092.95975955 Ry
     estimated scf accuracy    <       4.04291128 Ry

     total magnetization       =   159.71 Bohr mag/cell
     absolute magnetization    =   161.72 Bohr mag/cell

     iteration #  6     ecut=    60.00 Ry     beta= 0.20
     Davidson diagonalization with overlap
     ethr =  3.93E-04,  avg # of iterations =  9.2

     negative rho (up, down):  3.438E-05 6.501E-03

     total cpu time spent up to now is      618.8 secs

     total energy              =  -21093.32719701 Ry
     estimated scf accuracy    <       1.01727080 Ry

     total magnetization       =   151.76 Bohr mag/cell
     absolute magnetization    =   154.78 Bohr mag/cell

     iteration #  7     ecut=    60.00 Ry     beta= 0.20
     Davidson diagonalization with overlap
     ethr =  9.88E-05,  avg # of iterations = 14.8

     negative rho (up, down):  2.641E-05 4.177E-03

     total cpu time spent up to now is      788.9 secs

     total energy              =  -21093.76949583 Ry
     estimated scf accuracy    <       2.30804399 Ry

     total magnetization       =   149.62 Bohr mag/cell
     absolute magnetization    =   154.83 Bohr mag/cell

     iteration #  8     ecut=    60.00 Ry     beta= 0.20
     Davidson diagonalization with overlap
     ethr =  9.88E-05,  avg # of iterations =  1.4

     negative rho (up, down):  1.082E-05 1.638E-03

     total cpu time spent up to now is      839.7 secs

     total energy              =  -21093.76236950 Ry
     estimated scf accuracy    <       0.42644525 Ry

     total magnetization       =   151.57 Bohr mag/cell
     absolute magnetization    =   156.20 Bohr mag/cell

     iteration #  9     ecut=    60.00 Ry     beta= 0.20
     Davidson diagonalization with overlap
     ethr =  4.14E-05,  avg # of iterations =  6.6

     negative rho (up, down):  2.565E-04 1.236E-03

     total cpu time spent up to now is      909.4 secs

     total energy              =  -21093.77036316 Ry
     estimated scf accuracy    <       0.31217336 Ry

     total magnetization       =   152.57 Bohr mag/cell
     absolute magnetization    =   156.98 Bohr mag/cell

     iteration # 10     ecut=    60.00 Ry     beta= 0.20
     Davidson diagonalization with overlap
     ethr =  3.03E-05,  avg # of iterations =  6.7

     negative rho (up, down):  1.323E-04 1.654E-03

     total cpu time spent up to now is      991.3 secs

     total energy              =  -21093.78959221 Ry
     estimated scf accuracy    <       0.42552868 Ry

     total magnetization       =   156.14 Bohr mag/cell
     absolute magnetization    =   160.76 Bohr mag/cell

     iteration # 11     ecut=    60.00 Ry     beta= 0.20
     Davidson diagonalization with overlap
     ethr =  3.03E-05,  avg # of iterations =  1.0

     negative rho (up, down):  1.092E-04 1.447E-03

     total cpu time spent up to now is     1037.7 secs

     total energy              =  -21093.79128880 Ry
     estimated scf accuracy    <       0.23902313 Ry

     total magnetization       =   157.97 Bohr mag/cell
     absolute magnetization    =   162.65 Bohr mag/cell

     iteration # 12     ecut=    60.00 Ry     beta= 0.20
     Davidson diagonalization with overlap
     ethr =  2.32E-05,  avg # of iterations =  1.3

     negative rho (up, down):  2.930E-03 3.223E-03

     total cpu time spent up to now is     1088.1 secs

     total energy              =  -21093.77547755 Ry
     estimated scf accuracy    <       0.21877943 Ry

     total magnetization       =   158.41 Bohr mag/cell
     absolute magnetization    =   163.12 Bohr mag/cell

     iteration # 13     ecut=    60.00 Ry     beta= 0.20
     Davidson diagonalization with overlap
     ethr =  2.12E-05,  avg # of iterations =  6.0

     negative rho (up, down):  5.944E-03 5.854E-03

     total cpu time spent up to now is     1149.5 secs

     total energy              =  -21093.78405776 Ry
     estimated scf accuracy    <       0.36735708 Ry

     total magnetization       =   160.57 Bohr mag/cell
     absolute magnetization    =   165.49 Bohr mag/cell

     iteration # 14     ecut=    60.00 Ry     beta= 0.20
     Davidson diagonalization with overlap
     ethr =  2.12E-05,  avg # of iterations =  2.9

     negative rho (up, down):  5.156E-02 5.051E-02

     total cpu time spent up to now is     1210.6 secs

     total energy              =  -21093.78184172 Ry
     estimated scf accuracy    <       0.16575253 Ry

     total magnetization       =   161.28 Bohr mag/cell
     absolute magnetization    =   166.26 Bohr mag/cell

     iteration # 15     ecut=    60.00 Ry     beta= 0.20
     Davidson diagonalization with overlap
     ethr =  1.61E-05,  avg # of iterations =  5.1

     negative rho (up, down):  1.028E-01 1.002E-01

     total cpu time spent up to now is     1282.7 secs

     total energy              =  -21093.76488687 Ry
     estimated scf accuracy    <       0.12506569 Ry

     total magnetization       =   161.24 Bohr mag/cell
     absolute magnetization    =   166.27 Bohr mag/cell

     iteration # 16     ecut=    60.00 Ry     beta= 0.20
     Davidson diagonalization with overlap
     c_bands:  4 eigenvalues not converged
     c_bands:  1 eigenvalues not converged
     ethr =  1.21E-05,  avg # of iterations = 20.9

     negative rho (up, down):  7.346E-02 7.177E-02

     total cpu time spent up to now is     1460.6 secs

     total energy              =  -21093.76179378 Ry
     estimated scf accuracy    <       0.04976076 Ry

     total magnetization       =   160.79 Bohr mag/cell
     absolute magnetization    =   166.07 Bohr mag/cell

     iteration # 17     ecut=    60.00 Ry     beta= 0.20
     Davidson diagonalization with overlap
     c_bands:  1 eigenvalues not converged
     c_bands:  1 eigenvalues not converged
     c_bands:  2 eigenvalues not converged
     ethr =  4.83E-06,  avg # of iterations = 20.5

     negative rho (up, down):  6.992E-02 6.698E-02

     total cpu time spent up to now is     1666.7 secs

     total energy              =  -21093.76418945 Ry
     estimated scf accuracy    <       0.03762565 Ry

     total magnetization       =   159.28 Bohr mag/cell
     absolute magnetization    =   164.93 Bohr mag/cell

     iteration # 18     ecut=    60.00 Ry     beta= 0.20
     Davidson diagonalization with overlap
     ethr =  3.65E-06,  avg # of iterations = 10.9

     negative rho (up, down):  1.010E-01 9.856E-02

     total cpu time spent up to now is     1763.1 secs

     total energy              =  -21093.73031147 Ry
     estimated scf accuracy    <       0.01965575 Ry

     total magnetization       =   159.94 Bohr mag/cell
     absolute magnetization    =   165.70 Bohr mag/cell

     iteration # 19     ecut=    60.00 Ry     beta= 0.20
     Davidson diagonalization with overlap
     ethr =  1.91E-06,  avg # of iterations = 14.9

     negative rho (up, down):  1.053E-01 1.031E-01

     total cpu time spent up to now is     1953.0 secs

     total energy              =  -21093.73467599 Ry
     estimated scf accuracy    <       0.00986505 Ry

     total magnetization       =   160.32 Bohr mag/cell
     absolute magnetization    =   166.74 Bohr mag/cell

     iteration # 20     ecut=    60.00 Ry     beta= 0.20
     Davidson diagonalization with overlap
     ethr =  9.58E-07,  avg # of iterations = 13.3

     negative rho (up, down):  8.244E-02 8.123E-02

     total cpu time spent up to now is     2097.4 secs

     total energy              =  -21093.72908336 Ry
     estimated scf accuracy    <       0.00636722 Ry

     total magnetization       =   160.66 Bohr mag/cell
     absolute magnetization    =   167.22 Bohr mag/cell

     iteration # 21     ecut=    60.00 Ry     beta= 0.20
     Davidson diagonalization with overlap
     ethr =  6.18E-07,  avg # of iterations = 11.0

     negative rho (up, down):  4.053E-02 4.206E-02

     total cpu time spent up to now is     2190.0 secs

     total energy              =  -21093.72531741 Ry
     estimated scf accuracy    <       0.00515652 Ry

     total magnetization       =   160.82 Bohr mag/cell
     absolute magnetization    =   167.38 Bohr mag/cell

     iteration # 22     ecut=    60.00 Ry     beta= 0.20
     Davidson diagonalization with overlap
     ethr =  5.01E-07,  avg # of iterations =  7.0

     negative rho (up, down):  3.331E-02 3.543E-02

     total cpu time spent up to now is     2266.0 secs

     total energy              =  -21093.72670910 Ry
     estimated scf accuracy    <       0.00187854 Ry

     total magnetization       =   160.79 Bohr mag/cell
     absolute magnetization    =   167.33 Bohr mag/cell

     iteration # 23     ecut=    60.00 Ry     beta= 0.20
     Davidson diagonalization with overlap
     c_bands:  3 eigenvalues not converged
     ethr =  1.82E-07,  avg # of iterations = 13.1

     negative rho (up, down):  2.873E-02 3.118E-02

     total cpu time spent up to now is     2477.8 secs

     total energy              =  -21093.72835118 Ry
     estimated scf accuracy    <       0.00075169 Ry

     total magnetization       =   160.86 Bohr mag/cell
     absolute magnetization    =   167.40 Bohr mag/cell

     iteration # 24     ecut=    60.00 Ry     beta= 0.20
     Davidson diagonalization with overlap
     ethr =  7.30E-08,  avg # of iterations =  8.7

     negative rho (up, down):  1.896E-02 2.212E-02

     total cpu time spent up to now is     2602.0 secs

     total energy              =  -21093.73044614 Ry
     estimated scf accuracy    <       0.00051240 Ry

     total magnetization       =   160.88 Bohr mag/cell
     absolute magnetization    =   167.42 Bohr mag/cell

     iteration # 25     ecut=    60.00 Ry     beta= 0.20
     Davidson diagonalization with overlap
     ethr =  4.97E-08,  avg # of iterations =  7.2

     negative rho (up, down):  1.588E-02 1.952E-02

     total cpu time spent up to now is     2713.3 secs

     total energy              =  -21093.73162435 Ry
     estimated scf accuracy    <       0.00011796 Ry

     total magnetization       =   160.99 Bohr mag/cell
     absolute magnetization    =   167.60 Bohr mag/cell

     iteration # 26     ecut=    60.00 Ry     beta= 0.20
     Davidson diagonalization with overlap
     ethr =  1.15E-08,  avg # of iterations = 11.0

     negative rho (up, down):  1.421E-02 1.826E-02

     total cpu time spent up to now is     2883.2 secs

     total energy              =  -21093.73248922 Ry
     estimated scf accuracy    <       0.00008571 Ry

     total magnetization       =   161.01 Bohr mag/cell
     absolute magnetization    =   167.61 Bohr mag/cell

     iteration # 27     ecut=    60.00 Ry     beta= 0.20
     Davidson diagonalization with overlap
     ethr =  8.32E-09,  avg # of iterations =  3.7

     negative rho (up, down):  1.257E-02 1.679E-02

     total cpu time spent up to now is     2938.1 secs

     total energy              =  -21093.73339799 Ry
     estimated scf accuracy    <       0.00003349 Ry

     total magnetization       =   161.00 Bohr mag/cell
     absolute magnetization    =   167.60 Bohr mag/cell

     iteration # 28     ecut=    60.00 Ry     beta= 0.20
     Davidson diagonalization with overlap
     ethr =  3.25E-09,  avg # of iterations = 10.3

     negative rho (up, down):  1.202E-02 1.628E-02

     total cpu time spent up to now is     3091.1 secs

     total energy              =  -21093.73387651 Ry
     estimated scf accuracy    <       0.00001650 Ry

     total magnetization       =   161.01 Bohr mag/cell
     absolute magnetization    =   167.61 Bohr mag/cell

     iteration # 29     ecut=    60.00 Ry     beta= 0.20
     Davidson diagonalization with overlap
     ethr =  1.60E-09,  avg # of iterations =  9.1

     negative rho (up, down):  1.170E-02 1.598E-02

     total cpu time spent up to now is     3261.4 secs

     total energy              =  -21093.73452716 Ry
     estimated scf accuracy    <       0.00001262 Ry

     total magnetization       =   161.02 Bohr mag/cell
     absolute magnetization    =   167.62 Bohr mag/cell

     iteration # 30     ecut=    60.00 Ry     beta= 0.20
     Davidson diagonalization with overlap
     ethr =  1.22E-09,  avg # of iterations =  7.0

     negative rho (up, down):  1.183E-02 1.611E-02

     total cpu time spent up to now is     3355.9 secs

     total energy              =  -21093.73453244 Ry
     estimated scf accuracy    <       0.00000662 Ry

     total magnetization       =   161.02 Bohr mag/cell
     absolute magnetization    =   167.61 Bohr mag/cell

     iteration # 31     ecut=    60.00 Ry     beta= 0.20
     Davidson diagonalization with overlap
     ethr =  6.43E-10,  avg # of iterations =  4.8

     negative rho (up, down):  1.182E-02 1.610E-02

     total cpu time spent up to now is     3426.9 secs

     total energy              =  -21093.73453615 Ry
     estimated scf accuracy    <       0.00000191 Ry

     total magnetization       =   161.01 Bohr mag/cell
     absolute magnetization    =   167.61 Bohr mag/cell

     iteration # 32     ecut=    60.00 Ry     beta= 0.20
     Davidson diagonalization with overlap
     ethr =  1.85E-10,  avg # of iterations =  8.4

     negative rho (up, down):  1.183E-02 1.612E-02

     total cpu time spent up to now is     3576.0 secs

     total energy              =  -21093.73450937 Ry
     estimated scf accuracy    <       0.00000142 Ry

     total magnetization       =   161.01 Bohr mag/cell
     absolute magnetization    =   167.61 Bohr mag/cell

     iteration # 33     ecut=    60.00 Ry     beta= 0.20
     Davidson diagonalization with overlap
     ethr =  1.38E-10,  avg # of iterations =  2.8

     negative rho (up, down):  1.190E-02 1.618E-02

     total cpu time spent up to now is     3631.4 secs

     total energy              =  -21093.73443891 Ry
     estimated scf accuracy    <       0.00000125 Ry

     total magnetization       =   161.01 Bohr mag/cell
     absolute magnetization    =   167.61 Bohr mag/cell

     iteration # 34     ecut=    60.00 Ry     beta= 0.20
     Davidson diagonalization with overlap
     ethr =  1.22E-10,  avg # of iterations =  6.0

     negative rho (up, down):  1.182E-02 1.610E-02

     total cpu time spent up to now is     3731.3 secs

     total energy              =  -21093.73451845 Ry
     estimated scf accuracy    <       0.00000062 Ry

     total magnetization       =   161.02 Bohr mag/cell
     absolute magnetization    =   167.62 Bohr mag/cell

     iteration # 35     ecut=    60.00 Ry     beta= 0.20
     Davidson diagonalization with overlap
     ethr =  5.98E-11,  avg # of iterations =  6.6

     negative rho (up, down):  1.184E-02 1.613E-02

     total cpu time spent up to now is     3832.1 secs

     total energy              =  -21093.73448452 Ry
     estimated scf accuracy    <       0.00000018 Ry

     total magnetization       =   161.02 Bohr mag/cell
     absolute magnetization    =   167.62 Bohr mag/cell

     iteration # 36     ecut=    60.00 Ry     beta= 0.20
     Davidson diagonalization with overlap
     ethr =  1.75E-11,  avg # of iterations =  8.1

     negative rho (up, down):  1.184E-02 1.613E-02

     total cpu time spent up to now is     3970.0 secs

     total energy              =  -21093.73447028 Ry
     estimated scf accuracy    <       0.00000009 Ry

     total magnetization       =   161.02 Bohr mag/cell
     absolute magnetization    =   167.62 Bohr mag/cell

     iteration # 37     ecut=    60.00 Ry     beta= 0.20
     Davidson diagonalization with overlap
     ethr =  9.01E-12,  avg # of iterations =  6.0

     negative rho (up, down):  1.184E-02 1.614E-02

     total cpu time spent up to now is     4053.8 secs

     total energy              =  -21093.73445919 Ry
     estimated scf accuracy    <       0.00000006 Ry

     total magnetization       =   161.03 Bohr mag/cell
     absolute magnetization    =   167.63 Bohr mag/cell

     iteration # 38     ecut=    60.00 Ry     beta= 0.20
     Davidson diagonalization with overlap
     ethr =  6.23E-12,  avg # of iterations =  8.7

     negative rho (up, down):  1.184E-02 1.614E-02

     total cpu time spent up to now is     4164.5 secs

     total energy              =  -21093.73445314 Ry
     estimated scf accuracy    <       0.00000004 Ry

     total magnetization       =   161.03 Bohr mag/cell
     absolute magnetization    =   167.63 Bohr mag/cell

     iteration # 39     ecut=    60.00 Ry     beta= 0.20
     Davidson diagonalization with overlap
     ethr =  4.28E-12,  avg # of iterations =  6.3

     negative rho (up, down):  1.184E-02 1.614E-02

     total cpu time spent up to now is     4313.8 secs

     total energy              =  -21093.73444433 Ry
     estimated scf accuracy    <       0.00000004 Ry

     total magnetization       =   161.03 Bohr mag/cell
     absolute magnetization    =   167.63 Bohr mag/cell

     iteration # 40     ecut=    60.00 Ry     beta= 0.20
     Davidson diagonalization with overlap
     ethr =  3.48E-12,  avg # of iterations =  8.5

     negative rho (up, down):  1.186E-02 1.615E-02

     total cpu time spent up to now is     4501.5 secs

     total energy              =  -21093.73442281 Ry
     estimated scf accuracy    <       0.00000002 Ry

     total magnetization       =   161.03 Bohr mag/cell
     absolute magnetization    =   167.63 Bohr mag/cell

     iteration # 41     ecut=    60.00 Ry     beta= 0.20
     Davidson diagonalization with overlap
     ethr =  2.03E-12,  avg # of iterations =  6.6

     negative rho (up, down):  1.187E-02 1.616E-02

     total cpu time spent up to now is     4583.7 secs

     total energy              =  -21093.73441385 Ry
     estimated scf accuracy    <       0.00000001 Ry

     total magnetization       =   161.03 Bohr mag/cell
     absolute magnetization    =   167.63 Bohr mag/cell

     iteration # 42     ecut=    60.00 Ry     beta= 0.20
     Davidson diagonalization with overlap
     ethr =  9.88E-13,  avg # of iterations =  7.2

     negative rho (up, down):  1.187E-02 1.617E-02

     total cpu time spent up to now is     4664.4 secs

     total energy              =  -21093.73440477 Ry
     estimated scf accuracy    <       0.00000001 Ry

     total magnetization       =   161.03 Bohr mag/cell
     absolute magnetization    =   167.63 Bohr mag/cell

     iteration # 43     ecut=    60.00 Ry     beta= 0.20
     Davidson diagonalization with overlap
     ethr =  9.88E-13,  avg # of iterations =  4.7

     negative rho (up, down):  1.184E-02 1.613E-02

     Magnetic moment per site:
     atom:    1    charge:   12.9377    magn:    2.4311    constr:    0.0000
     atom:    2    charge:   12.9343    magn:    2.2640    constr:    0.0000
     atom:    3    charge:   12.9370    magn:    2.4371    constr:    0.0000
     atom:    4    charge:   12.9309    magn:    2.2608    constr:    0.0000
     atom:    5    charge:   12.9356    magn:    2.2404    constr:    0.0000
     atom:    6    charge:   12.9376    magn:    2.4084    constr:    0.0000
     atom:    7    charge:   12.9319    magn:    2.2438    constr:    0.0000
     atom:    8    charge:   12.9352    magn:    2.4348    constr:    0.0000
     atom:    9    charge:   12.9380    magn:    2.4294    constr:    0.0000
     atom:   10    charge:   12.9372    magn:    2.4368    constr:    0.0000
     atom:   11    charge:   12.9307    magn:    2.2677    constr:    0.0000
     atom:   12    charge:   12.9323    magn:    2.2570    constr:    0.0000
     atom:   13    charge:   12.9316    magn:    2.2563    constr:    0.0000
     atom:   14    charge:   12.9360    magn:    2.2079    constr:    0.0000
     atom:   15    charge:   12.9406    magn:    2.3920    constr:    0.0000
     atom:   16    charge:   12.9393    magn:    2.4089    constr:    0.0000
     atom:   17    charge:   12.9372    magn:    2.4371    constr:    0.0000
     atom:   18    charge:   12.9307    magn:    2.2607    constr:    0.0000
     atom:   19    charge:   12.9372    magn:    2.4371    constr:    0.0000
     atom:   20    charge:   12.9318    magn:    2.2524    constr:    0.0000
     atom:   21    charge:   12.9320    magn:    2.2436    constr:    0.0000
     atom:   22    charge:   12.9352    magn:    2.4349    constr:    0.0000
     atom:   23    charge:   12.9320    magn:    2.2437    constr:    0.0000
     atom:   24    charge:   12.9430    magn:    1.9243    constr:    0.0000
     atom:   25    charge:   12.9361    magn:    2.4443    constr:    0.0000
     atom:   26    charge:   12.9375    magn:    2.4308    constr:    0.0000
     atom:   27    charge:   12.9297    magn:    2.2680    constr:    0.0000
     atom:   28    charge:   12.9307    magn:    2.2677    constr:    0.0000
     atom:   29    charge:   12.9355    magn:    2.2913    constr:    0.0000
     atom:   30    charge:   12.9373    magn:    2.1818    constr:    0.0000
     atom:   31    charge:   12.9294    magn:    2.3156    constr:    0.0000
     atom:   32    charge:   12.9406    magn:    2.3918    constr:    0.0000
     atom:   33    charge:   12.9373    magn:    2.4311    constr:    0.0000
     atom:   34    charge:   12.9307    magn:    2.2607    constr:    0.0000
     atom:   35    charge:   12.9373    magn:    2.4311    constr:    0.0000
     atom:   36    charge:   12.9335    magn:    2.2639    constr:    0.0000
     atom:   37    charge:   12.9354    magn:    2.2406    constr:    0.0000
     atom:   38    charge:   12.9351    magn:    2.4348    constr:    0.0000
     atom:   39    charge:   12.9354    magn:    2.2406    constr:    0.0000
     atom:   40    charge:   12.9373    magn:    2.4081    constr:    0.0000
     atom:   41    charge:   12.9375    magn:    2.4431    constr:    0.0000
     atom:   42    charge:   12.9369    magn:    2.4307    constr:    0.0000
     atom:   43    charge:   12.9323    magn:    2.2570    constr:    0.0000
     atom:   44    charge:   12.9304    magn:    2.2677    constr:    0.0000
     atom:   45    charge:   12.9355    magn:    2.2219    constr:    0.0000
     atom:   46    charge:   12.9374    magn:    2.1816    constr:    0.0000
     atom:   47    charge:   12.9393    magn:    2.4088    constr:    0.0000
     atom:   48    charge:   12.9409    magn:    2.3919    constr:    0.0000
     atom:   49    charge:   12.9370    magn:    2.4371    constr:    0.0000
     atom:   50    charge:   12.9315    magn:    2.2524    constr:    0.0000
     atom:   51    charge:   12.9377    magn:    2.4312    constr:    0.0000
     atom:   52    charge:   12.9309    magn:    2.2608    constr:    0.0000
     atom:   53    charge:   12.9319    magn:    2.2439    constr:    0.0000
     atom:   54    charge:   12.9426    magn:    1.9242    constr:    0.0000
     atom:   55    charge:   12.9356    magn:    2.2404    constr:    0.0000
     atom:   56    charge:   12.9352    magn:    2.4347    constr:    0.0000
     atom:   57    charge:   12.9380    magn:    2.4294    constr:    0.0000
     atom:   58    charge:   12.9372    magn:    2.4368    constr:    0.0000
     atom:   59    charge:   12.9304    magn:    2.2677    constr:    0.0000
     atom:   60    charge:   12.9297    magn:    2.2680    constr:    0.0000
     atom:   61    charge:   12.9316    magn:    2.2563    constr:    0.0000
     atom:   62    charge:   12.9359    magn:    2.2080    constr:    0.0000
     atom:   63    charge:   12.9409    magn:    2.3921    constr:    0.0000
     atom:   64    charge:   12.9294    magn:    2.3137    constr:    0.0000
     atom:   65    charge:    1.3266    magn:   -0.0312    constr:    0.0000
     atom:   66    charge:    0.4378    magn:    0.0072    constr:    0.0000

     total cpu time spent up to now is     4716.6 secs

     End of self-consistent calculation

 ------ SPIN UP ------------


          k = 0.0000 0.0000 0.0000 (128403 PWs)   bands (ev):

   -92.4379 -92.4359 -92.3912 -92.3837 -92.3785 -92.3770 -92.3770 -92.3745
   -92.3719 -92.3710 -92.3683 -92.3639 -92.3601 -92.3557 -92.3542 -92.3540
   -92.3529 -92.3492 -92.3467 -92.3455 -92.3440 -92.3406 -92.3365 -92.3293
   -92.3290 -92.3274 -92.3235 -92.3233 -92.3228 -92.3152 -92.2892 -92.2849
   -92.2753 -92.2553 -92.2437 -92.2413 -92.2408 -92.2341 -92.2297 -92.2282
   -92.2206 -92.2203 -92.2200 -92.2170 -92.2167 -92.2166 -92.2145 -92.2109
   -92.2108 -92.2094 -92.2061 -92.2039 -92.2021 -92.2015 -92.2014 -92.1971
   -92.1942 -92.1932 -92.1887 -92.1863 -92.1811 -92.1787 -92.1726 -92.1632
   -58.6238 -58.6135 -58.5848 -58.5744 -58.5704 -58.5647 -58.5647 -58.5646
   -58.5623 -58.5603 -58.5598 -58.5566 -58.5539 -58.5533 -58.5499 -58.5470
   -58.5456 -58.5394 -58.5379 -58.5373 -58.5336 -58.5324 -58.5323 -58.5297
   -58.5293 -58.5253 -58.5237 -58.5195 -58.5182 -58.5176 -58.5164 -58.5151
   -58.5112 -58.5074 -58.4989 -58.4979 -58.4978 -58.4850 -58.4757 -58.4751
   -58.4750 -58.4746 -58.4721 -58.4715 -58.4648 -58.4640 -58.4424 -58.4296
   -58.4199 -58.4192 -58.4189 -58.4128 -58.4089 -58.4047 -58.4041 -58.4026
   -58.4012 -58.3981 -58.3960 -58.3949 -58.3927 -58.3926 -58.3924 -58.3884
   -58.3879 -58.3819 -58.3786 -58.3784 -58.3767 -58.3755 -58.3718 -58.3709
   -58.3665 -58.3589 -58.3550 -58.3534 -58.3505 -58.3500 -58.3438 -58.3430
   -58.3420 -58.3395 -58.3358 -58.3335 -58.3323 -58.3322 -58.3301 -58.3300
   -58.3268 -58.3264 -58.3245 -58.3228 -58.3220 -58.3180 -58.3156 -58.3155
   -58.3130 -58.3117 -58.3097 -58.3056 -58.2980 -58.2978 -58.2946 -58.2946
   -58.2903 -58.2876 -58.2860 -58.2804 -58.2799 -58.2794 -58.2781 -58.2757
   -58.2745 -58.2721 -58.2685 -58.2682 -58.2669 -58.2634 -58.2616 -58.2596
   -58.2580 -58.2566 -58.2564 -58.2558 -58.2541 -58.2511 -58.2510 -58.2492
   -58.2484 -58.2466 -58.2443 -58.2374 -58.2354 -58.2346 -58.2322 -58.2317
   -58.2246 -58.2235 -58.2230 -58.2183 -58.2169 -58.2160 -58.2150 -58.2145
   -58.2135 -58.2125 -58.1991 -58.1990 -58.1922 -58.1898 -58.1886 -58.1879
   -58.1865 -58.1856 -58.1840 -58.1830 -58.1753 -58.1742 -58.1691 -58.1675
   -58.1667 -58.1663 -58.1647 -58.1630 -58.1615 -58.1590 -58.1556 -58.1513
   -58.1493 -58.1492 -58.1462 -58.1403 -58.1395 -58.1351 -58.1346 -58.1322
   -58.1293 -58.1270 -58.1232 -58.1231 -58.1201 -58.1160 -58.1151 -58.1128
   -58.1116 -58.1105 -58.1099 -58.1087 -58.1079 -58.1066 -58.1019 -58.0989
   -20.4787 -12.3499 -11.9825 -10.8472 -10.5577 -10.5060 -10.4694 -10.4244
   -10.0506  -9.9823  -9.8071  -9.8022  -9.5280  -9.4912  -9.3565  -9.3313
    -9.1867  -9.0679  -9.0264  -8.9896  -8.8610  -8.8584  -8.8160  -8.8149
    -8.7982  -8.7546  -8.7321  -8.6735  -8.6702  -8.4295  -8.3976  -8.3878
    -8.3864  -8.3519  -8.3047  -8.3041  -8.2838  -8.2819  -8.2808  -8.2637
    -8.2618  -8.2590  -8.2559  -8.2534  -8.2530  -8.2479  -8.2260  -8.2221
    -8.2066  -8.2042  -8.1921  -8.1811  -8.1744  -8.1689  -8.1484  -8.1255
    -8.0987  -8.0831  -8.0701  -8.0134  -8.0074  -8.0031  -7.9908  -7.9845
    -7.9096  -7.8964  -7.7171  -7.7105  -7.6821  -7.6801  -7.6786  -7.6558
    -7.5924  -7.5497  -7.5310  -7.5219  -7.5134  -7.5079  -7.5054  -7.5048
    -7.4868  -7.4764  -7.4667  -7.4664  -7.4609  -7.4589  -7.4532  -7.4520
    -7.4483  -7.4422  -7.4387  -7.4264  -7.4251  -7.4228  -7.4165  -7.4045
    -7.3861  -7.3741  -7.3730  -7.3615  -7.3614  -7.3493  -7.3443  -7.3402
    -7.3334  -7.3143  -7.3107  -7.3087  -7.3046  -7.3020  -7.2923  -7.2317
    -7.2257  -7.1500  -7.1300  -7.1288  -7.1270  -7.1228  -7.0709  -7.0559
    -7.0150  -7.0056  -6.9381  -6.9365  -6.9295  -6.9235  -6.9181  -6.9176
    -6.9101  -6.8845  -6.8763  -6.8541  -6.8535  -6.8325  -6.8238  -6.8163
    -6.8046  -6.8030  -6.7898  -6.7886  -6.7830  -6.7819  -6.7767  -6.7708
    -6.7629  -6.7250  -6.7230  -6.6965  -6.6931  -6.6328  -6.6281  -6.6278
    -6.6271  -6.6008  -6.5789  -6.5789  -6.5748  -6.5679  -6.5530  -6.5387
    -6.5098  -6.5045  -6.5044  -6.4810  -6.4759  -6.4757  -6.4755  -6.4746
    -6.4415  -6.4343  -6.4259  -6.4076  -6.3927  -6.3842  -6.3798  -6.3762
    -6.3604  -6.3571  -6.3477  -6.3473  -6.3459  -6.3432  -6.3230  -6.3201
    -6.2919  -6.2848  -6.2277  -6.2210  -6.2125  -6.1042  -6.0994  -5.9624
    -5.9470  -5.9409  -5.8280  -5.8222  -5.8182  -5.8108  -5.8083  -5.8026
    -5.7959  -5.7902  -5.7803  -5.7603  -5.7504  -5.7498  -5.7395  -5.7288
    -5.6850  -5.6806  -5.6722  -5.6525  -5.6493  -5.6330  -5.6272  -5.6258
    -5.6190  -5.6079  -5.6078  -5.6012  -5.5990  -5.5922  -5.5601  -5.5564
    -5.5466  -5.5406  -5.5317  -5.5250  -5.5136  -5.5095  -5.5010  -5.5008
    -5.4784  -5.4773  -5.4728  -5.4664  -5.4663  -5.4627  -5.4476  -5.4463
    -5.4430  -5.4170  -5.4104  -5.4045  -5.4033  -5.4008  -5.3967  -5.3927
    -5.3910  -5.3853  -5.3841  -5.3834  -5.3806  -5.3765  -5.3741  -5.3691
    -5.3679  -5.3621  -5.3553  -5.3516  -5.3472  -5.3450  -5.3371  -5.3311
    -5.3250  -5.3125  -5.3070  -5.3045  -5.2947  -5.2868  -5.2766  -5.2692
    -5.2682  -5.2675  -5.2634  -5.2596  -5.2564  -5.2485  -5.2452  -5.2421
    -5.2223  -5.2172  -5.1903  -5.1850  -5.1745  -5.1622  -5.1495  -5.1489
    -5.1373  -5.1296  -5.1238  -5.1160  -5.0485  -5.0429  -5.0162  -5.0129
    -5.0063  -4.9998  -4.9932  -4.9838  -4.9824  -4.9763  -4.9723  -4.9717
    -4.9658  -4.9513  -4.9480  -4.9462  -4.9313  -4.9143  -4.9098  -4.9068
    -4.9066  -4.9000  -4.8464  -4.8212  -4.7180  -4.6566  -4.5199  -4.5125
    -4.5083  -4.4910  -4.4241  -4.4206  -4.3978  -4.3867  -4.3834  -4.3537
    -4.3292  -4.2966  -4.2867  -4.2579  -4.2482  -4.2432  -4.2235  -4.1861
    -4.1735  -4.1675  -4.1294  -4.0580  -4.0330  -4.0011  -4.0006  -3.9297
    -3.9107  -3.8407  -3.6704  -3.6450  -3.5672  -3.2216  -3.1958  -3.1812
    -3.1729  -2.9567  -2.8925  -2.6791  -2.2888  -2.2843  -2.2836  -2.2380
    -2.2318  -2.2174

          k = 0.0000 0.2652 0.0000 (128375 PWs)   bands (ev):

   -92.4378 -92.4359 -92.3900 -92.3833 -92.3805 -92.3799 -92.3755 -92.3737
   -92.3724 -92.3701 -92.3669 -92.3646 -92.3608 -92.3574 -92.3542 -92.3536
   -92.3506 -92.3485 -92.3475 -92.3462 -92.3433 -92.3419 -92.3350 -92.3298
   -92.3288 -92.3270 -92.3243 -92.3236 -92.3221 -92.3155 -92.2892 -92.2848
   -92.2752 -92.2546 -92.2475 -92.2413 -92.2379 -92.2337 -92.2288 -92.2263
   -92.2235 -92.2212 -92.2198 -92.2192 -92.2163 -92.2155 -92.2145 -92.2107
   -92.2103 -92.2078 -92.2062 -92.2044 -92.2027 -92.2013 -92.2008 -92.1965
   -92.1951 -92.1925 -92.1901 -92.1866 -92.1810 -92.1779 -92.1717 -92.1640
   -58.6230 -58.6136 -58.5832 -58.5735 -58.5722 -58.5680 -58.5659 -58.5645
   -58.5621 -58.5603 -58.5591 -58.5566 -58.5537 -58.5507 -58.5485 -58.5462
   -58.5441 -58.5415 -58.5386 -58.5373 -58.5339 -58.5328 -58.5313 -58.5298
   -58.5274 -58.5234 -58.5221 -58.5201 -58.5183 -58.5160 -58.5152 -58.5135
   -58.5078 -58.5051 -58.4971 -58.4939 -58.4887 -58.4880 -58.4828 -58.4760
   -58.4739 -58.4707 -58.4680 -58.4654 -58.4618 -58.4580 -58.4382 -58.4359
   -58.4294 -58.4220 -58.4199 -58.4187 -58.4169 -58.4137 -58.4099 -58.4064
   -58.4036 -58.3991 -58.3958 -58.3948 -58.3919 -58.3918 -58.3912 -58.3882
   -58.3861 -58.3850 -58.3844 -58.3811 -58.3791 -58.3763 -58.3735 -58.3706
   -58.3682 -58.3660 -58.3655 -58.3629 -58.3606 -58.3531 -58.3511 -58.3494
   -58.3460 -58.3439 -58.3406 -58.3397 -58.3378 -58.3348 -58.3291 -58.3276
   -58.3257 -58.3223 -58.3191 -58.3179 -58.3152 -58.3125 -58.3107 -58.3104
   -58.3083 -58.3052 -58.3040 -58.3012 -58.3008 -58.2993 -58.2954 -58.2922
   -58.2907 -58.2881 -58.2862 -58.2835 -58.2813 -58.2805 -58.2791 -58.2768
   -58.2757 -58.2729 -58.2720 -58.2700 -58.2684 -58.2650 -58.2613 -58.2595
   -58.2594 -58.2559 -58.2529 -58.2521 -58.2481 -58.2461 -58.2452 -58.2437
   -58.2410 -58.2382 -58.2377 -58.2370 -58.2330 -58.2309 -58.2290 -58.2264
   -58.2248 -58.2222 -58.2216 -58.2176 -58.2165 -58.2150 -58.2115 -58.2099
   -58.2059 -58.2041 -58.2027 -58.1997 -58.1930 -58.1920 -58.1905 -58.1885
   -58.1868 -58.1830 -58.1823 -58.1799 -58.1763 -58.1758 -58.1726 -58.1711
   -58.1663 -58.1658 -58.1634 -58.1609 -58.1571 -58.1551 -58.1519 -58.1491
   -58.1481 -58.1451 -58.1424 -58.1400 -58.1390 -58.1362 -58.1349 -58.1337
   -58.1315 -58.1283 -58.1274 -58.1257 -58.1211 -58.1208 -58.1173 -58.1170
   -58.1166 -58.1153 -58.1138 -58.1119 -58.1103 -58.1080 -58.1058 -58.1006
   -20.4787 -12.3055 -11.9182 -11.1486 -10.7486 -10.6236 -10.3614 -10.1911
   -10.0682  -9.8177  -9.8049  -9.6037  -9.5070  -9.4479  -9.3477  -9.2961
    -9.1496  -9.1037  -9.0261  -8.9487  -8.8975  -8.8287  -8.7955  -8.7677
    -8.7529  -8.7370  -8.7104  -8.6882  -8.6672  -8.5530  -8.4910  -8.4469
    -8.4211  -8.4041  -8.3989  -8.3886  -8.3736  -8.3717  -8.3586  -8.3418
    -8.3292  -8.3116  -8.2982  -8.2807  -8.2658  -8.2548  -8.2359  -8.2311
    -8.2068  -8.1992  -8.1932  -8.1740  -8.1451  -8.1160  -8.1098  -8.1041
    -8.0976  -8.0908  -8.0523  -8.0130  -8.0066  -7.9497  -7.9292  -7.9022
    -7.8963  -7.8621  -7.8078  -7.7899  -7.7504  -7.7123  -7.6754  -7.6385
    -7.6199  -7.6080  -7.5812  -7.5315  -7.5214  -7.5093  -7.5035  -7.4925
    -7.4863  -7.4780  -7.4688  -7.4611  -7.4587  -7.4496  -7.4414  -7.4326
    -7.4228  -7.4168  -7.4112  -7.4092  -7.3952  -7.3924  -7.3817  -7.3716
    -7.3704  -7.3635  -7.3591  -7.3489  -7.3473  -7.3385  -7.3293  -7.3138
    -7.2825  -7.2766  -7.2691  -7.2579  -7.2546  -7.2380  -7.2171  -7.2109
    -7.2039  -7.1980  -7.1749  -7.1478  -7.1020  -7.0925  -7.0578  -7.0440
    -7.0218  -7.0127  -7.0055  -6.9952  -6.9831  -6.9379  -6.9152  -6.9127
    -6.9002  -6.8926  -6.8909  -6.8771  -6.8650  -6.8631  -6.8556  -6.8460
    -6.8404  -6.8200  -6.8105  -6.8060  -6.8032  -6.7803  -6.7675  -6.7546
    -6.7516  -6.7082  -6.6945  -6.6800  -6.6534  -6.6480  -6.6401  -6.6314
    -6.6242  -6.6151  -6.6101  -6.6055  -6.6003  -6.5903  -6.5802  -6.5727
    -6.5671  -6.5577  -6.5447  -6.5432  -6.5304  -6.5111  -6.5032  -6.4598
    -6.4470  -6.4375  -6.4170  -6.4092  -6.3955  -6.3815  -6.3781  -6.3558
    -6.3503  -6.3384  -6.3189  -6.3028  -6.2762  -6.2589  -6.2390  -6.2093
    -6.2070  -6.1757  -6.1496  -6.1462  -6.1320  -6.0740  -5.9761  -5.9457
    -5.9390  -5.9380  -5.8924  -5.8781  -5.8689  -5.8563  -5.8263  -5.8210
    -5.7979  -5.7905  -5.7880  -5.7804  -5.7658  -5.7553  -5.7550  -5.7422
    -5.7299  -5.7103  -5.7002  -5.6978  -5.6754  -5.6570  -5.6357  -5.6182
    -5.6154  -5.6088  -5.6036  -5.5985  -5.5928  -5.5847  -5.5738  -5.5680
    -5.5657  -5.5576  -5.5476  -5.5425  -5.5123  -5.4978  -5.4927  -5.4906
    -5.4833  -5.4780  -5.4665  -5.4642  -5.4593  -5.4512  -5.4430  -5.4430
    -5.4348  -5.4322  -5.4249  -5.4171  -5.4131  -5.4091  -5.3988  -5.3893
    -5.3853  -5.3723  -5.3684  -5.3640  -5.3560  -5.3502  -5.3458  -5.3427
    -5.3376  -5.3356  -5.3320  -5.3217  -5.3178  -5.3140  -5.3114  -5.2986
    -5.2926  -5.2897  -5.2769  -5.2742  -5.2715  -5.2688  -5.2665  -5.2653
    -5.2567  -5.2522  -5.2284  -5.2274  -5.2238  -5.2150  -5.2028  -5.1985
    -5.1924  -5.1721  -5.1560  -5.1365  -5.1309  -5.1287  -5.1175  -5.1145
    -5.1021  -5.0970  -5.0845  -5.0758  -5.0701  -5.0667  -5.0615  -5.0469
    -5.0330  -5.0228  -4.9995  -4.9972  -4.9932  -4.9858  -4.9731  -4.9688
    -4.9538  -4.9499  -4.9471  -4.9322  -4.9214  -4.9016  -4.8579  -4.8277
    -4.8120  -4.8038  -4.7266  -4.6904  -4.6601  -4.5718  -4.5575  -4.5319
    -4.5310  -4.5128  -4.4927  -4.4899  -4.4744  -4.4442  -4.4121  -4.4087
    -4.3952  -4.3887  -4.3684  -4.3595  -4.3498  -4.3320  -4.3230  -4.2891
    -4.2796  -4.2692  -4.2167  -4.1943  -4.1646  -4.1276  -4.1155  -3.9760
    -3.9425  -3.7250  -3.5692  -3.5319  -3.4701  -3.3431  -3.2662  -3.1680
    -3.0607  -3.0042  -2.9227  -2.8745  -2.8154  -2.6553  -2.6147  -2.5575
    -2.3955  -2.3000

          k = 0.0000-0.5303 0.0000 (128388 PWs)   bands (ev):

   -92.4377 -92.4360 -92.3876 -92.3844 -92.3821 -92.3816 -92.3737 -92.3736
   -92.3716 -92.3710 -92.3661 -92.3655 -92.3609 -92.3578 -92.3541 -92.3525
   -92.3520 -92.3471 -92.3459 -92.3458 -92.3450 -92.3431 -92.3325 -92.3317
   -92.3274 -92.3274 -92.3248 -92.3239 -92.3217 -92.3157 -92.2893 -92.2847
   -92.2750 -92.2535 -92.2503 -92.2418 -92.2367 -92.2308 -92.2300 -92.2251
   -92.2238 -92.2230 -92.2216 -92.2187 -92.2164 -92.2151 -92.2148 -92.2102
   -92.2098 -92.2075 -92.2067 -92.2041 -92.2033 -92.2010 -92.1998 -92.1960
   -92.1958 -92.1921 -92.1916 -92.1872 -92.1803 -92.1779 -92.1701 -92.1652
   -58.6222 -58.6138 -58.5785 -58.5784 -58.5726 -58.5681 -58.5669 -58.5655
   -58.5615 -58.5602 -58.5587 -58.5572 -58.5511 -58.5503 -58.5484 -58.5446
   -58.5435 -58.5431 -58.5391 -58.5350 -58.5346 -58.5332 -58.5317 -58.5300
   -58.5237 -58.5234 -58.5225 -58.5185 -58.5181 -58.5172 -58.5141 -58.5101
   -58.5039 -58.4959 -58.4923 -58.4908 -58.4906 -58.4891 -58.4831 -58.4760
   -58.4744 -58.4654 -58.4648 -58.4602 -58.4496 -58.4495 -58.4437 -58.4415
   -58.4330 -58.4319 -58.4319 -58.4239 -58.4222 -58.4218 -58.4180 -58.4164
   -58.4119 -58.4018 -58.4001 -58.3944 -58.3921 -58.3903 -58.3901 -58.3862
   -58.3839 -58.3807 -58.3789 -58.3786 -58.3762 -58.3754 -58.3726 -58.3713
   -58.3698 -58.3666 -58.3645 -58.3628 -58.3627 -58.3604 -58.3566 -58.3523
   -58.3516 -58.3510 -58.3477 -58.3452 -58.3439 -58.3420 -58.3419 -58.3404
   -58.3331 -58.3267 -58.3228 -58.3152 -58.3143 -58.3106 -58.3094 -58.3069
   -58.3065 -58.3053 -58.2999 -58.2978 -58.2974 -58.2952 -58.2912 -58.2909
   -58.2826 -58.2817 -58.2789 -58.2767 -58.2763 -58.2758 -58.2755 -58.2748
   -58.2733 -58.2723 -58.2698 -58.2698 -58.2655 -58.2645 -58.2595 -58.2577
   -58.2574 -58.2568 -58.2540 -58.2520 -58.2513 -58.2486 -58.2448 -58.2429
   -58.2415 -58.2394 -58.2376 -58.2327 -58.2300 -58.2279 -58.2272 -58.2218
   -58.2215 -58.2206 -58.2191 -58.2143 -58.2106 -58.2102 -58.2089 -58.2075
   -58.2020 -58.2016 -58.2005 -58.2002 -58.1982 -58.1964 -58.1958 -58.1911
   -58.1874 -58.1845 -58.1832 -58.1775 -58.1765 -58.1712 -58.1708 -58.1696
   -58.1649 -58.1618 -58.1538 -58.1525 -58.1524 -58.1506 -58.1498 -58.1449
   -58.1446 -58.1422 -58.1390 -58.1386 -58.1381 -58.1373 -58.1358 -58.1349
   -58.1342 -58.1318 -58.1305 -58.1289 -58.1277 -58.1272 -58.1270 -58.1240
   -58.1235 -58.1228 -58.1198 -58.1154 -58.1118 -58.1085 -58.1068 -58.1012
   -20.4787 -12.2629 -11.7103 -11.5845 -10.6149 -10.5705 -10.5378 -10.3481
    -9.8906  -9.7589  -9.6798  -9.5956  -9.4855  -9.3226  -9.1763  -9.1627
    -9.1088  -9.0707  -9.0220  -9.0069  -8.9079  -8.8547  -8.8351  -8.7968
    -8.7343  -8.7054  -8.6427  -8.6255  -8.6199  -8.6078  -8.6016  -8.5903
    -8.5820  -8.5693  -8.5553  -8.5446  -8.4752  -8.4664  -8.4130  -8.3667
    -8.3529  -8.2808  -8.2607  -8.2523  -8.2474  -8.2405  -8.1752  -8.1662
    -8.1634  -8.1533  -8.1514  -8.1416  -8.1314  -8.1308  -8.1219  -8.1180
    -8.0676  -8.0600  -8.0098  -7.9989  -7.9903  -7.9714  -7.9575  -7.9478
    -7.8858  -7.8816  -7.8492  -7.8269  -7.7885  -7.7834  -7.7739  -7.7252
    -7.6906  -7.6227  -7.5522  -7.5368  -7.5150  -7.5105  -7.4943  -7.4844
    -7.4799  -7.4624  -7.4571  -7.4463  -7.4450  -7.4378  -7.4329  -7.4322
    -7.4199  -7.4061  -7.3976  -7.3972  -7.3948  -7.3910  -7.3694  -7.3693
    -7.3554  -7.3498  -7.2969  -7.2955  -7.2785  -7.2652  -7.2613  -7.2464
    -7.2362  -7.2217  -7.2216  -7.2146  -7.2086  -7.1998  -7.1997  -7.1964
    -7.1825  -7.1787  -7.1733  -7.1522  -7.1426  -7.1330  -7.1285  -7.1016
    -7.0921  -7.0318  -6.9922  -6.9777  -6.9201  -6.9193  -6.9031  -6.8894
    -6.8825  -6.8795  -6.8690  -6.8689  -6.8618  -6.8615  -6.8559  -6.8510
    -6.8417  -6.8386  -6.8373  -6.8219  -6.8152  -6.8058  -6.7984  -6.7914
    -6.7827  -6.7821  -6.7686  -6.7676  -6.7276  -6.7233  -6.7022  -6.6932
    -6.6797  -6.6742  -6.6585  -6.6558  -6.6401  -6.6371  -6.6235  -6.6145
    -6.5870  -6.5841  -6.5524  -6.5466  -6.5098  -6.5093  -6.4812  -6.4484
    -6.4161  -6.3888  -6.3844  -6.3745  -6.3640  -6.3627  -6.3467  -6.3357
    -6.3237  -6.3159  -6.2426  -6.2326  -6.1740  -6.0851  -6.0780  -6.0684
    -6.0670  -6.0560  -6.0217  -6.0143  -6.0074  -6.0059  -5.9846  -5.9625
    -5.9319  -5.9295  -5.9146  -5.9121  -5.9011  -5.8964  -5.8729  -5.8695
    -5.8610  -5.8541  -5.8507  -5.8447  -5.8180  -5.7999  -5.7611  -5.7415
    -5.7283  -5.7191  -5.7180  -5.7075  -5.6878  -5.6858  -5.6809  -5.6753
    -5.6357  -5.6287  -5.6091  -5.5926  -5.5782  -5.5754  -5.5732  -5.5689
    -5.5687  -5.5663  -5.5559  -5.5551  -5.5499  -5.5411  -5.5375  -5.5336
    -5.5331  -5.5257  -5.5244  -5.5075  -5.4953  -5.4939  -5.4382  -5.4335
    -5.4239  -5.4195  -5.4104  -5.4002  -5.3990  -5.3957  -5.3940  -5.3772
    -5.3735  -5.3641  -5.3605  -5.3547  -5.3542  -5.3505  -5.3410  -5.3358
    -5.3356  -5.3272  -5.3208  -5.3172  -5.3075  -5.3007  -5.2868  -5.2866
    -5.2796  -5.2738  -5.2534  -5.2491  -5.2326  -5.2270  -5.2139  -5.2124
    -5.2039  -5.1965  -5.1866  -5.1699  -5.1686  -5.1671  -5.1383  -5.1293
    -5.1249  -5.1241  -5.1227  -5.1174  -5.1167  -5.1085  -5.1029  -5.1023
    -5.0966  -5.0923  -5.0858  -5.0848  -5.0792  -5.0771  -5.0680  -5.0676
    -5.0645  -5.0246  -5.0081  -5.0010  -4.9874  -4.9195  -4.9164  -4.8900
    -4.8796  -4.8451  -4.8422  -4.8282  -4.8128  -4.7906  -4.7154  -4.7135
    -4.6931  -4.6874  -4.6746  -4.6555  -4.6484  -4.6433  -4.6134  -4.6114
    -4.5959  -4.5825  -4.5704  -4.5596  -4.5473  -4.5411  -4.5215  -4.4668
    -4.4455  -4.4432  -4.4080  -4.4004  -4.3750  -4.3728  -4.3709  -4.3565
    -4.3304  -4.3292  -4.3129  -4.2971  -4.2848  -4.2784  -4.2761  -4.1170
    -4.0219  -3.9764  -3.8263  -3.7002  -3.6264  -3.5645  -3.2881  -3.2238
    -2.9493  -2.9187  -2.6251  -2.5976  -2.5566  -2.5060  -2.4667  -2.4478
    -2.3980  -2.3869

          k = 0.2500-0.0884 0.0000 (128371 PWs)   bands (ev):

   -92.4378 -92.4359 -92.3900 -92.3833 -92.3805 -92.3799 -92.3755 -92.3737
   -92.3724 -92.3701 -92.3669 -92.3646 -92.3608 -92.3574 -92.3542 -92.3536
   -92.3506 -92.3485 -92.3474 -92.3462 -92.3433 -92.3419 -92.3350 -92.3298
   -92.3288 -92.3269 -92.3243 -92.3236 -92.3221 -92.3155 -92.2892 -92.2848
   -92.2752 -92.2546 -92.2475 -92.2413 -92.2379 -92.2337 -92.2288 -92.2263
   -92.2235 -92.2212 -92.2198 -92.2192 -92.2163 -92.2155 -92.2145 -92.2107
   -92.2103 -92.2078 -92.2062 -92.2044 -92.2027 -92.2013 -92.2008 -92.1965
   -92.1951 -92.1925 -92.1901 -92.1866 -92.1810 -92.1779 -92.1717 -92.1640
   -58.6230 -58.6136 -58.5832 -58.5735 -58.5722 -58.5680 -58.5659 -58.5645
   -58.5621 -58.5603 -58.5591 -58.5566 -58.5537 -58.5507 -58.5485 -58.5462
   -58.5441 -58.5415 -58.5386 -58.5373 -58.5339 -58.5328 -58.5313 -58.5298
   -58.5274 -58.5234 -58.5221 -58.5201 -58.5183 -58.5160 -58.5152 -58.5135
   -58.5078 -58.5051 -58.4971 -58.4939 -58.4887 -58.4880 -58.4828 -58.4760
   -58.4739 -58.4707 -58.4680 -58.4654 -58.4618 -58.4580 -58.4382 -58.4359
   -58.4294 -58.4220 -58.4199 -58.4187 -58.4169 -58.4137 -58.4099 -58.4064
   -58.4036 -58.3991 -58.3958 -58.3948 -58.3919 -58.3918 -58.3912 -58.3882
   -58.3861 -58.3850 -58.3844 -58.3810 -58.3791 -58.3763 -58.3735 -58.3706
   -58.3682 -58.3660 -58.3655 -58.3629 -58.3606 -58.3531 -58.3511 -58.3494
   -58.3460 -58.3439 -58.3406 -58.3397 -58.3378 -58.3348 -58.3291 -58.3276
   -58.3257 -58.3223 -58.3191 -58.3179 -58.3152 -58.3125 -58.3107 -58.3104
   -58.3083 -58.3052 -58.3040 -58.3012 -58.3008 -58.2993 -58.2954 -58.2922
   -58.2907 -58.2881 -58.2862 -58.2835 -58.2813 -58.2805 -58.2791 -58.2768
   -58.2757 -58.2729 -58.2720 -58.2700 -58.2684 -58.2650 -58.2613 -58.2595
   -58.2594 -58.2559 -58.2529 -58.2521 -58.2481 -58.2461 -58.2452 -58.2437
   -58.2410 -58.2382 -58.2377 -58.2370 -58.2330 -58.2309 -58.2290 -58.2264
   -58.2248 -58.2222 -58.2216 -58.2176 -58.2165 -58.2150 -58.2115 -58.2099
   -58.2059 -58.2041 -58.2027 -58.1997 -58.1930 -58.1920 -58.1905 -58.1885
   -58.1868 -58.1830 -58.1823 -58.1799 -58.1763 -58.1758 -58.1726 -58.1711
   -58.1663 -58.1658 -58.1634 -58.1609 -58.1571 -58.1551 -58.1519 -58.1491
   -58.1481 -58.1451 -58.1424 -58.1400 -58.1390 -58.1362 -58.1349 -58.1337
   -58.1315 -58.1283 -58.1274 -58.1257 -58.1211 -58.1208 -58.1173 -58.1170
   -58.1166 -58.1153 -58.1138 -58.1119 -58.1103 -58.1080 -58.1058 -58.1006
   -20.4787 -12.3055 -11.9182 -11.1486 -10.7486 -10.6236 -10.3614 -10.1911
   -10.0682  -9.8177  -9.8049  -9.6037  -9.5070  -9.4479  -9.3477  -9.2961
    -9.1495  -9.1037  -9.0261  -8.9487  -8.8975  -8.8287  -8.7955  -8.7677
    -8.7529  -8.7370  -8.7104  -8.6882  -8.6672  -8.5530  -8.4910  -8.4469
    -8.4211  -8.4041  -8.3989  -8.3886  -8.3736  -8.3717  -8.3586  -8.3418
    -8.3292  -8.3116  -8.2982  -8.2807  -8.2658  -8.2548  -8.2359  -8.2311
    -8.2068  -8.1992  -8.1932  -8.1740  -8.1451  -8.1160  -8.1098  -8.1041
    -8.0976  -8.0908  -8.0523  -8.0130  -8.0066  -7.9497  -7.9292  -7.9022
    -7.8963  -7.8621  -7.8078  -7.7899  -7.7504  -7.7123  -7.6754  -7.6385
    -7.6199  -7.6080  -7.5812  -7.5315  -7.5214  -7.5093  -7.5035  -7.4925
    -7.4863  -7.4780  -7.4688  -7.4611  -7.4587  -7.4495  -7.4414  -7.4326
    -7.4228  -7.4168  -7.4112  -7.4092  -7.3952  -7.3924  -7.3817  -7.3716
    -7.3704  -7.3635  -7.3591  -7.3489  -7.3473  -7.3385  -7.3293  -7.3138
    -7.2825  -7.2766  -7.2691  -7.2579  -7.2547  -7.2380  -7.2171  -7.2109
    -7.2039  -7.1980  -7.1749  -7.1478  -7.1020  -7.0925  -7.0578  -7.0440
    -7.0218  -7.0127  -7.0055  -6.9952  -6.9831  -6.9379  -6.9152  -6.9127
    -6.9002  -6.8926  -6.8909  -6.8771  -6.8650  -6.8631  -6.8556  -6.8460
    -6.8404  -6.8200  -6.8104  -6.8060  -6.8032  -6.7803  -6.7675  -6.7545
    -6.7516  -6.7082  -6.6945  -6.6800  -6.6534  -6.6480  -6.6401  -6.6314
    -6.6242  -6.6151  -6.6101  -6.6055  -6.6003  -6.5903  -6.5802  -6.5727
    -6.5671  -6.5577  -6.5447  -6.5432  -6.5304  -6.5111  -6.5032  -6.4598
    -6.4470  -6.4375  -6.4170  -6.4092  -6.3955  -6.3815  -6.3781  -6.3558
    -6.3503  -6.3384  -6.3189  -6.3028  -6.2762  -6.2589  -6.2390  -6.2093
    -6.2070  -6.1757  -6.1496  -6.1462  -6.1320  -6.0740  -5.9761  -5.9457
    -5.9389  -5.9380  -5.8924  -5.8781  -5.8689  -5.8563  -5.8263  -5.8211
    -5.7979  -5.7905  -5.7880  -5.7804  -5.7658  -5.7553  -5.7550  -5.7422
    -5.7299  -5.7103  -5.7003  -5.6978  -5.6754  -5.6570  -5.6357  -5.6182
    -5.6154  -5.6088  -5.6036  -5.5985  -5.5928  -5.5847  -5.5738  -5.5680
    -5.5657  -5.5576  -5.5476  -5.5425  -5.5123  -5.4978  -5.4927  -5.4906
    -5.4833  -5.4780  -5.4665  -5.4642  -5.4593  -5.4512  -5.4430  -5.4430
    -5.4348  -5.4322  -5.4249  -5.4171  -5.4131  -5.4092  -5.3988  -5.3893
    -5.3853  -5.3723  -5.3684  -5.3640  -5.3560  -5.3502  -5.3458  -5.3427
    -5.3376  -5.3356  -5.3320  -5.3217  -5.3178  -5.3140  -5.3114  -5.2986
    -5.2927  -5.2897  -5.2769  -5.2742  -5.2715  -5.2688  -5.2665  -5.2653
    -5.2567  -5.2522  -5.2284  -5.2274  -5.2238  -5.2150  -5.2028  -5.1985
    -5.1924  -5.1721  -5.1560  -5.1365  -5.1309  -5.1287  -5.1175  -5.1145
    -5.1021  -5.0970  -5.0845  -5.0758  -5.0701  -5.0667  -5.0615  -5.0468
    -5.0330  -5.0228  -4.9995  -4.9972  -4.9932  -4.9858  -4.9731  -4.9688
    -4.9538  -4.9499  -4.9471  -4.9322  -4.9214  -4.9016  -4.8579  -4.8277
    -4.8120  -4.8038  -4.7266  -4.6904  -4.6601  -4.5719  -4.5575  -4.5319
    -4.5310  -4.5128  -4.4927  -4.4899  -4.4744  -4.4442  -4.4121  -4.4087
    -4.3952  -4.3887  -4.3684  -4.3595  -4.3498  -4.3320  -4.3230  -4.2891
    -4.2796  -4.2692  -4.2167  -4.1943  -4.1646  -4.1276  -4.1155  -3.9760
    -3.9425  -3.7250  -3.5692  -3.5319  -3.4701  -3.3431  -3.2662  -3.1680
    -3.0607  -3.0042  -2.9227  -2.8745  -2.8154  -2.6552  -2.6146  -2.5574
    -2.3955  -2.2993

          k = 0.2500 0.1768 0.0000 (128340 PWs)   bands (ev):

   -92.4377 -92.4359 -92.3891 -92.3833 -92.3803 -92.3787 -92.3771 -92.3743
   -92.3723 -92.3719 -92.3690 -92.3630 -92.3574 -92.3542 -92.3542 -92.3540
   -92.3535 -92.3511 -92.3461 -92.3457 -92.3454 -92.3401 -92.3336 -92.3311
   -92.3286 -92.3258 -92.3255 -92.3239 -92.3215 -92.3158 -92.2893 -92.2847
   -92.2751 -92.2544 -92.2470 -92.2422 -92.2388 -92.2354 -92.2291 -92.2241
   -92.2233 -92.2190 -92.2188 -92.2171 -92.2166 -92.2166 -92.2155 -92.2116
   -92.2093 -92.2079 -92.2078 -92.2062 -92.2040 -92.2005 -92.1996 -92.1972
   -92.1949 -92.1920 -92.1913 -92.1859 -92.1799 -92.1779 -92.1715 -92.1647
   -58.6225 -58.6137 -58.5828 -58.5744 -58.5712 -58.5661 -58.5648 -58.5639
   -58.5614 -58.5603 -58.5595 -58.5587 -58.5566 -58.5498 -58.5479 -58.5451
   -58.5420 -58.5412 -58.5391 -58.5380 -58.5355 -58.5341 -58.5315 -58.5279
   -58.5259 -58.5225 -58.5218 -58.5205 -58.5204 -58.5167 -58.5121 -58.5109
   -58.5062 -58.4990 -58.4909 -58.4902 -58.4895 -58.4889 -58.4708 -58.4693
   -58.4691 -58.4679 -58.4656 -58.4639 -58.4628 -58.4566 -58.4354 -58.4343
   -58.4331 -58.4303 -58.4268 -58.4244 -58.4205 -58.4183 -58.4183 -58.4115
   -58.4107 -58.4106 -58.4019 -58.4014 -58.3991 -58.3938 -58.3906 -58.3879
   -58.3868 -58.3858 -58.3854 -58.3843 -58.3813 -58.3786 -58.3749 -58.3730
   -58.3730 -58.3679 -58.3640 -58.3626 -58.3566 -58.3554 -58.3519 -58.3516
   -58.3486 -58.3463 -58.3428 -58.3414 -58.3355 -58.3352 -58.3336 -58.3292
   -58.3243 -58.3224 -58.3215 -58.3195 -58.3147 -58.3124 -58.3111 -58.3073
   -58.3073 -58.3055 -58.2997 -58.2984 -58.2980 -58.2976 -58.2932 -58.2922
   -58.2907 -58.2886 -58.2863 -58.2849 -58.2836 -58.2826 -58.2813 -58.2767
   -58.2763 -58.2754 -58.2678 -58.2649 -58.2610 -58.2609 -58.2595 -58.2587
   -58.2574 -58.2557 -58.2513 -58.2486 -58.2471 -58.2454 -58.2437 -58.2426
   -58.2403 -58.2392 -58.2327 -58.2306 -58.2288 -58.2284 -58.2259 -58.2228
   -58.2223 -58.2208 -58.2194 -58.2141 -58.2134 -58.2103 -58.2092 -58.2053
   -58.2046 -58.2009 -58.1998 -58.1991 -58.1981 -58.1953 -58.1932 -58.1925
   -58.1875 -58.1830 -58.1818 -58.1743 -58.1717 -58.1705 -58.1673 -58.1657
   -58.1651 -58.1628 -58.1621 -58.1585 -58.1562 -58.1541 -58.1515 -58.1505
   -58.1499 -58.1476 -58.1420 -58.1412 -58.1387 -58.1377 -58.1348 -58.1334
   -58.1332 -58.1299 -58.1287 -58.1265 -58.1246 -58.1215 -58.1206 -58.1199
   -58.1184 -58.1178 -58.1172 -58.1163 -58.1160 -58.1135 -58.1100 -58.1041
   -20.4787 -12.2944 -11.8889 -10.8807 -10.8506 -10.8399 -10.6609 -10.0212
   -10.0008  -9.8307  -9.7882  -9.7274  -9.4974  -9.4344  -9.3420  -9.2535
    -9.0557  -9.0438  -8.9360  -8.8207  -8.8155  -8.8151  -8.7666  -8.7542
    -8.7037  -8.6897  -8.6875  -8.6696  -8.5910  -8.5771  -8.5649  -8.5439
    -8.4620  -8.4549  -8.4431  -8.4220  -8.3686  -8.3660  -8.3528  -8.3297
    -8.3252  -8.3160  -8.3115  -8.2971  -8.2946  -8.2861  -8.2861  -8.2836
    -8.2452  -8.2364  -8.2107  -8.2060  -8.1899  -8.1740  -8.1439  -8.1131
    -8.0780  -8.0617  -8.0490  -7.9596  -7.9505  -7.9209  -7.9087  -7.9030
    -7.8315  -7.8307  -7.8125  -7.8115  -7.7807  -7.7564  -7.7258  -7.6438
    -7.6430  -7.6117  -7.5658  -7.5433  -7.5379  -7.5309  -7.5180  -7.5144
    -7.5095  -7.5088  -7.5018  -7.4953  -7.4943  -7.4857  -7.4815  -7.4799
    -7.4706  -7.4488  -7.4401  -7.4313  -7.3898  -7.3771  -7.3687  -7.3548
    -7.3378  -7.3242  -7.3065  -7.3049  -7.2992  -7.2926  -7.2923  -7.2843
    -7.2727  -7.2510  -7.2484  -7.2206  -7.2057  -7.1797  -7.1691  -7.1628
    -7.1479  -7.1361  -7.1144  -7.1038  -7.0989  -7.0967  -7.0916  -7.0854
    -7.0826  -7.0745  -7.0689  -7.0473  -7.0273  -7.0000  -6.9950  -6.9798
    -6.9623  -6.9193  -6.8999  -6.8960  -6.8885  -6.8862  -6.8752  -6.8598
    -6.8437  -6.8303  -6.8068  -6.8014  -6.7971  -6.7932  -6.7805  -6.7726
    -6.7477  -6.7428  -6.7237  -6.7196  -6.7006  -6.6934  -6.6685  -6.6465
    -6.6298  -6.6226  -6.6048  -6.5985  -6.5976  -6.5912  -6.5749  -6.5701
    -6.5534  -6.5210  -6.5036  -6.4984  -6.4911  -6.4898  -6.4817  -6.4778
    -6.4668  -6.4622  -6.4558  -6.4475  -6.4432  -6.4360  -6.4331  -6.4188
    -6.4034  -6.3827  -6.3486  -6.3310  -6.3204  -6.1903  -6.1709  -6.1493
    -6.1374  -6.1191  -6.1139  -6.0396  -6.0230  -6.0052  -5.9695  -5.9586
    -5.9322  -5.9092  -5.8975  -5.8916  -5.8868  -5.8594  -5.8323  -5.8132
    -5.8084  -5.7928  -5.7895  -5.7770  -5.7748  -5.7582  -5.7522  -5.7265
    -5.7121  -5.7112  -5.7038  -5.6971  -5.6875  -5.6689  -5.6661  -5.6601
    -5.6579  -5.6462  -5.6157  -5.6141  -5.5776  -5.5735  -5.5553  -5.5472
    -5.5454  -5.5409  -5.5382  -5.5289  -5.5241  -5.5180  -5.5072  -5.5060
    -5.4912  -5.4887  -5.4653  -5.4622  -5.4548  -5.4514  -5.4485  -5.4412
    -5.4344  -5.4305  -5.4205  -5.4157  -5.4099  -5.4006  -5.3782  -5.3722
    -5.3649  -5.3589  -5.3569  -5.3483  -5.3413  -5.3296  -5.3205  -5.3131
    -5.2955  -5.2925  -5.2917  -5.2895  -5.2846  -5.2729  -5.2669  -5.2504
    -5.2434  -5.2403  -5.2292  -5.2289  -5.2220  -5.2159  -5.2133  -5.2094
    -5.2068  -5.2020  -5.2012  -5.1997  -5.1868  -5.1862  -5.1715  -5.1705
    -5.1626  -5.1403  -5.1339  -5.1300  -5.1273  -5.1235  -5.1229  -5.1200
    -5.1019  -5.0984  -5.0897  -5.0890  -5.0765  -5.0675  -5.0495  -5.0489
    -5.0413  -5.0213  -5.0176  -5.0132  -4.9708  -4.9687  -4.9516  -4.9432
    -4.9260  -4.9143  -4.9108  -4.8976  -4.8918  -4.8393  -4.8202  -4.8030
    -4.7820  -4.7789  -4.7525  -4.7078  -4.6215  -4.6106  -4.6052  -4.5385
    -4.5384  -4.5079  -4.4970  -4.4435  -4.4213  -4.4064  -4.3930  -4.3840
    -4.3764  -4.3668  -4.3608  -4.3453  -4.3379  -4.3209  -4.3136  -4.2644
    -4.2531  -4.1927  -4.1599  -4.1582  -4.0503  -4.0493  -4.0441  -3.9532
    -3.9208  -3.7218  -3.7166  -3.5136  -3.4701  -3.3745  -3.3733  -3.3451
    -3.3039  -3.2444  -3.2432  -3.1928  -3.1154  -3.0391  -2.9925  -2.7908
    -2.6548  -2.5662

          k = 0.2500-0.6187 0.0000 (128424 PWs)   bands (ev):

   -92.4377 -92.4360 -92.3868 -92.3831 -92.3826 -92.3804 -92.3769 -92.3757
   -92.3724 -92.3720 -92.3662 -92.3602 -92.3599 -92.3565 -92.3549 -92.3547
   -92.3520 -92.3497 -92.3485 -92.3453 -92.3429 -92.3399 -92.3338 -92.3318
   -92.3277 -92.3271 -92.3250 -92.3236 -92.3215 -92.3161 -92.2893 -92.2847
   -92.2749 -92.2530 -92.2499 -92.2439 -92.2370 -92.2334 -92.2267 -92.2254
   -92.2232 -92.2215 -92.2198 -92.2192 -92.2168 -92.2154 -92.2139 -92.2114
   -92.2101 -92.2081 -92.2064 -92.2051 -92.2044 -92.2001 -92.1984 -92.1982
   -92.1944 -92.1933 -92.1918 -92.1866 -92.1802 -92.1765 -92.1703 -92.1660
   -58.6216 -58.6139 -58.5796 -58.5748 -58.5743 -58.5690 -58.5656 -58.5637
   -58.5615 -58.5609 -58.5594 -58.5565 -58.5539 -58.5482 -58.5473 -58.5446
   -58.5432 -58.5422 -58.5403 -58.5373 -58.5362 -58.5322 -58.5309 -58.5266
   -58.5244 -58.5233 -58.5221 -58.5215 -58.5177 -58.5172 -58.5115 -58.5091
   -58.5026 -58.4936 -58.4858 -58.4834 -58.4822 -58.4812 -58.4780 -58.4722
   -58.4688 -58.4652 -58.4608 -58.4578 -58.4554 -58.4466 -58.4440 -58.4423
   -58.4417 -58.4381 -58.4366 -58.4311 -58.4273 -58.4258 -58.4219 -58.4176
   -58.4149 -58.4107 -58.4070 -58.4015 -58.3980 -58.3974 -58.3937 -58.3908
   -58.3868 -58.3859 -58.3835 -58.3792 -58.3762 -58.3746 -58.3712 -58.3690
   -58.3682 -58.3674 -58.3655 -58.3646 -58.3638 -58.3620 -58.3606 -58.3555
   -58.3536 -58.3500 -58.3483 -58.3456 -58.3424 -58.3395 -58.3374 -58.3338
   -58.3309 -58.3300 -58.3288 -58.3236 -58.3200 -58.3145 -58.3115 -58.3101
   -58.3057 -58.3042 -58.3006 -58.2973 -58.2944 -58.2920 -58.2893 -58.2876
   -58.2842 -58.2826 -58.2799 -58.2788 -58.2777 -58.2744 -58.2742 -58.2717
   -58.2706 -58.2687 -58.2665 -58.2644 -58.2637 -58.2597 -58.2584 -58.2567
   -58.2542 -58.2526 -58.2513 -58.2500 -58.2483 -58.2467 -58.2448 -58.2437
   -58.2418 -58.2356 -58.2326 -58.2299 -58.2287 -58.2263 -58.2232 -58.2203
   -58.2191 -58.2176 -58.2144 -58.2120 -58.2111 -58.2100 -58.2076 -58.2063
   -58.2061 -58.2054 -58.2030 -58.1999 -58.1930 -58.1921 -58.1901 -58.1884
   -58.1862 -58.1811 -58.1807 -58.1774 -58.1766 -58.1671 -58.1643 -58.1629
   -58.1604 -58.1560 -58.1544 -58.1534 -58.1524 -58.1508 -58.1500 -58.1463
   -58.1455 -58.1428 -58.1421 -58.1404 -58.1383 -58.1383 -58.1370 -58.1358
   -58.1345 -58.1335 -58.1327 -58.1310 -58.1289 -58.1280 -58.1274 -58.1263
   -58.1251 -58.1237 -58.1225 -58.1198 -58.1170 -58.1156 -58.1142 -58.1070
   -20.4787 -12.2569 -11.6859 -11.4083 -11.1268 -10.5035 -10.3931 -10.2152
   -10.0462  -9.9007  -9.6896  -9.6231  -9.2584  -9.2187  -9.1225  -9.0954
    -9.0851  -8.9983  -8.9905  -8.9653  -8.8625  -8.8532  -8.7891  -8.7786
    -8.7541  -8.7184  -8.6897  -8.6612  -8.6350  -8.6251  -8.5961  -8.5871
    -8.5771  -8.5688  -8.5282  -8.4788  -8.4712  -8.4624  -8.4502  -8.4318
    -8.4071  -8.3768  -8.3577  -8.3552  -8.3342  -8.2828  -8.2415  -8.2329
    -8.2088  -8.1746  -8.1583  -8.1465  -8.1044  -8.0909  -8.0607  -8.0399
    -8.0130  -8.0041  -7.9846  -7.9738  -7.9514  -7.9362  -7.9267  -7.9114
    -7.8791  -7.8664  -7.8406  -7.8237  -7.8112  -7.8054  -7.7494  -7.7269
    -7.7017  -7.6957  -7.6477  -7.5896  -7.5578  -7.5437  -7.5305  -7.5239
    -7.5173  -7.5047  -7.4997  -7.4900  -7.4774  -7.4641  -7.4223  -7.4101
    -7.3893  -7.3782  -7.3689  -7.3612  -7.3460  -7.3358  -7.3249  -7.3140
    -7.3063  -7.3005  -7.2958  -7.2870  -7.2783  -7.2750  -7.2639  -7.2553
    -7.2377  -7.2278  -7.2178  -7.2116  -7.1895  -7.1826  -7.1758  -7.1632
    -7.1594  -7.1506  -7.1315  -7.1155  -7.1106  -7.0825  -7.0758  -7.0691
    -7.0619  -7.0504  -7.0435  -7.0408  -7.0294  -7.0214  -7.0118  -6.9998
    -6.9944  -6.9903  -6.9797  -6.9706  -6.9691  -6.9577  -6.9391  -6.9171
    -6.9030  -6.8751  -6.8610  -6.8401  -6.7877  -6.7657  -6.7540  -6.7408
    -6.7387  -6.7276  -6.7213  -6.7069  -6.6993  -6.6924  -6.6853  -6.6732
    -6.6606  -6.6599  -6.6540  -6.6496  -6.6341  -6.6303  -6.6179  -6.5961
    -6.5867  -6.5807  -6.5747  -6.5696  -6.5339  -6.5159  -6.4647  -6.4516
    -6.4300  -6.4290  -6.3920  -6.3851  -6.3602  -6.3361  -6.3206  -6.2962
    -6.2734  -6.2346  -6.2094  -6.1782  -6.1639  -6.1524  -6.1416  -6.1122
    -6.0733  -6.0534  -6.0490  -6.0213  -5.9930  -5.9872  -5.9824  -5.9675
    -5.9519  -5.9387  -5.9374  -5.9272  -5.9210  -5.9025  -5.8714  -5.8513
    -5.8407  -5.8324  -5.8104  -5.7998  -5.7806  -5.7703  -5.7628  -5.7488
    -5.7424  -5.7143  -5.7135  -5.6983  -5.6909  -5.6826  -5.6759  -5.6737
    -5.6565  -5.6396  -5.6283  -5.6163  -5.6062  -5.5847  -5.5798  -5.5746
    -5.5678  -5.5615  -5.5565  -5.5457  -5.5415  -5.5312  -5.5253  -5.5193
    -5.5106  -5.5076  -5.4911  -5.4713  -5.4648  -5.4590  -5.4496  -5.4429
    -5.4308  -5.4238  -5.4141  -5.4091  -5.3977  -5.3904  -5.3856  -5.3722
    -5.3658  -5.3567  -5.3477  -5.3393  -5.3336  -5.3253  -5.3239  -5.3193
    -5.3069  -5.2944  -5.2817  -5.2773  -5.2734  -5.2666  -5.2539  -5.2520
    -5.2434  -5.2388  -5.2361  -5.2300  -5.2220  -5.2156  -5.2107  -5.1945
    -5.1856  -5.1818  -5.1766  -5.1726  -5.1640  -5.1581  -5.1523  -5.1468
    -5.1414  -5.1357  -5.1298  -5.1292  -5.1192  -5.1173  -5.1053  -5.0918
    -5.0819  -5.0654  -5.0567  -5.0468  -5.0328  -5.0166  -5.0132  -5.0095
    -4.9935  -4.9699  -4.9545  -4.9213  -4.9079  -4.9048  -4.8913  -4.8615
    -4.8494  -4.8172  -4.8047  -4.7755  -4.7637  -4.7493  -4.7238  -4.7102
    -4.7023  -4.6933  -4.6862  -4.6360  -4.6297  -4.6133  -4.6062  -4.5841
    -4.5620  -4.5489  -4.5399  -4.5065  -4.4943  -4.4875  -4.4755  -4.4682
    -4.4482  -4.4218  -4.4073  -4.3977  -4.3840  -4.3803  -4.3729  -4.3445
    -4.3298  -4.3177  -4.2934  -4.2860  -4.2559  -4.2074  -4.1720  -4.1573
    -4.0362  -3.9280  -3.8778  -3.7287  -3.6393  -3.5704  -3.4885  -3.4410
    -3.3971  -3.2406  -3.1731  -3.0539  -2.9125  -2.8540  -2.7053  -2.6327
    -2.5606  -2.4708

          k = 0.2500-0.3536 0.0000 (128397 PWs)   bands (ev):

   -92.4378 -92.4359 -92.3885 -92.3823 -92.3815 -92.3808 -92.3786 -92.3737
   -92.3736 -92.3668 -92.3655 -92.3625 -92.3623 -92.3592 -92.3548 -92.3542
   -92.3508 -92.3487 -92.3465 -92.3457 -92.3441 -92.3395 -92.3361 -92.3301
   -92.3285 -92.3272 -92.3242 -92.3229 -92.3225 -92.3158 -92.2893 -92.2847
   -92.2751 -92.2533 -92.2499 -92.2437 -92.2346 -92.2314 -92.2281 -92.2259
   -92.2256 -92.2231 -92.2201 -92.2193 -92.2178 -92.2145 -92.2129 -92.2126
   -92.2101 -92.2077 -92.2046 -92.2036 -92.2033 -92.2012 -92.1997 -92.1973
   -92.1940 -92.1939 -92.1910 -92.1873 -92.1815 -92.1760 -92.1710 -92.1650
   -58.6222 -58.6137 -58.5803 -58.5751 -58.5724 -58.5710 -58.5666 -58.5638
   -58.5636 -58.5600 -58.5599 -58.5542 -58.5504 -58.5487 -58.5484 -58.5476
   -58.5444 -58.5419 -58.5390 -58.5368 -58.5354 -58.5332 -58.5303 -58.5265
   -58.5258 -58.5240 -58.5222 -58.5200 -58.5183 -58.5157 -58.5138 -58.5100
   -58.5086 -58.4986 -58.4907 -58.4883 -58.4865 -58.4827 -58.4791 -58.4773
   -58.4718 -58.4692 -58.4668 -58.4661 -58.4642 -58.4575 -58.4394 -58.4392
   -58.4310 -58.4289 -58.4243 -58.4209 -58.4149 -58.4126 -58.4093 -58.4066
   -58.4061 -58.4053 -58.4009 -58.4004 -58.3966 -58.3952 -58.3949 -58.3939
   -58.3915 -58.3888 -58.3854 -58.3840 -58.3823 -58.3799 -58.3783 -58.3735
   -58.3735 -58.3675 -58.3669 -58.3598 -58.3568 -58.3562 -58.3517 -58.3506
   -58.3463 -58.3451 -58.3432 -58.3404 -58.3386 -58.3350 -58.3341 -58.3334
   -58.3262 -58.3257 -58.3224 -58.3190 -58.3167 -58.3139 -58.3109 -58.3079
   -58.3074 -58.3069 -58.3056 -58.3029 -58.3024 -58.2975 -58.2950 -58.2875
   -58.2869 -58.2820 -58.2817 -58.2775 -58.2766 -58.2746 -58.2746 -58.2742
   -58.2740 -58.2712 -58.2712 -58.2701 -58.2677 -58.2644 -58.2624 -58.2609
   -58.2594 -58.2588 -58.2526 -58.2493 -58.2479 -58.2459 -58.2453 -58.2449
   -58.2400 -58.2384 -58.2349 -58.2337 -58.2297 -58.2269 -58.2234 -58.2220
   -58.2205 -58.2163 -58.2155 -58.2118 -58.2107 -58.2083 -58.2077 -58.2055
   -58.2053 -58.2025 -58.2013 -58.1980 -58.1977 -58.1949 -58.1939 -58.1900
   -58.1880 -58.1846 -58.1827 -58.1810 -58.1789 -58.1774 -58.1688 -58.1662
   -58.1659 -58.1644 -58.1577 -58.1555 -58.1544 -58.1534 -58.1521 -58.1493
   -58.1458 -58.1449 -58.1411 -58.1379 -58.1376 -58.1372 -58.1361 -58.1354
   -58.1326 -58.1323 -58.1286 -58.1278 -58.1249 -58.1220 -58.1211 -58.1205
   -58.1179 -58.1176 -58.1169 -58.1162 -58.1147 -58.1133 -58.1078 -58.1076
   -20.4787 -12.2669 -11.7827 -11.2626 -11.2131 -10.5831 -10.1806 -10.0763
    -9.8403  -9.8335  -9.7309  -9.6407  -9.5991  -9.4275  -9.4006  -9.1938
    -8.9198  -8.9194  -8.8936  -8.8877  -8.8678  -8.8563  -8.8444  -8.8153
    -8.8122  -8.7342  -8.7309  -8.7283  -8.6751  -8.6474  -8.6266  -8.6210
    -8.5833  -8.4809  -8.4572  -8.4569  -8.4391  -8.4109  -8.4108  -8.3820
    -8.3799  -8.3680  -8.3665  -8.3232  -8.3118  -8.2620  -8.2563  -8.2308
    -8.2128  -8.1985  -8.1840  -8.1449  -8.1295  -8.0731  -8.0490  -7.9960
    -7.9959  -7.9913  -7.9878  -7.9634  -7.9533  -7.9453  -7.9396  -7.9273
    -7.8825  -7.8580  -7.8411  -7.8266  -7.7994  -7.7448  -7.7329  -7.7010
    -7.6484  -7.6317  -7.5845  -7.5818  -7.5355  -7.5348  -7.5160  -7.5158
    -7.4841  -7.4772  -7.4687  -7.4597  -7.4578  -7.4368  -7.4332  -7.4292
    -7.4184  -7.4105  -7.4036  -7.4028  -7.3997  -7.3947  -7.3610  -7.3526
    -7.3443  -7.3143  -7.3129  -7.3076  -7.2916  -7.2900  -7.2894  -7.2749
    -7.2608  -7.2525  -7.2444  -7.2346  -7.2294  -7.1854  -7.1540  -7.1446
    -7.1419  -7.1369  -7.1264  -7.1228  -7.1132  -7.1100  -7.0986  -7.0935
    -7.0870  -7.0740  -7.0690  -7.0358  -7.0168  -6.9982  -6.9911  -6.9591
    -6.9470  -6.9256  -6.8990  -6.8616  -6.8571  -6.8528  -6.8198  -6.8152
    -6.8006  -6.7945  -6.7847  -6.7805  -6.7773  -6.7715  -6.7684  -6.7659
    -6.7628  -6.7538  -6.7534  -6.7486  -6.7485  -6.7446  -6.7201  -6.7148
    -6.7142  -6.7046  -6.6963  -6.6587  -6.6477  -6.6415  -6.5982  -6.5789
    -6.5723  -6.5520  -6.5408  -6.5164  -6.5088  -6.4849  -6.4577  -6.4244
    -6.4152  -6.4012  -6.3929  -6.3766  -6.3672  -6.3420  -6.2950  -6.2798
    -6.2769  -6.2095  -6.1965  -6.1822  -6.1732  -6.1464  -6.1373  -6.1248
    -6.0733  -6.0602  -6.0491  -6.0439  -6.0238  -6.0195  -6.0019  -6.0000
    -5.9988  -5.9851  -5.9826  -5.9562  -5.9346  -5.9135  -5.8989  -5.8505
    -5.8429  -5.8374  -5.8190  -5.8091  -5.7890  -5.7701  -5.7699  -5.7498
    -5.7472  -5.7343  -5.7314  -5.7249  -5.7013  -5.6697  -5.6615  -5.6342
    -5.6295  -5.6223  -5.6201  -5.6111  -5.6040  -5.5899  -5.5712  -5.5640
    -5.5495  -5.5353  -5.5302  -5.5176  -5.5111  -5.5085  -5.5005  -5.4967
    -5.4700  -5.4647  -5.4628  -5.4610  -5.4523  -5.4361  -5.4274  -5.4206
    -5.4169  -5.4164  -5.3999  -5.3992  -5.3927  -5.3926  -5.3791  -5.3774
    -5.3655  -5.3633  -5.3589  -5.3527  -5.3460  -5.3419  -5.3339  -5.3319
    -5.3221  -5.3212  -5.3168  -5.3067  -5.3045  -5.2969  -5.2944  -5.2926
    -5.2840  -5.2809  -5.2701  -5.2678  -5.2656  -5.2625  -5.2593  -5.2417
    -5.2341  -5.2287  -5.2260  -5.2032  -5.1989  -5.1953  -5.1864  -5.1842
    -5.1827  -5.1770  -5.1679  -5.1645  -5.1638  -5.1511  -5.1338  -5.1321
    -5.1146  -5.0849  -5.0831  -5.0729  -5.0662  -5.0629  -5.0508  -5.0340
    -5.0134  -4.9875  -4.9692  -4.9454  -4.9334  -4.9280  -4.9108  -4.9046
    -4.9009  -4.8834  -4.8706  -4.8637  -4.8529  -4.8433  -4.8242  -4.7763
    -4.7694  -4.7692  -4.7353  -4.7197  -4.7087  -4.6788  -4.6576  -4.6073
    -4.5482  -4.5444  -4.5105  -4.4907  -4.4858  -4.4850  -4.4788  -4.4612
    -4.4444  -4.4376  -4.4283  -4.4226  -4.4072  -4.4054  -4.3966  -4.3930
    -4.3630  -4.3541  -4.3482  -4.3393  -4.1247  -4.0881  -3.9583  -3.8244
    -3.8102  -3.7431  -3.5897  -3.5386  -3.5167  -3.5005  -3.4277  -3.4049
    -3.3305  -3.2981  -3.1967  -3.0460  -2.8775  -2.8041  -2.7463  -2.6070
    -2.5085  -2.1624

          k =-0.5000 0.1768 0.0000 (128388 PWs)   bands (ev):

   -92.4377 -92.4360 -92.3876 -92.3844 -92.3822 -92.3815 -92.3737 -92.3736
   -92.3716 -92.3710 -92.3661 -92.3655 -92.3609 -92.3578 -92.3541 -92.3525
[...]
    -1.8982  -1.8900  -1.8566  -1.8512  -1.8396  -1.8309  -1.8200  -1.8054
    -1.7914  -1.7701  -1.7058  -1.6638  -1.6105  -1.5645  -1.5178  -1.4834
    -1.4003  -1.3388  -1.3154  -1.2557  -1.1780  -1.1082  -1.0468  -0.9544
    -0.9187  -0.8379

          k =-0.5000-0.3536 0.0000 (128560 PWs)   bands (ev):

   -89.8437 -89.8421 -89.4921 -89.4905 -89.4249 -89.4231 -89.3947 -89.3894
   -89.3761 -89.3724 -89.3661 -89.3646 -89.3600 -89.3562 -89.3521 -89.3513
   -89.3476 -89.3471 -89.3465 -89.3448 -89.3432 -89.3377 -89.3341 -89.3336
   -89.3304 -89.3265 -89.3262 -89.3255 -89.3248 -89.3248 -89.3241 -89.3231
   -89.3071 -89.3035 -89.3034 -89.3026 -89.2974 -89.2961 -89.2942 -89.2842
   -89.2839 -89.2837 -89.2835 -89.2833 -89.2821 -89.2771 -89.2766 -89.2711
   -89.2711 -89.2632 -89.2618 -89.2618 -89.2613 -89.2607 -89.2604 -89.2598
   -89.2598 -89.2587 -89.2546 -89.2493 -89.2394 -89.2392 -89.2388 -89.2384
   -56.2795 -56.2640 -55.9354 -55.9304 -55.7828 -55.7662 -55.7231 -55.7201
   -55.6537 -55.6524 -55.6504 -55.6502 -55.6445 -55.6436 -55.6429 -55.6352
   -55.6348 -55.6320 -55.6312 -55.6274 -55.6262 -55.6258 -55.6233 -55.6231
   -55.6221 -55.6163 -55.6123 -55.6122 -55.6088 -55.6023 -55.5998 -55.5995
   -55.5983 -55.5894 -55.5842 -55.5839 -55.5832 -55.5829 -55.5776 -55.5752
   -55.5719 -55.5637 -55.5627 -55.5610 -55.5535 -55.5532 -55.5492 -55.5478
   -55.5473 -55.5466 -55.5425 -55.5420 -55.5395 -55.5373 -55.5366 -55.5359
   -55.5334 -55.5320 -55.5308 -55.5294 -55.5278 -55.5272 -55.5271 -55.5230
   -55.5165 -55.5142 -55.5141 -55.5113 -55.5038 -55.5010 -55.5008 -55.4958
   -55.4872 -55.4835 -55.4808 -55.4733 -55.4666 -55.4642 -55.4639 -55.4629
   -55.4609 -55.4534 -55.4533 -55.4497 -55.4445 -55.4404 -55.4373 -55.4340
   -55.4339 -55.4325 -55.4306 -55.4289 -55.4244 -55.4230 -55.4222 -55.4201
   -55.4199 -55.4178 -55.4175 -55.4146 -55.4030 -55.4010 -55.3983 -55.3959
   -55.3945 -55.3908 -55.3887 -55.3882 -55.3877 -55.3863 -55.3846 -55.3835
   -55.3825 -55.3824 -55.3773 -55.3764 -55.3762 -55.3745 -55.3737 -55.3701
   -55.3687 -55.3602 -55.3596 -55.3578 -55.3575 -55.3523 -55.3516 -55.3507
   -55.3476 -55.3465 -55.3461 -55.3457 -55.3391 -55.3356 -55.3334 -55.3327
   -55.3303 -55.3287 -55.3277 -55.3273 -55.3269 -55.3265 -55.3227 -55.3217
   -55.3208 -55.3207 -55.3174 -55.3173 -55.3155 -55.3150 -55.3147 -55.3119
   -55.3084 -55.3074 -55.3052 -55.3043 -55.3040 -55.3023 -55.2997 -55.2987
   -55.2985 -55.2969 -55.2960 -55.2951 -55.2948 -55.2946 -55.2940 -55.2933
   -55.2922 -55.2917 -55.2909 -55.2906 -55.2874 -55.2869 -55.2860 -55.2832
   -55.2826 -55.2802 -55.2800 -55.2798 -55.2796 -55.2729 -55.2720 -55.2716
   -55.2706 -55.2690 -55.2683 -55.2661 -55.2660 -55.2650 -55.2615 -55.2612
   -20.5315 -12.0463 -11.3397 -11.2531 -10.7823 -10.7010 -10.0922  -9.9320
    -9.6694  -9.3898  -9.2794  -9.1291  -8.7534  -8.7359  -8.6888  -8.6396
    -8.2841  -8.2585  -7.9215  -7.9129  -7.9008  -7.8824  -7.8592  -7.8243
    -7.8036  -7.7855  -7.7687  -7.7276  -7.7159  -7.6652  -7.3647  -7.3424
    -7.3344  -7.3325  -7.2991  -7.2894  -7.1408  -7.0993  -6.8827  -6.8648
    -6.8587  -6.8351  -6.8232  -6.8047  -6.7963  -6.7738  -6.7353  -6.7216
    -6.7069  -6.6232  -6.5916  -6.5849  -6.5695  -6.5631  -6.5392  -6.4710
    -6.3240  -6.3169  -6.2964  -6.2810  -6.2692  -6.2637  -6.0607  -6.0406
    -6.0283  -6.0004  -5.9952  -5.9714  -5.8832  -5.8604  -5.8399  -5.8148
    -5.8099  -5.7785  -5.7697  -5.7665  -5.7641  -5.7563  -5.7415  -5.7369
    -5.7093  -5.7011  -5.6651  -5.6576  -5.6506  -5.6470  -5.6396  -5.6359
    -5.6328  -5.6165  -5.5950  -5.5236  -5.5102  -5.4312  -5.4255  -5.4170
    -5.3535  -5.3110  -5.2940  -5.2932  -5.2888  -5.2815  -5.2751  -5.2595
    -5.2517  -5.2456  -5.2381  -5.2157  -5.2137  -5.2100  -5.2085  -5.2017
    -5.1917  -5.1846  -5.1741  -5.1669  -5.1612  -5.1486  -5.1481  -5.1425
    -5.1397  -5.1388  -5.1337  -5.1305  -5.1154  -5.1129  -5.1018  -5.0828
    -5.0654  -5.0606  -5.0585  -5.0571  -5.0465  -5.0379  -5.0271  -5.0260
    -5.0238  -4.9938  -4.9919  -4.9870  -4.9369  -4.9252  -4.8409  -4.8214
    -4.7909  -4.7760  -4.7647  -4.7636  -4.7512  -4.7461  -4.7340  -4.7231
    -4.7116  -4.6585  -4.6567  -4.6120  -4.6117  -4.5922  -4.5832  -4.5793
    -4.5673  -4.5525  -4.5294  -4.5189  -4.5078  -4.5037  -4.4711  -4.4188
    -4.3718  -4.3491  -4.3268  -4.3019  -4.2639  -4.2600  -4.2540  -4.2539
    -4.2383  -4.2344  -4.2257  -4.2037  -4.2001  -4.1931  -4.1740  -4.1514
    -4.1439  -4.1415  -4.1368  -4.1067  -4.0913  -3.8677  -3.8557  -3.8414
    -3.7906  -3.7482  -3.7456  -3.7153  -3.5755  -3.5333  -3.4757  -3.4672
    -3.4450  -3.4016  -3.4013  -3.3762  -3.3711  -3.3477  -3.3457  -3.3049
    -3.3016  -3.2933  -3.2915  -3.2504  -3.2017  -3.2013  -3.1836  -3.1798
    -3.1633  -3.1402  -3.1384  -3.1083  -3.0993  -3.0903  -3.0628  -3.0101
    -3.0090  -2.9964  -2.9878  -2.9782  -2.9748  -2.9710  -2.9676  -2.9539
    -2.9472  -2.9425  -2.8943  -2.8922  -2.8921  -2.8754  -2.8268  -2.8190
    -2.8046  -2.7991  -2.7882  -2.7763  -2.7619  -2.7419  -2.6882  -2.6731
    -2.6632  -2.6584  -2.6191  -2.6159  -2.5837  -2.5748  -2.5539  -2.5451
    -2.5444  -2.5441  -2.5390  -2.5259  -2.5145  -2.5075  -2.4939  -2.4844
    -2.4741  -2.4740  -2.4714  -2.4712  -2.4694  -2.4550  -2.4520  -2.4293
    -2.4236  -2.4211  -2.4137  -2.4030  -2.3955  -2.3889  -2.3787  -2.3728
    -2.3712  -2.3698  -2.3649  -2.3642  -2.3617  -2.3415  -2.3346  -2.3328
    -2.3178  -2.3023  -2.3006  -2.2997  -2.2976  -2.2881  -2.2872  -2.2847
    -2.2754  -2.2544  -2.2513  -2.2393  -2.2047  -2.1845  -2.1796  -2.1783
    -2.1683  -2.1592  -2.1569  -2.1478  -2.1377  -2.1327  -2.1184  -2.1091
    -2.1082  -2.1053  -2.0994  -2.0923  -2.0878  -2.0854  -2.0820  -2.0739
    -2.0702  -2.0689  -2.0688  -2.0434  -2.0407  -2.0329  -2.0325  -2.0230
    -2.0221  -2.0169  -2.0090  -2.0047  -2.0033  -1.9942  -1.9915  -1.9734
    -1.9456  -1.9248  -1.9247  -1.8996  -1.8960  -1.8788  -1.8099  -1.7771
    -1.6909  -1.6863  -1.6838  -1.6662  -1.4839  -1.4735  -1.4709  -1.4667
    -1.4204  -1.4057  -1.3982  -1.3973  -1.3775  -1.3738  -1.3685  -1.2413
    -1.1251  -1.1088

     the Fermi energy is    -4.2270 ev

!    total energy              =  -21093.73440929 Ry
     estimated scf accuracy    <          7.7E-11 Ry
     smearing contrib. (-TS)   =       0.00152822 Ry
     internal energy E=F+TS    =  -21093.73593751 Ry

     The total energy is F=E-TS. E is the sum of the following terms:
     one-electron contribution = -743717.99798468 Ry
     hartree contribution      =  371694.29786024 Ry
     xc contribution           =   -2234.27843252 Ry
     ewald contribution        =  358039.07770417 Ry
     Dispersion Correction     =      -1.39249688 Ry
     one-center paw contrib.   =   -4873.44258783 Ry

     total magnetization       =   161.00 Bohr mag/cell
     absolute magnetization    =   167.60 Bohr mag/cell

     convergence has been achieved in  16 iterations

     negative rho (up, down):  1.184E-02 1.612E-02

     Forces acting on atoms (cartesian axes, Ry/au):

     atom    1 type  1   force =     0.00051443   -0.00031385    0.00927829
     atom    2 type  1   force =     0.00173745   -0.00244508   -0.01303689
     atom    3 type  1   force =    -0.00036660   -0.00032189    0.00896402
     atom    4 type  1   force =     0.00046676    0.00058670   -0.00810578
     atom    5 type  1   force =     0.00000695   -0.00001268   -0.00009324
     atom    6 type  1   force =    -0.00000647    0.00000441   -0.00005602
     atom    7 type  1   force =    -0.00000505   -0.00001365   -0.00012189
     atom    8 type  1   force =    -0.00002993    0.00002333   -0.00000880
     atom    9 type  1   force =     0.00000791    0.00001382    0.00959804
     atom   10 type  1   force =    -0.00018908   -0.00013216    0.00933174
     atom   11 type  1   force =    -0.00032660    0.00127702   -0.00705975
     atom   12 type  1   force =     0.00094848    0.00075238   -0.01130983
     atom   13 type  1   force =     0.00000256   -0.00000587   -0.00009395
     atom   14 type  1   force =    -0.00001351   -0.00001784   -0.00011091
     atom   15 type  1   force =     0.00007796    0.00001998   -0.00002819
     atom   16 type  1   force =     0.00000302   -0.00000897   -0.00005015
     atom   17 type  1   force =    -0.00041893   -0.00022481    0.00891767
     atom   18 type  1   force =     0.00071367    0.00029425   -0.00811499
     atom   19 type  1   force =     0.00036567    0.00031597    0.00891177
     atom   20 type  1   force =     0.00063157   -0.00085065   -0.01133774
     atom   21 type  1   force =    -0.00001136   -0.00000631   -0.00012658
     atom   22 type  1   force =     0.00002596   -0.00004824   -0.00001780
     atom   23 type  1   force =     0.00000324    0.00000420   -0.00012215
     atom   24 type  1   force =     0.00004602   -0.00007534   -0.00005395
     atom   25 type  1   force =     0.00001684   -0.00000966    0.00791708
     atom   26 type  1   force =    -0.00071041    0.00098736    0.00969519
     atom   27 type  1   force =    -0.00009047   -0.00010872   -0.00648403
     atom   28 type  1   force =    -0.00107292    0.00076888   -0.00705336
     atom   29 type  1   force =    -0.00000163   -0.00000396   -0.00007842
     atom   30 type  1   force =    -0.00002029    0.00002506   -0.00006031
     atom   31 type  1   force =    -0.00014458   -0.00011956   -0.00004388
     atom   32 type  1   force =    -0.00005409   -0.00007744   -0.00003008
     atom   33 type  1   force =    -0.00050537    0.00030322    0.00928338
     atom   34 type  1   force =    -0.00049209   -0.00057132   -0.00810916
     atom   35 type  1   force =    -0.00012983    0.00056837    0.00929994
     atom   36 type  1   force =    -0.00183290    0.00258431   -0.01303257
     atom   37 type  1   force =    -0.00000088   -0.00000242   -0.00008954
     atom   38 type  1   force =     0.00002555   -0.00004406   -0.00001800
     atom   39 type  1   force =    -0.00000275   -0.00000440   -0.00008845
     atom   40 type  1   force =     0.00000762   -0.00001852   -0.00006338
     atom   41 type  1   force =     0.00000487   -0.00000283    0.00815218
     atom   42 type  1   force =     0.00071093   -0.00097438    0.00977678
     atom   43 type  1   force =    -0.00101675   -0.00062557   -0.01131381
     atom   44 type  1   force =     0.00033555   -0.00124324   -0.00704079
     atom   45 type  1   force =     0.00000446   -0.00000898   -0.00005626
     atom   46 type  1   force =     0.00002140   -0.00003652   -0.00005870
     atom   47 type  1   force =     0.00000038   -0.00000902   -0.00004967
     atom   48 type  1   force =    -0.00008146   -0.00004021   -0.00002476
     atom   49 type  1   force =     0.00042651    0.00022979    0.00897976
     atom   50 type  1   force =    -0.00053688    0.00078166   -0.01138751
     atom   51 type  1   force =     0.00013616   -0.00059444    0.00928531
     atom   52 type  1   force =    -0.00070254   -0.00021415   -0.00810168
     atom   53 type  1   force =     0.00001007   -0.00000447   -0.00012350
     atom   54 type  1   force =    -0.00004582    0.00005415   -0.00004562
     atom   55 type  1   force =     0.00000399   -0.00001330   -0.00009310
     atom   56 type  1   force =    -0.00002029    0.00002582   -0.00001104
     atom   57 type  1   force =    -0.00003752   -0.00001388    0.00960381
     atom   58 type  1   force =     0.00018303    0.00014412    0.00932815
     atom   59 type  1   force =     0.00107591   -0.00070528   -0.00704150
     atom   60 type  1   force =     0.00015270    0.00007443   -0.00649028
     atom   61 type  1   force =     0.00000043   -0.00000779   -0.00009427
     atom   62 type  1   force =     0.00001616    0.00000371   -0.00011372
     atom   63 type  1   force =     0.00005850    0.00005535   -0.00002740
     atom   64 type  1   force =     0.00014822    0.00008836   -0.00004388
     atom   65 type  2   force =    -0.00001280   -0.00002422   -0.00016640
     atom   66 type  3   force =    -0.00001109   -0.00003100    0.00021282

     Total force =     0.000612     Total SCF correction =     0.000027
     Energy error            =      6.1E-07
     Gradient error          =      2.1E-04

     bfgs converged in   7 scf cycles and   6 bfgs steps
     (criteria: energy <  7.3E-07 Ry, force <  3.9E-04 Ry/Bohr)

     End of BFGS Geometry Optimization

     Final energy   =  -21093.7344092876 Ry

     File ./Fe_NH_paper_480c_ESM_std.bfgs deleted, as requested
Begin final coordinates

ATOMIC_POSITIONS (angstrom)
Fe            1.6549129530        1.1702001330        0.0000000000    0   0   0
Fe            0.0000000000        0.0000000000        2.0269842320    0   0   0
Fe            4.9647388580        3.5106003990        0.0000000000    0   0   0
Fe            3.3098259060        2.3404002660        2.0269842320    0   0   0
Fe            1.6747106465        1.1699058595        4.0251707933
Fe            3.3179221966        9.3508323597        5.9948582337
Fe            4.9752208888        3.5222945465        4.0412557393
Fe            3.3653286864        2.3364748953        6.0131982394
Fe            2.4823638580        3.5106003990        0.0000000000    0   0   0
Fe            4.1372879530        1.1702001330        0.0000000000    0   0   0
Fe            0.8274509060        2.3404002660        2.0269842320    0   0   0
Fe            2.4823750000        0.0000000000        2.0269842320    0   0   0
Fe            2.4824481221        3.5107423848        4.0404473935
Fe            4.1610761982        1.1871947232        4.0326263044
Fe            0.8599124207        2.3225007812        5.9984253438
Fe            2.4952962092        0.0090687501        6.0117573643
Fe            6.6196629530        1.1702001330        0.0000000000    0   0   0
Fe            4.9647500000        0.0000000000        2.0269842320    0   0   0
Fe            9.9294888580        3.5106003990        0.0000000000    0   0   0
Fe            8.2745759060        2.3404002660        2.0269842320    0   0   0
Fe            6.6341981004        1.1762985133        4.0411084121
Fe            4.9797531006        0.0534707261        6.0134676101
Fe            9.9194543425        3.4992701557        4.0410911902
Fe            8.3618869600        2.2179325998        5.9801234854
Fe            7.4471138580        3.5106003990        0.0000000000    0   0   0
Fe            9.1020379530        1.1702001330        0.0000000000    0   0   0
Fe            5.7922009060        2.3404002660        2.0269842320    0   0   0
Fe            7.4471250000        0.0000000000        2.0269842320    0   0   0
Fe            7.4474577235        3.5106835545        4.0000778278
Fe            9.1193837779        1.1461691313        4.0070213385
Fe            5.8819744417        2.4037094075        6.0517104088
Fe           10.7637810977        9.3257843403        5.9984162308
Fe            3.3098147640        5.8510006640        0.0000000000    0   0   0
Fe            1.6549018110        4.6808005310        2.0269842320    0   0   0
Fe            6.6196406700        8.1914009300        0.0000000000    0   0   0
Fe            4.9647277170        7.0212007970        2.0269842320    0   0   0
Fe            3.2904367219        5.8515153790        4.0252031282
Fe           11.5300581879        4.6849744037        6.0134588270
Fe            6.6260633572        8.2102094019        4.0251805615
Fe            4.9573565551        7.0322994154        5.9940092413
Fe            4.1372656700        8.1914009300        0.0000000000    0   0   0
Fe            5.7921897640        5.8510006640        0.0000000000    0   0   0
Fe           12.4118527170        7.0212007970        2.0269842320    0   0   0
Fe            4.1372768110        4.6808005310        2.0269842320    0   0   0
Fe            4.1373777386        8.1917157126        4.0218644575
Fe            5.7754430468        5.8751673056        4.0068555586
Fe           12.3996645991        7.0125685893        6.0117029583
Fe            4.1057414990        4.6991409954        5.9987753966
Fe            8.2745647640        5.8510006640        0.0000000000    0   0   0
Fe            6.6196518110        4.6808005310        2.0269842320    0   0   0
Fe           11.5843906700        8.1914009300        0.0000000000    0   0   0
Fe            9.9294777170        7.0212007970        2.0269842320    0   0   0
Fe            8.2605908022        5.8454438025        4.0412600175
Fe            6.5332974881        4.8039862539        5.9799542707
Fe           11.5785163674        8.1730113849        4.0251502080
Fe            9.9154787803        6.9683211096        6.0131000281
Fe            9.1020156700        8.1914009300        0.0000000000    0   0   0
Fe           10.7569397640        5.8510006640        0.0000000000    0   0   0
Fe            7.4471027170        7.0212007970        2.0269842320    0   0   0
Fe            9.1020268110        4.6808005310        2.0269842320    0   0   0
Fe            9.1023238901        8.1918023310        4.0404388031
Fe           10.7335441804        5.8345852713        4.0326424351
Fe            7.4410786902        7.0578597797        5.9987524617
Fe            9.0137426212        4.6181004270        6.0515925449
N             7.4485809060        3.5118048346        6.9988203424
H             7.4486297151        3.5122628734        8.0267420097
End final coordinates



     Writing output data file ./Fe_NH_paper_480c_ESM_std.save/

     init_run     :     30.52s CPU     31.54s WALL (       1 calls)
     electrons    :  13199.75s CPU  13440.21s WALL (       7 calls)
     update_pot   :     34.97s CPU     35.15s WALL (       6 calls)
     forces       :    125.68s CPU    127.71s WALL (       7 calls)

     Called by init_run:
     wfcinit      :     20.15s CPU     20.91s WALL (       1 calls)
     potinit      :      2.88s CPU      2.97s WALL (       1 calls)
     hinit0       :      5.21s CPU      5.26s WALL (       1 calls)

     Called by electrons:
     c_bands      :  11848.17s CPU  12046.93s WALL (     140 calls)
     sum_band     :    680.18s CPU    705.61s WALL (     140 calls)
     v_of_rho     :    119.62s CPU    121.08s WALL (     141 calls)
     newd         :     24.71s CPU     25.04s WALL (     141 calls)
     PAW_pot      :     27.00s CPU     27.26s WALL (     147 calls)
     mix_rho      :    468.96s CPU    477.49s WALL (     140 calls)

     Called by c_bands:
     init_us_2    :     61.76s CPU     65.25s WALL (     882 calls)
     cegterg      :  10014.02s CPU  10150.24s WALL (     421 calls)

     Called by *egterg:
     cdiaghg      :   2428.47s CPU   2445.55s WALL (    2938 calls)
     h_psi        :   3219.38s CPU   3270.45s WALL (    2977 calls)
     s_psi        :    838.25s CPU    843.97s WALL (    2977 calls)
     g_psi        :     14.73s CPU     14.94s WALL (    2553 calls)

     Called by h_psi:
     h_psi:calbec :    924.88s CPU    931.36s WALL (    2977 calls)
     vloc_psi     :   1432.71s CPU   1449.56s WALL (    2977 calls)
     add_vuspsi   :    835.26s CPU    840.90s WALL (    2977 calls)

     General routines
     calbec       :   1322.38s CPU   1331.34s WALL (    3499 calls)
     fft          :     80.08s CPU     80.96s WALL (    3634 calls)
     ffts         :    211.42s CPU    213.39s WALL (   79495 calls)
     fftw         :   1552.53s CPU   1571.19s WALL ( 1715794 calls)
     interpolate  :      9.32s CPU      9.41s WALL (     282 calls)
     davcio       :      0.55s CPU     66.26s WALL (    3581 calls)

     Parallel routines
     fft_scatt_xy :    213.60s CPU    215.93s WALL ( 1798923 calls)
     fft_scatt_yz :    855.84s CPU    866.38s WALL ( 1798923 calls)

     PWSCF        :      3h43m CPU      3h47m WALL


   This run was terminated on:  21:16:51   8Jul2022            

=------------------------------------------------------------------------------=
   JOB DONE.
=------------------------------------------------------------------------------=
