
     Program PHONON v.6.7MaX starts on 27Sep2022 at 16:27:16 

     This program is part of the open-source Quantum ESPRESSO suite
     for quantum simulation of materials; please cite
         "P. Giannozzi et al., J. Phys.:Condens. Matter 21 395502 (2009);
         "P. Giannozzi et al., J. Phys.:Condens. Matter 29 465901 (2017);
          URL http://www.quantum-espresso.org", 
     in publications or presentations arising from this work. More details at
     http://www.quantum-espresso.org/quote

     Parallel version (MPI), running on   120 processors

     MPI processes distributed on     1 nodes
     K-points division:     npool     =       8
     R & G space division:  proc/nbgrp/npool/nimage =      15
     Waiting for input...
     Reading input from standard input

     Reading xml data from directory:

     ./NH3_ESM_p25.save/

     IMPORTANT: XC functional enforced from input :
     Exchange-correlation= PBE
                           (   1   4   3   4   0   0   0)
     Any further DFT definition will be discarded
     Please, verify this is what you really want


     Parallelization info
     --------------------
     sticks:   dense  smooth     PW     G-vecs:    dense   smooth      PW
     Min        3636    1818    468               639190   225950   29545
     Max        3637    1819    470               639197   225953   29547
     Sum       54553   27281   7033              9587919  3389267  443191


     Adding external electric field
        E field amplitude [Ha a.u.]: -7.8812E-03
        Potential amp.       -0.5362 Ry
        Total length         34.0151 bohr


     negative rho (up, down):  2.071E-04 2.071E-04
     Reading collected, re-writing distributed wavefunctions

     Calculation of q =    0.0000000   0.0000000   0.0000000

     phonons (vibrational modes) for NH3                                        

     bravais-lattice index     =            0
     lattice parameter (alat)  =      37.7945  a.u.
     unit-cell volume          =   53986.6760 (a.u.)^3
     number of atoms/cell      =            4
     number of atomic types    =            2
     kinetic-energy cut-off    =      60.0000  Ry
     charge density cut-off    =     480.0000  Ry
     convergence threshold     =      1.0E-12
     beta                      =       0.7000
     number of iterations used =            4
     Exchange-correlation= PBE
                           (   1   4   3   4   0   0   0)


     celldm(1)=   37.79452  celldm(2)=    0.00000  celldm(3)=    0.00000
     celldm(4)=    0.00000  celldm(5)=    0.00000  celldm(6)=    0.00000

     crystal axes: (cart. coord. in units of alat)
               a(1) = (  1.0000  0.0000  0.0000 )  
               a(2) = (  0.0000  1.0000  0.0000 )  
               a(3) = (  0.0000  0.0000  1.0000 )  

     reciprocal axes: (cart. coord. in units 2 pi/alat)
               b(1) = (  1.0000  0.0000  0.0000 )  
               b(2) = (  0.0000  1.0000  0.0000 )  
               b(3) = (  0.0000  0.0000  1.0000 )  


     Atoms inside the unit cell: 

     Cartesian axes

     site n.  atom      mass           positions (alat units)
        1     N   14.0067   tau(    1) = (    0.50000    0.50000    0.00000  )
        2     H    1.0078   tau(    2) = (    0.50000    0.54690   -0.02035  )
        3     H    1.0078   tau(    3) = (    0.54061    0.47655   -0.02035  )
        4     H    1.0078   tau(    4) = (    0.45939    0.47655   -0.02035  )

     Computing dynamical matrix for 
                    q = (   0.0000000   0.0000000   0.0000000 )

      2 Sym.Ops. (with q -> -q+G )


     G cutoff =17367.5767  ( 639197 G-vectors)     FFT grid: (270,270,270)
     G cutoff = 8683.7884  ( 225950 G-vectors)  smooth grid: (192,192,192)

     number of k points=    20  Methfessel-Paxton smearing, width (Ry)=  0.0100
                       cart. coord. in units 2pi/alat
        k(    1) = (   0.0000000   0.0000000   0.0000000), wk =   0.0625000
        k(    2) = (   0.0000000   0.2500000   0.0000000), wk =   0.1250000
        k(    3) = (   0.0000000  -0.5000000   0.0000000), wk =   0.0625000
        k(    4) = (   0.2500000   0.0000000   0.0000000), wk =   0.1250000
        k(    5) = (   0.2500000   0.2500000   0.0000000), wk =   0.1250000
        k(    6) = (   0.2500000  -0.5000000   0.0000000), wk =   0.1250000
        k(    7) = (   0.2500000  -0.2500000   0.0000000), wk =   0.1250000
        k(    8) = (  -0.5000000   0.0000000   0.0000000), wk =   0.0625000
        k(    9) = (  -0.5000000   0.2500000   0.0000000), wk =   0.1250000
        k(   10) = (  -0.5000000  -0.5000000   0.0000000), wk =   0.0625000
        k(   11) = (   0.0000000   0.0000000   0.0000000), wk =   0.0625000
        k(   12) = (   0.0000000   0.2500000   0.0000000), wk =   0.1250000
        k(   13) = (   0.0000000  -0.5000000   0.0000000), wk =   0.0625000
        k(   14) = (   0.2500000   0.0000000   0.0000000), wk =   0.1250000
        k(   15) = (   0.2500000   0.2500000   0.0000000), wk =   0.1250000
        k(   16) = (   0.2500000  -0.5000000   0.0000000), wk =   0.1250000
        k(   17) = (   0.2500000  -0.2500000   0.0000000), wk =   0.1250000
        k(   18) = (  -0.5000000   0.0000000   0.0000000), wk =   0.0625000
        k(   19) = (  -0.5000000   0.2500000   0.0000000), wk =   0.1250000
        k(   20) = (  -0.5000000  -0.5000000   0.0000000), wk =   0.0625000

     PseudoPot. # 1 for N  read from file:
     ../../SSSP/N.pbe-n-radius_5.UPF
     MD5 check sum: 16739722b17309cd8fe442a2ace49922
     Pseudo is Ultrasoft + core correction, Zval =  5.0
     Generated using "atomic" code by A. Dal Corso  v.5.1
     Using radial grid of 1085 points,  4 beta functions with: 
                l(1) =   0
                l(2) =   0
                l(3) =   1
                l(4) =   1
     Q(r) pseudized with 0 coefficients 


     PseudoPot. # 2 for H  read from file:
     ../../SSSP/H.pbe-rrkjus_psl.1.0.0.UPF
     MD5 check sum: f52b6d4d1c606e5624b1dc7b2218f220
     Pseudo is Ultrasoft, Zval =  1.0
     Generated using "atomic" code by A. Dal Corso  v.5.1
     Using radial grid of  929 points,  2 beta functions with: 
                l(1) =   0
                l(2) =   0
     Q(r) pseudized with 0 coefficients 


     Mode symmetry, C_1 (1)     point group:


     Atomic displacements:
     There are   12 irreducible representations

     Representation     1      1 modes -  To be done

     Representation     2      1 modes -  To be done

     Representation     3      1 modes -  To be done

     Representation     4      1 modes -  To be done

     Representation     5      1 modes -  To be done

     Representation     6      1 modes -  To be done

     Representation     7      1 modes -  To be done

     Representation     8      1 modes -  To be done

     Representation     9      1 modes -  To be done

     Representation    10      1 modes -  To be done

     Representation    11      1 modes -  To be done

     Representation    12      1 modes -  To be done



     Alpha used in Ewald sum =   2.8000

     -------------------------------------------------
     Parameters for Dispersion (Grimme-D2) Correction:
     -------------------------------------------------
       atom      VdW radius       C_6     

        N          2.640         42.670
        H          1.892          4.857

     Calculating the D2 contribution to the dynamical matrix.
     D2 energy =       -0.00029962 Ry
     Done.


     negative rho (up, down):  2.071E-04 2.071E-04
     PHONON       :   3m30.49s CPU   3m38.76s WALL



     Representation #   1 mode #   1

     Self-consistent Calculation

     Pert. #  1: Fermi energy shift (Ry) =     0.0000E+00     0.0000E+00

      iter #   1 total cpu time :   262.0 secs   av.it.:   8.0
      thresh= 1.000E-02 alpha_mix =  0.700 |ddv_scf|^2 =  7.802E-07

     Pert. #  1: Fermi energy shift (Ry) =     0.0000E+00     0.0000E+00

      iter #   2 total cpu time :   302.8 secs   av.it.:  12.1
      thresh= 8.833E-05 alpha_mix =  0.700 |ddv_scf|^2 =  1.064E-07

     Pert. #  1: Fermi energy shift (Ry) =     0.0000E+00     0.0000E+00

      iter #   3 total cpu time :   347.4 secs   av.it.:  12.9
      thresh= 3.262E-05 alpha_mix =  0.700 |ddv_scf|^2 =  2.754E-09

     Pert. #  1: Fermi energy shift (Ry) =     0.0000E+00     0.0000E+00

      iter #   4 total cpu time :   393.2 secs   av.it.:  14.1
      thresh= 5.248E-06 alpha_mix =  0.700 |ddv_scf|^2 =  6.619E-13

     End of self-consistent calculation

     Convergence has been achieved 


     Representation #   2 mode #   2

     Self-consistent Calculation

     Pert. #  1: Fermi energy shift (Ry) =     0.0000E+00     0.0000E+00

      iter #   1 total cpu time :   457.5 secs   av.it.:   8.0
      thresh= 1.000E-02 alpha_mix =  0.700 |ddv_scf|^2 =  1.296E-07

     Pert. #  1: Fermi energy shift (Ry) =     0.0000E+00     0.0000E+00

      iter #   2 total cpu time :   497.8 secs   av.it.:  13.9
      thresh= 3.600E-05 alpha_mix =  0.700 |ddv_scf|^2 =  1.579E-08

     Pert. #  1: Fermi energy shift (Ry) =     0.0000E+00     0.0000E+00

      iter #   3 total cpu time :   540.6 secs   av.it.:  14.0
      thresh= 1.257E-05 alpha_mix =  0.700 |ddv_scf|^2 =  1.606E-10

     Pert. #  1: Fermi energy shift (Ry) =     0.0000E+00     0.0000E+00

      iter #   4 total cpu time :   588.5 secs   av.it.:  17.0
      thresh= 1.267E-06 alpha_mix =  0.700 |ddv_scf|^2 =  3.119E-13

     End of self-consistent calculation

     Convergence has been achieved 


     Representation #   3 mode #   3

     Self-consistent Calculation

     Pert. #  1: Fermi energy shift (Ry) =     0.0000E+00     0.0000E+00

      iter #   1 total cpu time :   652.2 secs   av.it.:   7.0
      thresh= 1.000E-02 alpha_mix =  0.700 |ddv_scf|^2 =  4.146E-08

     Pert. #  1: Fermi energy shift (Ry) =     0.0000E+00     0.0000E+00

      iter #   2 total cpu time :   694.0 secs   av.it.:  14.8
      thresh= 2.036E-05 alpha_mix =  0.700 |ddv_scf|^2 =  5.474E-09

     Pert. #  1: Fermi energy shift (Ry) =     0.0000E+00     0.0000E+00

      iter #   3 total cpu time :   737.9 secs   av.it.:  14.0
      thresh= 7.398E-06 alpha_mix =  0.700 |ddv_scf|^2 =  4.673E-10

     Pert. #  1: Fermi energy shift (Ry) =     0.0000E+00     0.0000E+00

      iter #   4 total cpu time :   785.5 secs   av.it.:  15.0
      thresh= 2.162E-06 alpha_mix =  0.700 |ddv_scf|^2 =  2.690E-11

     Pert. #  1: Fermi energy shift (Ry) =     0.0000E+00     0.0000E+00

      iter #   5 total cpu time :   828.9 secs   av.it.:  15.0
      thresh= 5.187E-07 alpha_mix =  0.700 |ddv_scf|^2 =  7.371E-13

     End of self-consistent calculation

     Convergence has been achieved 


     Representation #   4 mode #   4

     Self-consistent Calculation

     Pert. #  1: Fermi energy shift (Ry) =     0.0000E+00     0.0000E+00

      iter #   1 total cpu time :   890.3 secs   av.it.:   5.0
      thresh= 1.000E-02 alpha_mix =  0.700 |ddv_scf|^2 =  1.144E-08

     Pert. #  1: Fermi energy shift (Ry) =     0.0000E+00     0.0000E+00

      iter #   2 total cpu time :   928.5 secs   av.it.:  12.0
      thresh= 1.070E-05 alpha_mix =  0.700 |ddv_scf|^2 =  7.116E-10

     Pert. #  1: Fermi energy shift (Ry) =     0.0000E+00     0.0000E+00

      iter #   3 total cpu time :   969.9 secs   av.it.:  13.1
      thresh= 2.668E-06 alpha_mix =  0.700 |ddv_scf|^2 =  1.110E-11

     Pert. #  1: Fermi energy shift (Ry) =     0.0000E+00     0.0000E+00

      iter #   4 total cpu time :  1012.8 secs   av.it.:  15.0
      thresh= 3.332E-07 alpha_mix =  0.700 |ddv_scf|^2 =  5.744E-15

     End of self-consistent calculation

     Convergence has been achieved 


     Representation #   5 mode #   5

     Self-consistent Calculation

     Pert. #  1: Fermi energy shift (Ry) =     0.0000E+00     0.0000E+00

      iter #   1 total cpu time :  1075.5 secs   av.it.:   6.0
      thresh= 1.000E-02 alpha_mix =  0.700 |ddv_scf|^2 =  8.357E-10

     Pert. #  1: Fermi energy shift (Ry) =     0.0000E+00     0.0000E+00

      iter #   2 total cpu time :  1118.2 secs   av.it.:  16.6
      thresh= 2.891E-06 alpha_mix =  0.700 |ddv_scf|^2 =  3.805E-10

     Pert. #  1: Fermi energy shift (Ry) =     0.0000E+00     0.0000E+00

      iter #   3 total cpu time :  1163.9 secs   av.it.:  16.0
      thresh= 1.951E-06 alpha_mix =  0.700 |ddv_scf|^2 =  5.374E-11

     Pert. #  1: Fermi energy shift (Ry) =     0.0000E+00     0.0000E+00

      iter #   4 total cpu time :  1209.0 secs   av.it.:  16.0
      thresh= 7.331E-07 alpha_mix =  0.700 |ddv_scf|^2 =  1.014E-12

     Pert. #  1: Fermi energy shift (Ry) =     0.0000E+00     0.0000E+00

      iter #   5 total cpu time :  1257.4 secs   av.it.:  16.0
      thresh= 1.007E-07 alpha_mix =  0.700 |ddv_scf|^2 =  4.265E-14

     End of self-consistent calculation

     Convergence has been achieved 


     Representation #   6 mode #   6

     Self-consistent Calculation

     Pert. #  1: Fermi energy shift (Ry) =     0.0000E+00     0.0000E+00

      iter #   1 total cpu time :  1318.7 secs   av.it.:   5.0
      thresh= 1.000E-02 alpha_mix =  0.700 |ddv_scf|^2 =  9.444E-10

     Pert. #  1: Fermi energy shift (Ry) =     0.0000E+00     0.0000E+00

      iter #   2 total cpu time :  1361.8 secs   av.it.:  16.0
      thresh= 3.073E-06 alpha_mix =  0.700 |ddv_scf|^2 =  1.914E-10

     Pert. #  1: Fermi energy shift (Ry) =     0.0000E+00     0.0000E+00

      iter #   3 total cpu time :  1405.1 secs   av.it.:  16.9
      thresh= 1.384E-06 alpha_mix =  0.700 |ddv_scf|^2 =  9.806E-11

     Pert. #  1: Fermi energy shift (Ry) =     0.0000E+00     0.0000E+00

      iter #   4 total cpu time :  1448.0 secs   av.it.:  16.0
      thresh= 9.902E-07 alpha_mix =  0.700 |ddv_scf|^2 =  2.145E-13

     End of self-consistent calculation

     Convergence has been achieved 


     Representation #   7 mode #   7

     Self-consistent Calculation

     Pert. #  1: Fermi energy shift (Ry) =     0.0000E+00     0.0000E+00

      iter #   1 total cpu time :  1509.9 secs   av.it.:   6.0
      thresh= 1.000E-02 alpha_mix =  0.700 |ddv_scf|^2 =  4.384E-09

     Pert. #  1: Fermi energy shift (Ry) =     0.0000E+00     0.0000E+00

      iter #   2 total cpu time :  1553.2 secs   av.it.:  16.0
      thresh= 6.621E-06 alpha_mix =  0.700 |ddv_scf|^2 =  5.373E-10

     Pert. #  1: Fermi energy shift (Ry) =     0.0000E+00     0.0000E+00

      iter #   3 total cpu time :  1598.9 secs   av.it.:  17.0
      thresh= 2.318E-06 alpha_mix =  0.700 |ddv_scf|^2 =  3.684E-10

     Pert. #  1: Fermi energy shift (Ry) =     0.0000E+00     0.0000E+00

      iter #   4 total cpu time :  1642.5 secs   av.it.:  15.8
      thresh= 1.919E-06 alpha_mix =  0.700 |ddv_scf|^2 =  7.619E-13

     End of self-consistent calculation

     Convergence has been achieved 


     Representation #   8 mode #   8

     Self-consistent Calculation

     Pert. #  1: Fermi energy shift (Ry) =     0.0000E+00     0.0000E+00

      iter #   1 total cpu time :  1703.8 secs   av.it.:   5.0
      thresh= 1.000E-02 alpha_mix =  0.700 |ddv_scf|^2 =  4.167E-09

     Pert. #  1: Fermi energy shift (Ry) =     0.0000E+00     0.0000E+00

      iter #   2 total cpu time :  1746.3 secs   av.it.:  15.0
      thresh= 6.455E-06 alpha_mix =  0.700 |ddv_scf|^2 =  5.710E-10

     Pert. #  1: Fermi energy shift (Ry) =     0.0000E+00     0.0000E+00

      iter #   3 total cpu time :  1790.0 secs   av.it.:  16.0
      thresh= 2.390E-06 alpha_mix =  0.700 |ddv_scf|^2 =  2.137E-10

     Pert. #  1: Fermi energy shift (Ry) =     0.0000E+00     0.0000E+00

      iter #   4 total cpu time :  1836.8 secs   av.it.:  16.0
      thresh= 1.462E-06 alpha_mix =  0.700 |ddv_scf|^2 =  1.785E-12

     Pert. #  1: Fermi energy shift (Ry) =     0.0000E+00     0.0000E+00

      iter #   5 total cpu time :  1881.7 secs   av.it.:  16.0
      thresh= 1.336E-07 alpha_mix =  0.700 |ddv_scf|^2 =  5.450E-14

     End of self-consistent calculation

     Convergence has been achieved 


     Representation #   9 mode #   9

     Self-consistent Calculation

     Pert. #  1: Fermi energy shift (Ry) =     0.0000E+00     0.0000E+00

      iter #   1 total cpu time :  1942.9 secs   av.it.:   5.6
      thresh= 1.000E-02 alpha_mix =  0.700 |ddv_scf|^2 =  1.090E-09

     Pert. #  1: Fermi energy shift (Ry) =     0.0000E+00     0.0000E+00

      iter #   2 total cpu time :  1985.0 secs   av.it.:  15.9
      thresh= 3.302E-06 alpha_mix =  0.700 |ddv_scf|^2 =  1.934E-10

     Pert. #  1: Fermi energy shift (Ry) =     0.0000E+00     0.0000E+00

      iter #   3 total cpu time :  2029.1 secs   av.it.:  17.0
      thresh= 1.391E-06 alpha_mix =  0.700 |ddv_scf|^2 =  1.174E-10

     Pert. #  1: Fermi energy shift (Ry) =     0.0000E+00     0.0000E+00

      iter #   4 total cpu time :  2071.2 secs   av.it.:  15.9
      thresh= 1.084E-06 alpha_mix =  0.700 |ddv_scf|^2 =  1.540E-13

     End of self-consistent calculation

     Convergence has been achieved 


     Representation #  10 mode #  10

     Self-consistent Calculation

     Pert. #  1: Fermi energy shift (Ry) =     0.0000E+00     0.0000E+00

      iter #   1 total cpu time :  2133.2 secs   av.it.:   6.0
      thresh= 1.000E-02 alpha_mix =  0.700 |ddv_scf|^2 =  3.022E-10

     Pert. #  1: Fermi energy shift (Ry) =     0.0000E+00     0.0000E+00

      iter #   2 total cpu time :  2180.3 secs   av.it.:  17.0
      thresh= 1.738E-06 alpha_mix =  0.700 |ddv_scf|^2 =  2.601E-10

     Pert. #  1: Fermi energy shift (Ry) =     0.0000E+00     0.0000E+00

      iter #   3 total cpu time :  2224.7 secs   av.it.:  16.0
      thresh= 1.613E-06 alpha_mix =  0.700 |ddv_scf|^2 =  5.398E-12

     Pert. #  1: Fermi energy shift (Ry) =     0.0000E+00     0.0000E+00

      iter #   4 total cpu time :  2270.5 secs   av.it.:  16.0
      thresh= 2.323E-07 alpha_mix =  0.700 |ddv_scf|^2 =  1.168E-12

     Pert. #  1: Fermi energy shift (Ry) =     0.0000E+00     0.0000E+00

      iter #   5 total cpu time :  2316.1 secs   av.it.:  16.0
      thresh= 1.081E-07 alpha_mix =  0.700 |ddv_scf|^2 =  4.306E-14

     End of self-consistent calculation

     Convergence has been achieved 


     Representation #  11 mode #  11

     Self-consistent Calculation

     Pert. #  1: Fermi energy shift (Ry) =     0.0000E+00     0.0000E+00

      iter #   1 total cpu time :  2376.8 secs   av.it.:   5.0
      thresh= 1.000E-02 alpha_mix =  0.700 |ddv_scf|^2 =  8.268E-09

     Pert. #  1: Fermi energy shift (Ry) =     0.0000E+00     0.0000E+00

      iter #   2 total cpu time :  2419.0 secs   av.it.:  15.0
      thresh= 9.093E-06 alpha_mix =  0.700 |ddv_scf|^2 =  6.531E-10

     Pert. #  1: Fermi energy shift (Ry) =     0.0000E+00     0.0000E+00

      iter #   3 total cpu time :  2462.2 secs   av.it.:  16.0
      thresh= 2.556E-06 alpha_mix =  0.700 |ddv_scf|^2 =  1.865E-10

     Pert. #  1: Fermi energy shift (Ry) =     0.0000E+00     0.0000E+00

      iter #   4 total cpu time :  2505.1 secs   av.it.:  16.0
      thresh= 1.366E-06 alpha_mix =  0.700 |ddv_scf|^2 =  3.873E-13

     End of self-consistent calculation

     Convergence has been achieved 


     Representation #  12 mode #  12

     Self-consistent Calculation

     Pert. #  1: Fermi energy shift (Ry) =     0.0000E+00     0.0000E+00

      iter #   1 total cpu time :  2566.1 secs   av.it.:   6.0
      thresh= 1.000E-02 alpha_mix =  0.700 |ddv_scf|^2 =  3.225E-10

     Pert. #  1: Fermi energy shift (Ry) =     0.0000E+00     0.0000E+00

      iter #   2 total cpu time :  2608.8 secs   av.it.:  16.8
      thresh= 1.796E-06 alpha_mix =  0.700 |ddv_scf|^2 =  1.172E-10

     Pert. #  1: Fermi energy shift (Ry) =     0.0000E+00     0.0000E+00

      iter #   3 total cpu time :  2652.1 secs   av.it.:  16.0
      thresh= 1.083E-06 alpha_mix =  0.700 |ddv_scf|^2 =  1.606E-11

     Pert. #  1: Fermi energy shift (Ry) =     0.0000E+00     0.0000E+00

      iter #   4 total cpu time :  2694.8 secs   av.it.:  16.0
      thresh= 4.008E-07 alpha_mix =  0.700 |ddv_scf|^2 =  7.307E-13

     End of self-consistent calculation

     Convergence has been achieved 

     Number of q in the star =    1
     List of q in the star:
          1   0.000000000   0.000000000   0.000000000

     Diagonalizing the dynamical matrix

     q = (    0.000000000   0.000000000   0.000000000 ) 

 **************************************************************************
     freq (    1) =     -10.630605 [THz] =    -354.598814 [cm-1]
     freq (    2) =      -9.275900 [THz] =    -309.410720 [cm-1]
     freq (    3) =      -1.975579 [THz] =     -65.898220 [cm-1]
     freq (    4) =       3.807704 [THz] =     127.011330 [cm-1]
     freq (    5) =       7.430799 [THz] =     247.864780 [cm-1]
     freq (    6) =       8.347114 [THz] =     278.429743 [cm-1]
     freq (    7) =      32.807271 [THz] =    1094.332760 [cm-1]
     freq (    8) =      48.621394 [THz] =    1621.835118 [cm-1]
     freq (    9) =      48.718848 [THz] =    1625.085829 [cm-1]
     freq (   10) =     103.045993 [THz] =    3437.244341 [cm-1]
     freq (   11) =     104.796485 [THz] =    3495.634454 [cm-1]
     freq (   12) =     104.878056 [THz] =    3498.355387 [cm-1]
 **************************************************************************

     Mode symmetry, C_1 (1)     point group:

     freq (   1-   1) =       -354.6  [cm-1]   --> A               I+R
     freq (   2-   2) =       -309.4  [cm-1]   --> A               I+R
     freq (   3-   3) =        -65.9  [cm-1]   --> A               I+R
     freq (   4-   4) =        127.0  [cm-1]   --> A               I+R
     freq (   5-   5) =        247.9  [cm-1]   --> A               I+R
     freq (   6-   6) =        278.4  [cm-1]   --> A               I+R
     freq (   7-   7) =       1094.3  [cm-1]   --> A               I+R
     freq (   8-   8) =       1621.8  [cm-1]   --> A               I+R
     freq (   9-   9) =       1625.1  [cm-1]   --> A               I+R
     freq (  10-  10) =       3437.2  [cm-1]   --> A               I+R
     freq (  11-  11) =       3495.6  [cm-1]   --> A               I+R
     freq (  12-  12) =       3498.4  [cm-1]   --> A               I+R

     PHONON       :  39m12.65s CPU  45m24.14s WALL

     INITIALIZATION: 
     phq_setup    :     12.69s CPU     14.25s WALL (       1 calls)
     phq_init     :    180.07s CPU    185.14s WALL (       1 calls)

     phq_init     :    180.07s CPU    185.14s WALL (       1 calls)
     set_drhoc    :     23.74s CPU     23.84s WALL (       3 calls)
     init_vloc    :      0.31s CPU      0.32s WALL (       1 calls)
     init_us_1    :      0.04s CPU      0.04s WALL (       1 calls)
     newd         :      1.42s CPU      1.46s WALL (       1 calls)
     dvanqq       :     73.75s CPU     74.51s WALL (       1 calls)
     drho         :     59.41s CPU     62.69s WALL (       1 calls)

     DYNAMICAL MATRIX:
     dynmat0      :     24.61s CPU     25.53s WALL (       1 calls)
     phqscf       :   2142.16s CPU   2495.58s WALL (       1 calls)
     dynmatrix    :      0.00s CPU      0.12s WALL (       1 calls)

     phqscf       :   2142.16s CPU   2495.58s WALL (       1 calls)
     solve_linter :   2124.48s CPU   2448.40s WALL (      12 calls)
     drhodv       :     17.68s CPU     18.07s WALL (      12 calls)

     dynmat0      :     24.61s CPU     25.53s WALL (       1 calls)
     dynmat_us    :      1.77s CPU      1.82s WALL (       1 calls)
     d2ionq       :      0.96s CPU      0.97s WALL (       1 calls)
     dynmatcc     :     21.83s CPU     22.48s WALL (       1 calls)

     dynmat_us    :      1.77s CPU      1.82s WALL (       1 calls)
     addusdynmat  :      0.00s CPU      0.00s WALL (       1 calls)

     phqscf       :   2142.16s CPU   2495.58s WALL (       1 calls)
     solve_linter :   2124.48s CPU   2448.40s WALL (      12 calls)

     solve_linter :   2124.48s CPU   2448.40s WALL (      12 calls)
     dvqpsi_us    :     24.91s CPU     25.46s WALL (      36 calls)
     ortho        :      4.62s CPU      4.74s WALL (     156 calls)
     cgsolve      :    705.19s CPU    713.39s WALL (     156 calls)
     incdrhoscf   :     44.61s CPU     45.67s WALL (     156 calls)
     addusddens   :    130.19s CPU    137.44s WALL (      64 calls)
     vpsifft      :     34.24s CPU     35.02s WALL (     120 calls)
     dv_of_drho   :    342.92s CPU    360.17s WALL (      52 calls)
     mix_pot      :     16.66s CPU     57.38s WALL (      52 calls)
     ef_shift     :     49.86s CPU     51.29s WALL (      64 calls)
     localdos     :     63.53s CPU     66.16s WALL (      12 calls)
     psymdvscf    :    246.59s CPU    368.97s WALL (      52 calls)
     newdq        :    165.35s CPU    173.16s WALL (      52 calls)
     adddvscf     :      1.20s CPU      1.22s WALL (     120 calls)
     drhodvus     :      1.16s CPU     58.88s WALL (      12 calls)

     dvqpsi_us    :     24.91s CPU     25.46s WALL (      36 calls)
     dvqpsi_us_on :      0.41s CPU      0.43s WALL (      36 calls)

     cgsolve      :    705.19s CPU    713.39s WALL (     156 calls)
     ch_psi       :    682.16s CPU    690.09s WALL (    2748 calls)

     ch_psi       :    682.16s CPU    690.09s WALL (    2748 calls)
     h_psi        :    614.06s CPU    621.20s WALL (    2748 calls)
     last         :     48.44s CPU     48.97s WALL (    2748 calls)

     h_psi        :    614.06s CPU    621.20s WALL (    2748 calls)
     add_vuspsi   :     12.39s CPU     12.53s WALL (    2748 calls)

     incdrhoscf   :     44.61s CPU     45.67s WALL (     156 calls)
     addusdbec    :      1.95s CPU      1.98s WALL (     192 calls)

     drhodvus     :      1.16s CPU     58.88s WALL (      12 calls)

      General routines
     calbec       :     33.37s CPU     33.90s WALL (    6054 calls)
     fft          :    616.06s CPU    628.76s WALL (    2259 calls)
     ffts         :     45.88s CPU     46.84s WALL (     594 calls)
     fftw         :    569.40s CPU    576.44s WALL (   20052 calls)
     davcio       :      0.27s CPU     98.37s WALL (    1220 calls)
     write_rec    :      0.01s CPU     64.08s WALL (      64 calls)


     PHONON       :  39m12.65s CPU  45m24.15s WALL


   This run was terminated on:  17:12:40  27Sep2022            

=------------------------------------------------------------------------------=
   JOB DONE.
=------------------------------------------------------------------------------=
