     Message from routine get_command_line:
     unexpected argument # 4     :-in

     Program PWSCF v.6.7MaX starts on 27Sep2022 at 15: 1: 0 

     This program is part of the open-source Quantum ESPRESSO suite
     for quantum simulation of materials; please cite
         "P. Giannozzi et al., J. Phys.:Condens. Matter 21 395502 (2009);
         "P. Giannozzi et al., J. Phys.:Condens. Matter 29 465901 (2017);
          URL http://www.quantum-espresso.org", 
     in publications or presentations arising from this work. More details at
     http://www.quantum-espresso.org/quote

     Parallel version (MPI), running on   120 processors

     MPI processes distributed on     1 nodes
     K-points division:     npool     =       8
     R & G space division:  proc/nbgrp/npool/nimage =      15
     Waiting for input...
     Reading input from standard input
Warning: card &CELL ignored
Warning: card / ignored

     Current dimensions of program PWSCF are:
     Max number of different atomic species (ntypx) = 10
     Max number of k-points (npk) =  40000
     Max angular momentum in pseudopotentials (lmaxx) =  3

     File ./NH3_ESM_p25.update deleted, as requested

     File ./NH3_ESM_p25.bfgs deleted, as requested

     IMPORTANT: XC functional enforced from input :
     Exchange-correlation= PBE
                           (   1   4   3   4   0   0   0)
     Any further DFT definition will be discarded
     Please, verify this is what you really want


     -------------------------------------------------
     Parameters for Dispersion (Grimme-D2) Correction:
     -------------------------------------------------
       atom      VdW radius       C_6     

        N          2.640         42.670
        H          1.892          4.857

     Subspace diagonalization in iterative solution of the eigenvalue problem:
     one sub-group per band group will be used
     scalapack distributed-memory algorithm (size of sub-group:  3*  3 procs)


     Parallelization info
     --------------------
     sticks:   dense  smooth     PW     G-vecs:    dense   smooth      PW
     Min        3636    1818    468               639190   225950   29545
     Max        3637    1819    470               639197   225953   29547
     Sum       54553   27281   7033              9587919  3389267  443191



     bravais-lattice index     =            0
     lattice parameter (alat)  =      37.7945  a.u.
     unit-cell volume          =   53986.6760 (a.u.)^3
     number of atoms/cell      =            4
     number of atomic types    =            2
     number of electrons       =         8.00
     number of Kohn-Sham states=            8
     kinetic-energy cutoff     =      60.0000  Ry
     charge density cutoff     =     480.0000  Ry
     scf convergence threshold =      1.0E-08
     mixing beta               =       0.7000
     number of iterations used =           10  plain     mixing
     energy convergence thresh.=      7.3E-07
     force convergence thresh. =      3.9E-04
     Exchange-correlation= PBE
                           (   1   4   3   4   0   0   0)
     nstep                     =           50


     celldm(1)=  37.794522  celldm(2)=   0.000000  celldm(3)=   0.000000
     celldm(4)=   0.000000  celldm(5)=   0.000000  celldm(6)=   0.000000

     crystal axes: (cart. coord. in units of alat)
               a(1) = (   1.000000   0.000000   0.000000 )  
               a(2) = (   0.000000   1.000000   0.000000 )  
               a(3) = (   0.000000   0.000000   1.000000 )  

     reciprocal axes: (cart. coord. in units 2 pi/alat)
               b(1) = (  1.000000  0.000000  0.000000 )  
               b(2) = (  0.000000  1.000000  0.000000 )  
               b(3) = (  0.000000  0.000000  1.000000 )  


     PseudoPot. # 1 for N  read from file:
     ../../SSSP/N.pbe-n-radius_5.UPF
     MD5 check sum: 16739722b17309cd8fe442a2ace49922
     Pseudo is Ultrasoft + core correction, Zval =  5.0
     Generated using "atomic" code by A. Dal Corso  v.5.1
     Using radial grid of 1085 points,  4 beta functions with: 
                l(1) =   0
                l(2) =   0
                l(3) =   1
                l(4) =   1
     Q(r) pseudized with 0 coefficients 


     PseudoPot. # 2 for H  read from file:
     ../../SSSP/H.pbe-rrkjus_psl.1.0.0.UPF
     MD5 check sum: f52b6d4d1c606e5624b1dc7b2218f220
     Pseudo is Ultrasoft, Zval =  1.0
     Generated using "atomic" code by A. Dal Corso  v.5.1
     Using radial grid of  929 points,  2 beta functions with: 
                l(1) =   0
                l(2) =   0
     Q(r) pseudized with 0 coefficients 


     atomic species   valence    mass     pseudopotential
        N              5.00    14.00700     N ( 1.00)
        H              1.00     1.00800     H ( 1.00)

     Starting magnetic structure 
     atomic species   magnetization
        N            0.100
        H            0.100

     No symmetry found



   Cartesian axes

     site n.     atom                  positions (alat units)
         1           N   tau(   1) = (   0.5000000   0.5000000   0.0000000  )
         2           H   tau(   2) = (   0.5000000   0.5478613  -0.0174102  )
         3           H   tau(   3) = (   0.5414491   0.4760695  -0.0174105  )
         4           H   tau(   4) = (   0.4585510   0.4760695  -0.0174106  )

     number of k points=    10  Methfessel-Paxton smearing, width (Ry)=  0.0100
                       cart. coord. in units 2pi/alat
        k(    1) = (   0.0000000   0.0000000   0.0000000), wk =   0.0625000
        k(    2) = (   0.0000000   0.2500000   0.0000000), wk =   0.1250000
        k(    3) = (   0.0000000  -0.5000000   0.0000000), wk =   0.0625000
        k(    4) = (   0.2500000   0.0000000   0.0000000), wk =   0.1250000
        k(    5) = (   0.2500000   0.2500000   0.0000000), wk =   0.1250000
        k(    6) = (   0.2500000  -0.5000000   0.0000000), wk =   0.1250000
        k(    7) = (   0.2500000  -0.2500000   0.0000000), wk =   0.1250000
        k(    8) = (  -0.5000000   0.0000000   0.0000000), wk =   0.0625000
        k(    9) = (  -0.5000000   0.2500000   0.0000000), wk =   0.1250000
        k(   10) = (  -0.5000000  -0.5000000   0.0000000), wk =   0.0625000

     Dense  grid:  9587919 G-vectors     FFT dimensions: ( 270, 270, 270)

     Smooth grid:  3389267 G-vectors     FFT dimensions: ( 192, 192, 192)

     Estimated max dynamical RAM per process >     390.11 MB

     Estimated total dynamical RAM >      45.72 GB

     Adding external electric field
        E field amplitude [Ha a.u.]: -7.8812E-03
        Potential amp.       -0.5362 Ry
        Total length         34.0151 bohr

     Generating pointlists ...
     new r_m :   0.0210 (alat units)  0.7940 (a.u.) for type    1
     new r_m :   0.0210 (alat units)  0.7940 (a.u.) for type    2

     Initial potential from superposition of free atoms

     starting charge    7.99996, renormalised to    8.00000

     negative rho (up, down):  9.690E-05 7.928E-05
     Starting wfcs are    7 randomized atomic wfcs +    1 random wfcs

     total cpu time spent up to now is       21.8 secs

     Self-consistent Calculation

     iteration #  1     ecut=    60.00 Ry     beta= 0.70
     CG style diagonalization
     ethr =  1.00E-04,  avg # of iterations = 10.3

     negative rho (up, down):  2.129E-04 2.050E-04

     total cpu time spent up to now is       54.7 secs

     total energy              =     -23.51112341 Ry
     estimated scf accuracy    <       0.68895122 Ry

     total magnetization       =    -0.00 Bohr mag/cell
     absolute magnetization    =     0.06 Bohr mag/cell

     iteration #  2     ecut=    60.00 Ry     beta= 0.70
     CG style diagonalization
     ethr =  8.61E-03,  avg # of iterations =  3.5

     negative rho (up, down):  1.278E-04 2.594E-04

     total cpu time spent up to now is       73.3 secs

     total energy              =     -23.64115558 Ry
     estimated scf accuracy    <       0.41457392 Ry

     total magnetization       =     0.03 Bohr mag/cell
     absolute magnetization    =     0.05 Bohr mag/cell

     iteration #  3     ecut=    60.00 Ry     beta= 0.70
     CG style diagonalization
     ethr =  5.18E-03,  avg # of iterations =  3.4

     negative rho (up, down):  3.620E-04 2.238E-04

     total cpu time spent up to now is       91.9 secs

     total energy              =     -23.77033047 Ry
     estimated scf accuracy    <       0.00740884 Ry

     total magnetization       =     0.00 Bohr mag/cell
     absolute magnetization    =     0.03 Bohr mag/cell

     iteration #  4     ecut=    60.00 Ry     beta= 0.70
     CG style diagonalization
     ethr =  9.26E-05,  avg # of iterations =  4.5

     negative rho (up, down):  1.524E-04 2.058E-04

     total cpu time spent up to now is      112.9 secs

     total energy              =     -23.77451920 Ry
     estimated scf accuracy    <       0.00459661 Ry

     total magnetization       =     0.00 Bohr mag/cell
     absolute magnetization    =     0.01 Bohr mag/cell

     iteration #  5     ecut=    60.00 Ry     beta= 0.70
     CG style diagonalization
     ethr =  5.75E-05,  avg # of iterations =  5.7

     negative rho (up, down):  1.600E-04 2.082E-04

     total cpu time spent up to now is      136.5 secs

     total energy              =     -23.77578158 Ry
     estimated scf accuracy    <       0.00071581 Ry

     total magnetization       =    -0.00 Bohr mag/cell
     absolute magnetization    =     0.01 Bohr mag/cell

     iteration #  6     ecut=    60.00 Ry     beta= 0.70
     CG style diagonalization
     ethr =  8.95E-06,  avg # of iterations =  4.5

     negative rho (up, down):  1.945E-04 2.107E-04

     total cpu time spent up to now is      157.5 secs

     total energy              =     -23.77583336 Ry
     estimated scf accuracy    <       0.00006535 Ry

     total magnetization       =    -0.00 Bohr mag/cell
     absolute magnetization    =     0.00 Bohr mag/cell

     iteration #  7     ecut=    60.00 Ry     beta= 0.70
     CG style diagonalization
     c_bands:  1 eigenvalues not converged
     ethr =  8.17E-07,  avg # of iterations =  7.0

     negative rho (up, down):  1.923E-04 2.091E-04

     total cpu time spent up to now is      183.8 secs

     total energy              =     -23.77588517 Ry
     estimated scf accuracy    <       0.00001199 Ry

     total magnetization       =    -0.00 Bohr mag/cell
     absolute magnetization    =     0.00 Bohr mag/cell

     iteration #  8     ecut=    60.00 Ry     beta= 0.70
     CG style diagonalization
     ethr =  1.50E-07,  avg # of iterations =  5.1

     negative rho (up, down):  2.083E-04 2.090E-04

     total cpu time spent up to now is      206.5 secs

     total energy              =     -23.77588724 Ry
     estimated scf accuracy    <       0.00006448 Ry

     total magnetization       =     0.00 Bohr mag/cell
     absolute magnetization    =     0.00 Bohr mag/cell

     iteration #  9     ecut=    60.00 Ry     beta= 0.70
     CG style diagonalization
     ethr =  1.50E-07,  avg # of iterations =  4.1

     negative rho (up, down):  2.112E-04 2.088E-04

     total cpu time spent up to now is      227.0 secs

     total energy              =     -23.77588461 Ry
     estimated scf accuracy    <       0.00001554 Ry

     total magnetization       =     0.00 Bohr mag/cell
     absolute magnetization    =     0.00 Bohr mag/cell

     iteration # 10     ecut=    60.00 Ry     beta= 0.70
     CG style diagonalization
     ethr =  1.50E-07,  avg # of iterations =  3.8

     negative rho (up, down):  2.103E-04 2.090E-04

     total cpu time spent up to now is      247.2 secs

     total energy              =     -23.77588704 Ry
     estimated scf accuracy    <       0.00000045 Ry

     total magnetization       =    -0.00 Bohr mag/cell
     absolute magnetization    =     0.00 Bohr mag/cell

     iteration # 11     ecut=    60.00 Ry     beta= 0.70
     CG style diagonalization
     ethr =  5.58E-09,  avg # of iterations =  4.2

     negative rho (up, down):  2.098E-04 2.091E-04

     total cpu time spent up to now is      268.3 secs

     total energy              =     -23.77588771 Ry
     estimated scf accuracy    <       0.00000006 Ry

     total magnetization       =    -0.00 Bohr mag/cell
     absolute magnetization    =     0.00 Bohr mag/cell

     iteration # 12     ecut=    60.00 Ry     beta= 0.70
     CG style diagonalization
     ethr =  7.00E-10,  avg # of iterations =  3.5

     negative rho (up, down):  2.095E-04 2.092E-04

     total cpu time spent up to now is      287.9 secs

     total energy              =     -23.77588775 Ry
     estimated scf accuracy    <       0.00000004 Ry

     total magnetization       =     0.00 Bohr mag/cell
     absolute magnetization    =     0.00 Bohr mag/cell

     iteration # 13     ecut=    60.00 Ry     beta= 0.70
     CG style diagonalization
     ethr =  4.39E-10,  avg # of iterations =  3.5

     negative rho (up, down):  2.094E-04 2.092E-04

     total cpu time spent up to now is      307.3 secs

     total energy              =     -23.77588775 Ry
     estimated scf accuracy    <       0.00000004 Ry

     total magnetization       =    -0.00 Bohr mag/cell
     absolute magnetization    =     0.00 Bohr mag/cell

     iteration # 14     ecut=    60.00 Ry     beta= 0.70
     CG style diagonalization
     ethr =  4.39E-10,  avg # of iterations =  3.0

     negative rho (up, down):  2.093E-04 2.092E-04

     total cpu time spent up to now is      325.9 secs

     total energy              =     -23.77588774 Ry
     estimated scf accuracy    <       0.00000002 Ry

     total magnetization       =    -0.00 Bohr mag/cell
     absolute magnetization    =     0.00 Bohr mag/cell

     iteration # 15     ecut=    60.00 Ry     beta= 0.70
     CG style diagonalization
     ethr =  2.43E-10,  avg # of iterations =  3.1

     negative rho (up, down):  2.092E-04 2.092E-04

     Magnetic moment per site:
     atom:    1    charge:    1.3368    magn:    0.0000    constr:    0.0000
     atom:    2    charge:    0.4429    magn:   -0.0000    constr:    0.0000
     atom:    3    charge:    0.4429    magn:   -0.0000    constr:    0.0000
     atom:    4    charge:    0.4429    magn:   -0.0000    constr:    0.0000

     total cpu time spent up to now is      342.2 secs

     End of self-consistent calculation

 ------ SPIN UP ------------


          k = 0.0000 0.0000 0.0000 (423701 PWs)   bands (ev):

   -23.7765 -14.0742 -14.0742  -8.8038  -3.2649  -2.2883  -2.2110  -2.2108

          k = 0.0000 0.2500 0.0000 (423725 PWs)   bands (ev):

   -23.7765 -14.0742 -14.0742  -8.8038  -3.2645  -2.3264  -2.2019  -2.1788

          k = 0.0000-0.5000 0.0000 (423542 PWs)   bands (ev):

   -23.7765 -14.0742 -14.0742  -8.8038  -3.2642  -2.3513  -2.1922  -2.1463

          k = 0.2500 0.0000 0.0000 (423725 PWs)   bands (ev):

   -23.7765 -14.0742 -14.0742  -8.8038  -3.2645  -2.3268  -2.2029  -2.1765

          k = 0.2500 0.2500 0.0000 (423766 PWs)   bands (ev):

   -23.7765 -14.0742 -14.0742  -8.8038  -3.2641  -2.3232  -2.2704  -2.0877

          k = 0.2500-0.5000 0.0000 (423782 PWs)   bands (ev):

   -23.7765 -14.0742 -14.0742  -8.8038  -3.2638  -2.3346  -2.2719  -2.1207

          k = 0.2500-0.2500 0.0000 (423766 PWs)   bands (ev):

   -23.7765 -14.0742 -14.0742  -8.8038  -3.2642  -2.3229  -2.2705  -2.0921

          k =-0.5000 0.0000 0.0000 (423542 PWs)   bands (ev):

   -23.7765 -14.0742 -14.0742  -8.8038  -3.2642  -2.3521  -2.1927  -2.1446

          k =-0.5000 0.2500 0.0000 (423782 PWs)   bands (ev):

   -23.7765 -14.0742 -14.0742  -8.8039  -3.2638  -2.3340  -2.2713  -2.1164

          k =-0.5000-0.5000 0.0000 (423708 PWs)   bands (ev):

   -23.7765 -14.0742 -14.0742  -8.8038  -3.2635  -2.3068  -2.3063  -2.1901

 ------ SPIN DOWN ----------


          k = 0.0000 0.0000 0.0000 (423701 PWs)   bands (ev):

   -23.7764 -14.0742 -14.0742  -8.8038  -3.2649  -2.2886  -2.2109  -2.2107

          k = 0.0000 0.2500 0.0000 (423725 PWs)   bands (ev):

   -23.7764 -14.0742 -14.0742  -8.8038  -3.2645  -2.3267  -2.2018  -2.1764

          k = 0.0000-0.5000 0.0000 (423542 PWs)   bands (ev):

   -23.7764 -14.0742 -14.0742  -8.8037  -3.2642  -2.3520  -2.1921  -2.1454

          k = 0.2500 0.0000 0.0000 (423725 PWs)   bands (ev):

   -23.7764 -14.0742 -14.0742  -8.8038  -3.2646  -2.3267  -2.2021  -2.1779

          k = 0.2500 0.2500 0.0000 (423766 PWs)   bands (ev):

   -23.7764 -14.0742 -14.0742  -8.8038  -3.2642  -2.3224  -2.2703  -2.0921

          k = 0.2500-0.5000 0.0000 (423782 PWs)   bands (ev):

   -23.7764 -14.0742 -14.0742  -8.8038  -3.2639  -2.3346  -2.2708  -2.1190

          k = 0.2500-0.2500 0.0000 (423766 PWs)   bands (ev):

   -23.7764 -14.0742 -14.0742  -8.8038  -3.2642  -2.3227  -2.2704  -2.0920

          k =-0.5000 0.0000 0.0000 (423542 PWs)   bands (ev):

   -23.7764 -14.0742 -14.0742  -8.8037  -3.2642  -2.3520  -2.1927  -2.1442

          k =-0.5000 0.2500 0.0000 (423782 PWs)   bands (ev):

   -23.7764 -14.0742 -14.0742  -8.8038  -3.2639  -2.3339  -2.2726  -2.1208

          k =-0.5000-0.5000 0.0000 (423708 PWs)   bands (ev):

   -23.7764 -14.0742 -14.0742  -8.8038  -3.2635  -2.3070  -2.3069  -2.1904

     the Fermi energy is    -7.3739 ev

!    total energy              =     -23.77588774 Ry
     estimated scf accuracy    <          2.0E-09 Ry
     smearing contrib. (-TS)   =       0.00000000 Ry
     internal energy E=F+TS    =     -23.77588774 Ry

     The total energy is F=E-TS. E is the sum of the following terms:
     one-electron contribution =     -61.57582110 Ry
     hartree contribution      =      31.05067877 Ry
     xc contribution           =      -7.58993989 Ry
     ewald contribution        =      12.70262662 Ry
     Dispersion Correction     =      -0.00036544 Ry
     electric field correction =       1.63693330 Ry

     total magnetization       =     0.00 Bohr mag/cell
     absolute magnetization    =     0.00 Bohr mag/cell

     convergence has been achieved in  15 iterations

     negative rho (up, down):  2.092E-04 2.092E-04

     Forces acting on atoms (cartesian axes, Ry/au):

     atom    1 type  1   force =     0.00000057   -0.00000011    0.01923223
     atom    2 type  2   force =    -0.00000014   -0.00414419   -0.00641033
     atom    3 type  2   force =    -0.00358905    0.00207221   -0.00641083
     atom    4 type  2   force =     0.00358862    0.00207209   -0.00641107

     Total force =     0.013222     Total SCF correction =     0.000020

     BFGS Geometry Optimization
     Energy error            =      0.0E+00
     Gradient error          =      6.4E-03

     number of scf cycles    =   1
     number of bfgs steps    =   0

     energy   new            =     -23.7758877398 Ry

     new trust radius        =       0.0076337468 bohr
     new conv_thr            =       0.0000000100 Ry


ATOMIC_POSITIONS (angstrom)
N            10.0000000000       10.0000000000        0.0000000000    0   0   0
H            10.0000007471       10.9550329445       -0.3515966449
H            10.8270819437        9.5224869973       -0.3516030110
H             9.1729187911        9.5224867758       -0.3516047686



     Writing output data file ./NH3_ESM_p25.save/
     NEW-OLD atomic charge density approx. for the potential

     negative rho (up, down):  2.094E-04 2.094E-04

     Adding external electric field
        E field amplitude [Ha a.u.]: -7.8812E-03
        Potential amp.       -0.5362 Ry
        Total length         34.0151 bohr

     Generating pointlists ...

     total cpu time spent up to now is      364.0 secs

     Self-consistent Calculation

     iteration #  1     ecut=    60.00 Ry     beta= 0.70
     CG style diagonalization
     ethr =  1.00E-06,  avg # of iterations =  2.5

     Threshold (ethr) on eigenvalues was too large:
     Diagonalizing with lowered threshold

     CG style diagonalization
     ethr =  5.67E-08,  avg # of iterations =  2.5

     negative rho (up, down):  2.094E-04 2.094E-04

     total cpu time spent up to now is      388.6 secs

     total energy              =     -23.77605832 Ry
     estimated scf accuracy    <       0.00000488 Ry

     total magnetization       =    -0.00 Bohr mag/cell
     absolute magnetization    =     0.00 Bohr mag/cell

     iteration #  2     ecut=    60.00 Ry     beta= 0.70
     CG style diagonalization
     ethr =  6.10E-08,  avg # of iterations =  3.5

     negative rho (up, down):  2.092E-04 2.092E-04

     total cpu time spent up to now is      407.2 secs

     total energy              =     -23.77605919 Ry
     estimated scf accuracy    <       0.00000121 Ry

     total magnetization       =    -0.00 Bohr mag/cell
     absolute magnetization    =     0.00 Bohr mag/cell

     iteration #  3     ecut=    60.00 Ry     beta= 0.70
     CG style diagonalization
     ethr =  1.51E-08,  avg # of iterations =  3.6

     negative rho (up, down):  2.093E-04 2.093E-04

     total cpu time spent up to now is      426.1 secs

     total energy              =     -23.77605963 Ry
     estimated scf accuracy    <       0.00000015 Ry

     total magnetization       =    -0.00 Bohr mag/cell
     absolute magnetization    =     0.00 Bohr mag/cell

     iteration #  4     ecut=    60.00 Ry     beta= 0.70
     CG style diagonalization
     ethr =  1.89E-09,  avg # of iterations =  3.4

     negative rho (up, down):  2.093E-04 2.093E-04

     Magnetic moment per site:
     atom:    1    charge:    1.3373    magn:    0.0000    constr:    0.0000
     atom:    2    charge:    0.4438    magn:   -0.0000    constr:    0.0000
     atom:    3    charge:    0.4437    magn:   -0.0000    constr:    0.0000
     atom:    4    charge:    0.4437    magn:   -0.0000    constr:    0.0000

     total cpu time spent up to now is      442.9 secs

     End of self-consistent calculation

 ------ SPIN UP ------------


          k = 0.0000 0.0000 0.0000 (423701 PWs)   bands (ev):

   -23.7950 -14.0724 -14.0724  -8.8190  -3.2620  -2.2883  -2.2099  -2.2097

          k = 0.0000 0.2500 0.0000 (423725 PWs)   bands (ev):

   -23.7950 -14.0724 -14.0724  -8.8190  -3.2617  -2.3262  -2.2009  -2.1784

          k = 0.0000-0.5000 0.0000 (423542 PWs)   bands (ev):

   -23.7950 -14.0724 -14.0724  -8.8190  -3.2613  -2.3509  -2.1910  -2.1461

          k = 0.2500 0.0000 0.0000 (423725 PWs)   bands (ev):

   -23.7950 -14.0724 -14.0724  -8.8190  -3.2617  -2.3264  -2.2018  -2.1762

          k = 0.2500 0.2500 0.0000 (423766 PWs)   bands (ev):

   -23.7950 -14.0724 -14.0724  -8.8190  -3.2613  -2.3228  -2.2696  -2.0871

          k = 0.2500-0.5000 0.0000 (423782 PWs)   bands (ev):

   -23.7950 -14.0724 -14.0724  -8.8190  -3.2610  -2.3340  -2.2712  -2.1205

          k = 0.2500-0.2500 0.0000 (423766 PWs)   bands (ev):

   -23.7950 -14.0724 -14.0724  -8.8190  -3.2613  -2.3226  -2.2697  -2.0913

          k =-0.5000 0.0000 0.0000 (423542 PWs)   bands (ev):

   -23.7950 -14.0724 -14.0724  -8.8190  -3.2613  -2.3516  -2.1915  -2.1445

          k =-0.5000 0.2500 0.0000 (423782 PWs)   bands (ev):

   -23.7950 -14.0724 -14.0724  -8.8190  -3.2610  -2.3336  -2.2707  -2.1166

          k =-0.5000-0.5000 0.0000 (423708 PWs)   bands (ev):

   -23.7950 -14.0724 -14.0724  -8.8190  -3.2606  -2.3061  -2.3057  -2.1901

 ------ SPIN DOWN ----------


          k = 0.0000 0.0000 0.0000 (423701 PWs)   bands (ev):

   -23.7950 -14.0724 -14.0724  -8.8190  -3.2620  -2.2884  -2.2098  -2.2096

          k = 0.0000 0.2500 0.0000 (423725 PWs)   bands (ev):

   -23.7950 -14.0724 -14.0724  -8.8190  -3.2617  -2.3263  -2.2007  -2.1765

          k = 0.0000-0.5000 0.0000 (423542 PWs)   bands (ev):

   -23.7950 -14.0724 -14.0724  -8.8190  -3.2613  -2.3515  -2.1909  -2.1453

          k = 0.2500 0.0000 0.0000 (423725 PWs)   bands (ev):

   -23.7950 -14.0724 -14.0724  -8.8190  -3.2617  -2.3263  -2.2011  -2.1774

          k = 0.2500 0.2500 0.0000 (423766 PWs)   bands (ev):

   -23.7950 -14.0724 -14.0724  -8.8190  -3.2613  -2.3221  -2.2695  -2.0913

          k = 0.2500-0.5000 0.0000 (423782 PWs)   bands (ev):

   -23.7950 -14.0724 -14.0724  -8.8190  -3.2610  -2.3340  -2.2703  -2.1189

          k = 0.2500-0.2500 0.0000 (423766 PWs)   bands (ev):

   -23.7950 -14.0724 -14.0724  -8.8190  -3.2613  -2.3224  -2.2697  -2.0912

          k =-0.5000 0.0000 0.0000 (423542 PWs)   bands (ev):

   -23.7950 -14.0724 -14.0724  -8.8190  -3.2613  -2.3515  -2.1915  -2.1442

          k =-0.5000 0.2500 0.0000 (423782 PWs)   bands (ev):

   -23.7950 -14.0724 -14.0724  -8.8190  -3.2610  -2.3335  -2.2718  -2.1207

          k =-0.5000-0.5000 0.0000 (423708 PWs)   bands (ev):

   -23.7950 -14.0724 -14.0724  -8.8190  -3.2606  -2.3063  -2.3061  -2.1903

     the Fermi energy is    -7.3781 ev

!    total energy              =     -23.77605966 Ry
     estimated scf accuracy    <          8.0E-10 Ry
     smearing contrib. (-TS)   =       0.00000000 Ry
     internal energy E=F+TS    =     -23.77605966 Ry

     The total energy is F=E-TS. E is the sum of the following terms:
     one-electron contribution =     -61.60576299 Ry
     hartree contribution      =      31.06520202 Ry
     xc contribution           =      -7.59246138 Ry
     ewald contribution        =      12.72068980 Ry
     Dispersion Correction     =      -0.00035726 Ry
     electric field correction =       1.63663016 Ry

     total magnetization       =     0.00 Bohr mag/cell
     absolute magnetization    =     0.00 Bohr mag/cell

     convergence has been achieved in   4 iterations

     negative rho (up, down):  2.093E-04 2.093E-04

     Forces acting on atoms (cartesian axes, Ry/au):

     atom    1 type  1   force =    -0.00000006   -0.00000014    0.01969487
     atom    2 type  2   force =    -0.00000010   -0.00219817   -0.00656476
     atom    3 type  2   force =    -0.00190392    0.00109905   -0.00656506
     atom    4 type  2   force =     0.00190409    0.00109926   -0.00656504

     Total force =     0.011991     Total SCF correction =     0.000004
     Energy error            =      1.7E-04
     Gradient error          =      6.6E-03

     number of scf cycles    =   2
     number of bfgs steps    =   1

     energy   old            =     -23.7758877398 Ry
     energy   new            =     -23.7760596595 Ry

     CASE: energy  _new < energy  _old


     WARNING: bfgs curvature condition failed, Theta= 0.911
     new trust radius        =       0.0083971214 bohr
     new conv_thr            =       0.0000000017 Ry


ATOMIC_POSITIONS (angstrom)
N            10.0000000000       10.0000000000        0.0000000000    0   0   0
H            10.0000006772       10.9532519167       -0.3556673466
H            10.8255394093        9.5233775204       -0.3556739405
H             9.1744613019        9.5233773599       -0.3556757382



     Writing output data file ./NH3_ESM_p25.save/
     NEW-OLD atomic charge density approx. for the potential

     negative rho (up, down):  2.094E-04 2.094E-04

     Adding external electric field
        E field amplitude [Ha a.u.]: -7.8812E-03
        Potential amp.       -0.5362 Ry
        Total length         34.0151 bohr

     Generating pointlists ...

     total cpu time spent up to now is      463.5 secs

     Self-consistent Calculation

     iteration #  1     ecut=    60.00 Ry     beta= 0.70
     CG style diagonalization
     ethr =  1.00E-06,  avg # of iterations =  2.5

     Threshold (ethr) on eigenvalues was too large:
     Diagonalizing with lowered threshold

     CG style diagonalization
     ethr =  4.94E-08,  avg # of iterations =  2.6

     negative rho (up, down):  2.093E-04 2.093E-04

     total cpu time spent up to now is      488.5 secs

     total energy              =     -23.77623458 Ry
     estimated scf accuracy    <       0.00000337 Ry

     total magnetization       =    -0.00 Bohr mag/cell
     absolute magnetization    =     0.00 Bohr mag/cell

     iteration #  2     ecut=    60.00 Ry     beta= 0.70
     CG style diagonalization
     ethr =  4.22E-08,  avg # of iterations =  3.1

     negative rho (up, down):  2.092E-04 2.092E-04

     total cpu time spent up to now is      506.4 secs

     total energy              =     -23.77623514 Ry
     estimated scf accuracy    <       0.00000033 Ry

     total magnetization       =     0.00 Bohr mag/cell
     absolute magnetization    =     0.00 Bohr mag/cell

     iteration #  3     ecut=    60.00 Ry     beta= 0.70
     CG style diagonalization
     ethr =  4.13E-09,  avg # of iterations =  3.4

     negative rho (up, down):  2.092E-04 2.092E-04

     total cpu time spent up to now is      524.9 secs

     total energy              =     -23.77623521 Ry
     estimated scf accuracy    <          8.2E-09 Ry

     total magnetization       =     0.00 Bohr mag/cell
     absolute magnetization    =     0.00 Bohr mag/cell

     iteration #  4     ecut=    60.00 Ry     beta= 0.70
     CG style diagonalization
     ethr =  1.02E-10,  avg # of iterations =  3.6

     negative rho (up, down):  2.092E-04 2.092E-04

     total cpu time spent up to now is      543.9 secs

     total energy              =     -23.77623521 Ry
     estimated scf accuracy    <          2.5E-09 Ry

     total magnetization       =     0.00 Bohr mag/cell
     absolute magnetization    =     0.00 Bohr mag/cell

     iteration #  5     ecut=    60.00 Ry     beta= 0.70
     CG style diagonalization
     ethr =  3.14E-11,  avg # of iterations =  3.6

     negative rho (up, down):  2.092E-04 2.092E-04

     Magnetic moment per site:
     atom:    1    charge:    1.3373    magn:    0.0000    constr:    0.0000
     atom:    2    charge:    0.4443    magn:   -0.0000    constr:    0.0000
     atom:    3    charge:    0.4441    magn:   -0.0000    constr:    0.0000
     atom:    4    charge:    0.4441    magn:   -0.0000    constr:    0.0000

     total cpu time spent up to now is      561.2 secs

     End of self-consistent calculation

 ------ SPIN UP ------------


          k = 0.0000 0.0000 0.0000 (423701 PWs)   bands (ev):

   -23.8085 -14.0651 -14.0651  -8.8358  -3.2609  -2.2883  -2.2090  -2.2087

          k = 0.0000 0.2500 0.0000 (423725 PWs)   bands (ev):

   -23.8085 -14.0651 -14.0651  -8.8358  -3.2605  -2.3259  -2.1999  -2.1780

          k = 0.0000-0.5000 0.0000 (423542 PWs)   bands (ev):

   -23.8085 -14.0651 -14.0651  -8.8358  -3.2601  -2.3506  -2.1899  -2.1461

          k = 0.2500 0.0000 0.0000 (423725 PWs)   bands (ev):

   -23.8085 -14.0651 -14.0651  -8.8358  -3.2605  -2.3260  -2.2008  -2.1760

          k = 0.2500 0.2500 0.0000 (423766 PWs)   bands (ev):

   -23.8085 -14.0651 -14.0651  -8.8358  -3.2601  -2.3224  -2.2690  -2.0867

          k = 0.2500-0.5000 0.0000 (423782 PWs)   bands (ev):

   -23.8085 -14.0651 -14.0651  -8.8358  -3.2598  -2.3335  -2.2706  -2.1204

          k = 0.2500-0.2500 0.0000 (423766 PWs)   bands (ev):

   -23.8085 -14.0651 -14.0651  -8.8358  -3.2601  -2.3222  -2.2690  -2.0906

          k =-0.5000 0.0000 0.0000 (423542 PWs)   bands (ev):

   -23.8085 -14.0651 -14.0651  -8.8358  -3.2601  -2.3511  -2.1904  -2.1445

          k =-0.5000 0.2500 0.0000 (423782 PWs)   bands (ev):

   -23.8085 -14.0651 -14.0651  -8.8358  -3.2598  -2.3331  -2.2702  -2.1168

          k =-0.5000-0.5000 0.0000 (423708 PWs)   bands (ev):

   -23.8085 -14.0651 -14.0651  -8.8358  -3.2594  -2.3055  -2.3052  -2.1901

 ------ SPIN DOWN ----------


          k = 0.0000 0.0000 0.0000 (423701 PWs)   bands (ev):

   -23.8085 -14.0651 -14.0651  -8.8358  -3.2609  -2.2884  -2.2089  -2.2086

          k = 0.0000 0.2500 0.0000 (423725 PWs)   bands (ev):

   -23.8085 -14.0651 -14.0651  -8.8358  -3.2605  -2.3260  -2.1998  -2.1764

          k = 0.0000-0.5000 0.0000 (423542 PWs)   bands (ev):

   -23.8085 -14.0651 -14.0651  -8.8358  -3.2601  -2.3511  -2.1899  -2.1453

          k = 0.2500 0.0000 0.0000 (423725 PWs)   bands (ev):

   -23.8085 -14.0651 -14.0651  -8.8358  -3.2605  -2.3260  -2.2003  -2.1770

          k = 0.2500 0.2500 0.0000 (423766 PWs)   bands (ev):

   -23.8085 -14.0651 -14.0651  -8.8358  -3.2601  -2.3218  -2.2689  -2.0906

          k = 0.2500-0.5000 0.0000 (423782 PWs)   bands (ev):

   -23.8085 -14.0651 -14.0651  -8.8358  -3.2598  -2.3335  -2.2699  -2.1189

          k = 0.2500-0.2500 0.0000 (423766 PWs)   bands (ev):

   -23.8085 -14.0651 -14.0651  -8.8358  -3.2601  -2.3221  -2.2690  -2.0905

          k =-0.5000 0.0000 0.0000 (423542 PWs)   bands (ev):

   -23.8085 -14.0651 -14.0651  -8.8358  -3.2601  -2.3510  -2.1905  -2.1442

          k =-0.5000 0.2500 0.0000 (423782 PWs)   bands (ev):

   -23.8085 -14.0651 -14.0651  -8.8358  -3.2598  -2.3331  -2.2711  -2.1205

          k =-0.5000-0.5000 0.0000 (423708 PWs)   bands (ev):

   -23.8085 -14.0651 -14.0651  -8.8358  -3.2594  -2.3056  -2.3055  -2.1901

     the Fermi energy is    -7.3811 ev

!    total energy              =     -23.77623521 Ry
     estimated scf accuracy    <          9.6E-11 Ry
     smearing contrib. (-TS)   =       0.00000000 Ry
     internal energy E=F+TS    =     -23.77623521 Ry

     The total energy is F=E-TS. E is the sum of the following terms:
     one-electron contribution =     -61.61748001 Ry
     hartree contribution      =      31.07049352 Ry
     xc contribution           =      -7.59334434 Ry
     ewald contribution        =      12.72818000 Ry
     Dispersion Correction     =      -0.00035076 Ry
     electric field correction =       1.63626638 Ry

     total magnetization       =    -0.00 Bohr mag/cell
     absolute magnetization    =     0.00 Bohr mag/cell

     convergence has been achieved in   5 iterations

     negative rho (up, down):  2.092E-04 2.092E-04

     Forces acting on atoms (cartesian axes, Ry/au):

     atom    1 type  1   force =    -0.00000011   -0.00000019    0.01919291
     atom    2 type  2   force =    -0.00000007   -0.00113518   -0.00639745
     atom    3 type  2   force =    -0.00098330    0.00056759   -0.00639775
     atom    4 type  2   force =     0.00098348    0.00056778   -0.00639771

     Total force =     0.011254     Total SCF correction =     0.000004
     Energy error            =      1.8E-04
     Gradient error          =      6.4E-03

     number of scf cycles    =   3
     number of bfgs steps    =   2

     energy   old            =     -23.7760596595 Ry
     energy   new            =     -23.7762352139 Ry

     CASE: energy  _new < energy  _old

     new trust radius        =       0.0125956821 bohr
     new conv_thr            =       0.0000000016 Ry


ATOMIC_POSITIONS (angstrom)
N            10.0000000000       10.0000000000        0.0000000000    0   0   0
H            10.0000005826       10.9510771188       -0.3619674208
H            10.8236558379        9.5244649752       -0.3619743940
H             9.1763447990        9.5244648693       -0.3619762640



     Writing output data file ./NH3_ESM_p25.save/
     NEW-OLD atomic charge density approx. for the potential

     negative rho (up, down):  2.094E-04 2.094E-04

     Adding external electric field
        E field amplitude [Ha a.u.]: -7.8812E-03
        Potential amp.       -0.5362 Ry
        Total length         34.0151 bohr

     Generating pointlists ...

     total cpu time spent up to now is      582.1 secs

     Self-consistent Calculation

     iteration #  1     ecut=    60.00 Ry     beta= 0.70
     CG style diagonalization
     ethr =  1.00E-06,  avg # of iterations =  2.6

     negative rho (up, down):  2.089E-04 2.089E-04

     total cpu time spent up to now is      599.4 secs

     total energy              =     -23.77647150 Ry
     estimated scf accuracy    <       0.00000960 Ry

     total magnetization       =    -0.00 Bohr mag/cell
     absolute magnetization    =     0.00 Bohr mag/cell

     iteration #  2     ecut=    60.00 Ry     beta= 0.70
     CG style diagonalization
     ethr =  1.20E-07,  avg # of iterations =  3.9

     negative rho (up, down):  2.090E-04 2.090E-04

     total cpu time spent up to now is      618.7 secs

     total energy              =     -23.77647775 Ry
     estimated scf accuracy    <       0.00000070 Ry

     total magnetization       =     0.00 Bohr mag/cell
     absolute magnetization    =     0.00 Bohr mag/cell

     iteration #  3     ecut=    60.00 Ry     beta= 0.70
     CG style diagonalization
     ethr =  8.74E-09,  avg # of iterations =  3.6

     negative rho (up, down):  2.090E-04 2.090E-04

     total cpu time spent up to now is      637.5 secs

     total energy              =     -23.77647797 Ry
     estimated scf accuracy    <       0.00000026 Ry

     total magnetization       =    -0.00 Bohr mag/cell
     absolute magnetization    =     0.00 Bohr mag/cell

     iteration #  4     ecut=    60.00 Ry     beta= 0.70
     CG style diagonalization
     ethr =  3.30E-09,  avg # of iterations =  3.4

     negative rho (up, down):  2.090E-04 2.090E-04

     total cpu time spent up to now is      656.1 secs

     total energy              =     -23.77647803 Ry
     estimated scf accuracy    <       0.00000001 Ry

     total magnetization       =    -0.00 Bohr mag/cell
     absolute magnetization    =     0.00 Bohr mag/cell

     iteration #  5     ecut=    60.00 Ry     beta= 0.70
     CG style diagonalization
     ethr =  1.32E-10,  avg # of iterations =  3.9

     negative rho (up, down):  2.090E-04 2.090E-04

     Magnetic moment per site:
     atom:    1    charge:    1.3370    magn:    0.0000    constr:    0.0000
     atom:    2    charge:    0.4445    magn:   -0.0000    constr:    0.0000
     atom:    3    charge:    0.4442    magn:   -0.0000    constr:    0.0000
     atom:    4    charge:    0.4442    magn:   -0.0000    constr:    0.0000

     total cpu time spent up to now is      673.9 secs

     End of self-consistent calculation

 ------ SPIN UP ------------


          k = 0.0000 0.0000 0.0000 (423701 PWs)   bands (ev):

   -23.8227 -14.0497 -14.0497  -8.8607  -3.2606  -2.2883  -2.2077  -2.2075

          k = 0.0000 0.2500 0.0000 (423725 PWs)   bands (ev):

   -23.8227 -14.0497 -14.0497  -8.8607  -3.2602  -2.3255  -2.1986  -2.1776

          k = 0.0000-0.5000 0.0000 (423542 PWs)   bands (ev):

   -23.8227 -14.0497 -14.0497  -8.8607  -3.2598  -2.3500  -2.1886  -2.1460

          k = 0.2500 0.0000 0.0000 (423725 PWs)   bands (ev):

   -23.8227 -14.0497 -14.0497  -8.8607  -3.2602  -2.3255  -2.1995  -2.1756

          k = 0.2500 0.2500 0.0000 (423766 PWs)   bands (ev):

   -23.8227 -14.0497 -14.0497  -8.8607  -3.2599  -2.3219  -2.2680  -2.0860

          k = 0.2500-0.5000 0.0000 (423782 PWs)   bands (ev):

   -23.8227 -14.0497 -14.0497  -8.8607  -3.2595  -2.3328  -2.2698  -2.1201

          k = 0.2500-0.2500 0.0000 (423766 PWs)   bands (ev):

   -23.8227 -14.0497 -14.0497  -8.8607  -3.2599  -2.3217  -2.2681  -2.0897

          k =-0.5000 0.0000 0.0000 (423542 PWs)   bands (ev):

   -23.8227 -14.0497 -14.0497  -8.8607  -3.2598  -2.3504  -2.1891  -2.1445

          k =-0.5000 0.2500 0.0000 (423782 PWs)   bands (ev):

   -23.8227 -14.0497 -14.0497  -8.8607  -3.2595  -2.3325  -2.2694  -2.1167

          k =-0.5000-0.5000 0.0000 (423708 PWs)   bands (ev):

   -23.8227 -14.0497 -14.0497  -8.8607  -3.2592  -2.3046  -2.3044  -2.1899

 ------ SPIN DOWN ----------


          k = 0.0000 0.0000 0.0000 (423701 PWs)   bands (ev):

   -23.8227 -14.0497 -14.0497  -8.8607  -3.2606  -2.2883  -2.2077  -2.2074

          k = 0.0000 0.2500 0.0000 (423725 PWs)   bands (ev):

   -23.8227 -14.0497 -14.0497  -8.8607  -3.2602  -2.3255  -2.1985  -2.1761

          k = 0.0000-0.5000 0.0000 (423542 PWs)   bands (ev):

   -23.8227 -14.0497 -14.0497  -8.8607  -3.2598  -2.3504  -2.1885  -2.1453

          k = 0.2500 0.0000 0.0000 (423725 PWs)   bands (ev):

   -23.8227 -14.0497 -14.0497  -8.8607  -3.2602  -2.3255  -2.1991  -2.1766

          k = 0.2500 0.2500 0.0000 (423766 PWs)   bands (ev):

   -23.8227 -14.0497 -14.0497  -8.8607  -3.2599  -2.3214  -2.2680  -2.0898

          k = 0.2500-0.5000 0.0000 (423782 PWs)   bands (ev):

   -23.8227 -14.0497 -14.0497  -8.8607  -3.2595  -2.3328  -2.2691  -2.1187

          k = 0.2500-0.2500 0.0000 (423766 PWs)   bands (ev):

   -23.8227 -14.0497 -14.0497  -8.8607  -3.2599  -2.3216  -2.2680  -2.0897

          k =-0.5000 0.0000 0.0000 (423542 PWs)   bands (ev):

   -23.8227 -14.0497 -14.0497  -8.8607  -3.2598  -2.3504  -2.1891  -2.1442

          k =-0.5000 0.2500 0.0000 (423782 PWs)   bands (ev):

   -23.8227 -14.0497 -14.0497  -8.8607  -3.2595  -2.3325  -2.2702  -2.1202

          k =-0.5000-0.5000 0.0000 (423708 PWs)   bands (ev):

   -23.8227 -14.0497 -14.0497  -8.8607  -3.2592  -2.3047  -2.3046  -2.1899

     the Fermi energy is    -7.3841 ev

!    total energy              =     -23.77647804 Ry
     estimated scf accuracy    <          1.2E-09 Ry
     smearing contrib. (-TS)   =       0.00000000 Ry
     internal energy E=F+TS    =     -23.77647804 Ry

     The total energy is F=E-TS. E is the sum of the following terms:
     one-electron contribution =     -61.61889184 Ry
     hartree contribution      =      31.07062236 Ry
     xc contribution           =      -7.59327647 Ry
     ewald contribution        =      12.72970751 Ry
     Dispersion Correction     =      -0.00034299 Ry
     electric field correction =       1.63570339 Ry

     total magnetization       =    -0.00 Bohr mag/cell
     absolute magnetization    =     0.00 Bohr mag/cell

     convergence has been achieved in   5 iterations

     negative rho (up, down):  2.090E-04 2.090E-04

     Forces acting on atoms (cartesian axes, Ry/au):

     atom    1 type  1   force =    -0.00000025   -0.00000098    0.01758495
     atom    2 type  2   force =    -0.00000004   -0.00043784   -0.00586157
     atom    3 type  2   force =    -0.00037974    0.00021930   -0.00586174
     atom    4 type  2   force =     0.00038002    0.00021951   -0.00586164

     Total force =     0.010181     Total SCF correction =     0.000017
     Energy error            =      2.4E-04
     Gradient error          =      5.9E-03

     number of scf cycles    =   4
     number of bfgs steps    =   3

     energy   old            =     -23.7762352139 Ry
     energy   new            =     -23.7764780396 Ry

     CASE: energy  _new < energy  _old

     new trust radius        =       0.0188935232 bohr
     new conv_thr            =       0.0000000015 Ry


ATOMIC_POSITIONS (angstrom)
N            10.0000000000       10.0000000000        0.0000000000    0   0   0
H            10.0000004594       10.9481407794       -0.3715237524
H            10.8211123638        9.5259335684       -0.3715312234
H             9.1788882338        9.5259335631       -0.3715331631



     Writing output data file ./NH3_ESM_p25.save/
     NEW-OLD atomic charge density approx. for the potential

     negative rho (up, down):  2.091E-04 2.091E-04

     Adding external electric field
        E field amplitude [Ha a.u.]: -7.8812E-03
        Potential amp.       -0.5362 Ry
        Total length         34.0151 bohr

     Generating pointlists ...

     total cpu time spent up to now is      694.7 secs

     Self-consistent Calculation

     iteration #  1     ecut=    60.00 Ry     beta= 0.70
     CG style diagonalization
     ethr =  1.00E-06,  avg # of iterations =  3.4

     negative rho (up, down):  2.085E-04 2.085E-04

     total cpu time spent up to now is      713.4 secs

     total energy              =     -23.77678330 Ry
     estimated scf accuracy    <       0.00002312 Ry

     total magnetization       =    -0.00 Bohr mag/cell
     absolute magnetization    =     0.00 Bohr mag/cell

     iteration #  2     ecut=    60.00 Ry     beta= 0.70
     CG style diagonalization
     ethr =  2.89E-07,  avg # of iterations =  3.5

     negative rho (up, down):  2.087E-04 2.087E-04

     total cpu time spent up to now is      732.0 secs

     total energy              =     -23.77679153 Ry
     estimated scf accuracy    <       0.00000293 Ry

     total magnetization       =    -0.00 Bohr mag/cell
     absolute magnetization    =     0.00 Bohr mag/cell

     iteration #  3     ecut=    60.00 Ry     beta= 0.70
     CG style diagonalization
     ethr =  3.66E-08,  avg # of iterations =  3.4

     negative rho (up, down):  2.086E-04 2.086E-04

     total cpu time spent up to now is      750.5 secs

     total energy              =     -23.77679239 Ry
     estimated scf accuracy    <       0.00000075 Ry

     total magnetization       =    -0.00 Bohr mag/cell
     absolute magnetization    =     0.00 Bohr mag/cell

     iteration #  4     ecut=    60.00 Ry     beta= 0.70
     CG style diagonalization
     ethr =  9.34E-09,  avg # of iterations =  3.6

     negative rho (up, down):  2.086E-04 2.086E-04

     total cpu time spent up to now is      769.5 secs

     total energy              =     -23.77679260 Ry
     estimated scf accuracy    <          8.1E-09 Ry

     total magnetization       =    -0.00 Bohr mag/cell
     absolute magnetization    =     0.00 Bohr mag/cell

     iteration #  5     ecut=    60.00 Ry     beta= 0.70
     CG style diagonalization
     ethr =  1.01E-10,  avg # of iterations =  3.9

     negative rho (up, down):  2.086E-04 2.086E-04

     total cpu time spent up to now is      789.0 secs

     total energy              =     -23.77679262 Ry
     estimated scf accuracy    <          2.2E-09 Ry

     total magnetization       =     0.00 Bohr mag/cell
     absolute magnetization    =     0.00 Bohr mag/cell

     iteration #  6     ecut=    60.00 Ry     beta= 0.70
     CG style diagonalization
     ethr =  2.79E-11,  avg # of iterations =  3.5

     negative rho (up, down):  2.086E-04 2.086E-04

     Magnetic moment per site:
     atom:    1    charge:    1.3363    magn:    0.0000    constr:    0.0000
     atom:    2    charge:    0.4443    magn:    0.0000    constr:    0.0000
     atom:    3    charge:    0.4439    magn:    0.0000    constr:    0.0000
     atom:    4    charge:    0.4439    magn:    0.0000    constr:    0.0000

     total cpu time spent up to now is      806.0 secs

     End of self-consistent calculation

 ------ SPIN UP ------------


          k = 0.0000 0.0000 0.0000 (423701 PWs)   bands (ev):

   -23.8395 -14.0229 -14.0229  -8.8979  -3.2612  -2.2883  -2.2059  -2.2057

          k = 0.0000 0.2500 0.0000 (423725 PWs)   bands (ev):

   -23.8395 -14.0229 -14.0229  -8.8979  -3.2608  -2.3248  -2.1968  -2.1769

          k = 0.0000-0.5000 0.0000 (423542 PWs)   bands (ev):

   -23.8395 -14.0229 -14.0229  -8.8979  -3.2605  -2.3491  -2.1866  -2.1460

          k = 0.2500 0.0000 0.0000 (423725 PWs)   bands (ev):

   -23.8395 -14.0229 -14.0229  -8.8979  -3.2608  -2.3248  -2.1977  -2.1751

          k = 0.2500 0.2500 0.0000 (423766 PWs)   bands (ev):

   -23.8395 -14.0229 -14.0229  -8.8979  -3.2605  -2.3211  -2.2667  -2.0851

          k = 0.2500-0.5000 0.0000 (423782 PWs)   bands (ev):

   -23.8395 -14.0229 -14.0229  -8.8979  -3.2601  -2.3318  -2.2686  -2.1195

          k = 0.2500-0.2500 0.0000 (423766 PWs)   bands (ev):

   -23.8395 -14.0229 -14.0229  -8.8979  -3.2605  -2.3210  -2.2667  -2.0885

          k =-0.5000 0.0000 0.0000 (423542 PWs)   bands (ev):

   -23.8395 -14.0229 -14.0229  -8.8979  -3.2605  -2.3495  -2.1871  -2.1445

          k =-0.5000 0.2500 0.0000 (423782 PWs)   bands (ev):

   -23.8395 -14.0229 -14.0229  -8.8979  -3.2601  -2.3315  -2.2683  -2.1165

          k =-0.5000-0.5000 0.0000 (423708 PWs)   bands (ev):

   -23.8395 -14.0229 -14.0229  -8.8979  -3.2598  -2.3034  -2.3032  -2.1896

 ------ SPIN DOWN ----------


          k = 0.0000 0.0000 0.0000 (423701 PWs)   bands (ev):

   -23.8395 -14.0229 -14.0229  -8.8979  -3.2612  -2.2883  -2.2059  -2.2056

          k = 0.0000 0.2500 0.0000 (423725 PWs)   bands (ev):

   -23.8395 -14.0229 -14.0229  -8.8979  -3.2608  -2.3248  -2.1967  -2.1757

          k = 0.0000-0.5000 0.0000 (423542 PWs)   bands (ev):

   -23.8395 -14.0229 -14.0229  -8.8979  -3.2605  -2.3495  -2.1866  -2.1454

          k = 0.2500 0.0000 0.0000 (423725 PWs)   bands (ev):

   -23.8395 -14.0229 -14.0229  -8.8979  -3.2608  -2.3248  -2.1974  -2.1759

          k = 0.2500 0.2500 0.0000 (423766 PWs)   bands (ev):

   -23.8395 -14.0229 -14.0229  -8.8979  -3.2605  -2.3207  -2.2666  -2.0885

          k = 0.2500-0.5000 0.0000 (423782 PWs)   bands (ev):

   -23.8395 -14.0229 -14.0229  -8.8979  -3.2601  -2.3317  -2.2680  -2.1183

          k = 0.2500-0.2500 0.0000 (423766 PWs)   bands (ev):

   -23.8395 -14.0229 -14.0229  -8.8979  -3.2605  -2.3209  -2.2667  -2.0884

          k =-0.5000 0.0000 0.0000 (423542 PWs)   bands (ev):

   -23.8395 -14.0229 -14.0229  -8.8979  -3.2605  -2.3494  -2.1872  -2.1443

          k =-0.5000 0.2500 0.0000 (423782 PWs)   bands (ev):

   -23.8395 -14.0229 -14.0229  -8.8979  -3.2601  -2.3315  -2.2689  -2.1197

          k =-0.5000-0.5000 0.0000 (423708 PWs)   bands (ev):

   -23.8395 -14.0229 -14.0229  -8.8979  -3.2598  -2.3035  -2.3033  -2.1896

     the Fermi energy is    -7.3876 ev

!    total energy              =     -23.77679262 Ry
     estimated scf accuracy    <          1.1E-10 Ry
     smearing contrib. (-TS)   =       0.00000000 Ry
     internal energy E=F+TS    =     -23.77679262 Ry

     The total energy is F=E-TS. E is the sum of the following terms:
     one-electron contribution =     -61.60887930 Ry
     hartree contribution      =      31.06476537 Ry
     xc contribution           =      -7.59208762 Ry
     ewald contribution        =      12.72489230 Ry
     Dispersion Correction     =      -0.00033278 Ry
     electric field correction =       1.63484940 Ry

     total magnetization       =     0.00 Bohr mag/cell
     absolute magnetization    =     0.00 Bohr mag/cell

     convergence has been achieved in   6 iterations

     negative rho (up, down):  2.086E-04 2.086E-04

     Forces acting on atoms (cartesian axes, Ry/au):

     atom    1 type  1   force =    -0.00000031    0.00000012    0.01446805
     atom    2 type  2   force =    -0.00000000   -0.00000658   -0.00482246
     atom    3 type  2   force =    -0.00000543    0.00000314   -0.00482287
     atom    4 type  2   force =     0.00000574    0.00000332   -0.00482273

     Total force =     0.008353     Total SCF correction =     0.000005
     Energy error            =      3.1E-04
     Gradient error          =      4.8E-03

     number of scf cycles    =   5
     number of bfgs steps    =   4

     energy   old            =     -23.7764780396 Ry
     energy   new            =     -23.7767926196 Ry

     CASE: energy  _new < energy  _old

     new trust radius        =       0.0283402848 bohr
     new conv_thr            =       0.0000000012 Ry


ATOMIC_POSITIONS (angstrom)
N            10.0000000000       10.0000000000        0.0000000000    0   0   0
H            10.0000003017       10.9439551971       -0.3859237155
H            10.8174874620        9.5280265443       -0.3859322040
H             9.1825131274        9.5280266864       -0.3859342039



     Writing output data file ./NH3_ESM_p25.save/
     NEW-OLD atomic charge density approx. for the potential

     negative rho (up, down):  2.087E-04 2.087E-04

     Adding external electric field
        E field amplitude [Ha a.u.]: -7.8812E-03
        Potential amp.       -0.5362 Ry
        Total length         34.0151 bohr

     Generating pointlists ...

     total cpu time spent up to now is      827.1 secs

     Self-consistent Calculation

     iteration #  1     ecut=    60.00 Ry     beta= 0.70
     CG style diagonalization
     ethr =  1.00E-06,  avg # of iterations =  3.7

     negative rho (up, down):  2.077E-04 2.077E-04

     total cpu time spent up to now is      846.5 secs

     total energy              =     -23.77711990 Ry
     estimated scf accuracy    <       0.00005467 Ry

     total magnetization       =    -0.00 Bohr mag/cell
     absolute magnetization    =     0.00 Bohr mag/cell

     iteration #  2     ecut=    60.00 Ry     beta= 0.70
     CG style diagonalization
     ethr =  6.83E-07,  avg # of iterations =  3.5

     negative rho (up, down):  2.081E-04 2.081E-04

     total cpu time spent up to now is      865.1 secs

     total energy              =     -23.77713810 Ry
     estimated scf accuracy    <       0.00000801 Ry

     total magnetization       =     0.00 Bohr mag/cell
     absolute magnetization    =     0.00 Bohr mag/cell

     iteration #  3     ecut=    60.00 Ry     beta= 0.70
     CG style diagonalization
     ethr =  1.00E-07,  avg # of iterations =  3.4

     negative rho (up, down):  2.080E-04 2.080E-04

     total cpu time spent up to now is      883.5 secs

     total energy              =     -23.77714085 Ry
     estimated scf accuracy    <       0.00000163 Ry

     total magnetization       =    -0.00 Bohr mag/cell
     absolute magnetization    =     0.00 Bohr mag/cell

     iteration #  4     ecut=    60.00 Ry     beta= 0.70
     CG style diagonalization
     ethr =  2.03E-08,  avg # of iterations =  3.5

     negative rho (up, down):  2.080E-04 2.080E-04

     total cpu time spent up to now is      902.3 secs

     total energy              =     -23.77714132 Ry
     estimated scf accuracy    <       0.00000001 Ry

     total magnetization       =     0.00 Bohr mag/cell
     absolute magnetization    =     0.00 Bohr mag/cell

     iteration #  5     ecut=    60.00 Ry     beta= 0.70
     CG style diagonalization
     ethr =  1.59E-10,  avg # of iterations =  4.0

     negative rho (up, down):  2.080E-04 2.080E-04

     total cpu time spent up to now is      922.2 secs

     total energy              =     -23.77714135 Ry
     estimated scf accuracy    <          5.8E-09 Ry

     total magnetization       =     0.00 Bohr mag/cell
     absolute magnetization    =     0.00 Bohr mag/cell

     iteration #  6     ecut=    60.00 Ry     beta= 0.70
     CG style diagonalization
     ethr =  7.22E-11,  avg # of iterations =  3.5

     negative rho (up, down):  2.080E-04 2.080E-04

     Magnetic moment per site:
     atom:    1    charge:    1.3350    magn:   -0.0000    constr:    0.0000
     atom:    2    charge:    0.4434    magn:    0.0000    constr:    0.0000
     atom:    3    charge:    0.4434    magn:    0.0000    constr:    0.0000
     atom:    4    charge:    0.4434    magn:    0.0000    constr:    0.0000

     total cpu time spent up to now is      939.3 secs

     End of self-consistent calculation

 ------ SPIN UP ------------


          k = 0.0000 0.0000 0.0000 (423701 PWs)   bands (ev):

   -23.8615 -13.9791 -13.9791  -8.9553  -3.2635  -2.2883  -2.2035  -2.2032

          k = 0.0000 0.2500 0.0000 (423725 PWs)   bands (ev):

   -23.8615 -13.9791 -13.9791  -8.9553  -3.2631  -2.3238  -2.1942  -2.1761

          k = 0.0000-0.5000 0.0000 (423542 PWs)   bands (ev):

   -23.8615 -13.9791 -13.9791  -8.9553  -3.2627  -2.3478  -2.1839  -2.1461

          k = 0.2500 0.0000 0.0000 (423725 PWs)   bands (ev):

   -23.8615 -13.9791 -13.9791  -8.9553  -3.2631  -2.3238  -2.1952  -2.1742

          k = 0.2500 0.2500 0.0000 (423766 PWs)   bands (ev):

   -23.8615 -13.9791 -13.9791  -8.9553  -3.2628  -2.3200  -2.2648  -2.0837

          k = 0.2500-0.5000 0.0000 (423782 PWs)   bands (ev):

   -23.8615 -13.9791 -13.9791  -8.9553  -3.2624  -2.3303  -2.2668  -2.1187

          k = 0.2500-0.2500 0.0000 (423766 PWs)   bands (ev):

   -23.8615 -13.9791 -13.9791  -8.9553  -3.2628  -2.3199  -2.2648  -2.0867

          k =-0.5000 0.0000 0.0000 (423542 PWs)   bands (ev):

   -23.8615 -13.9791 -13.9791  -8.9553  -3.2627  -2.3481  -2.1844  -2.1447

          k =-0.5000 0.2500 0.0000 (423782 PWs)   bands (ev):

   -23.8615 -13.9791 -13.9791  -8.9553  -3.2624  -2.3301  -2.2666  -2.1159

          k =-0.5000-0.5000 0.0000 (423708 PWs)   bands (ev):

   -23.8615 -13.9791 -13.9791  -8.9553  -3.2621  -2.3016  -2.3014  -2.1891

 ------ SPIN DOWN ----------


          k = 0.0000 0.0000 0.0000 (423701 PWs)   bands (ev):

   -23.8615 -13.9791 -13.9791  -8.9553  -3.2635  -2.2883  -2.2034  -2.2031

          k = 0.0000 0.2500 0.0000 (423725 PWs)   bands (ev):

   -23.8615 -13.9791 -13.9791  -8.9553  -3.2631  -2.3238  -2.1941  -2.1750

          k = 0.0000-0.5000 0.0000 (423542 PWs)   bands (ev):

   -23.8615 -13.9791 -13.9791  -8.9553  -3.2628  -2.3481  -2.1839  -2.1455

          k = 0.2500 0.0000 0.0000 (423725 PWs)   bands (ev):

   -23.8615 -13.9791 -13.9791  -8.9553  -3.2631  -2.3238  -2.1949  -2.1750

          k = 0.2500 0.2500 0.0000 (423766 PWs)   bands (ev):

   -23.8615 -13.9791 -13.9791  -8.9553  -3.2628  -2.3197  -2.2647  -2.0868

          k = 0.2500-0.5000 0.0000 (423782 PWs)   bands (ev):

   -23.8615 -13.9791 -13.9791  -8.9553  -3.2624  -2.3303  -2.2663  -2.1176

          k = 0.2500-0.2500 0.0000 (423766 PWs)   bands (ev):

   -23.8615 -13.9791 -13.9791  -8.9553  -3.2628  -2.3198  -2.2648  -2.0867

          k =-0.5000 0.0000 0.0000 (423542 PWs)   bands (ev):

   -23.8615 -13.9791 -13.9791  -8.9553  -3.2628  -2.3481  -2.1844  -2.1445

          k =-0.5000 0.2500 0.0000 (423782 PWs)   bands (ev):

   -23.8615 -13.9791 -13.9791  -8.9553  -3.2624  -2.3301  -2.2672  -2.1189

          k =-0.5000-0.5000 0.0000 (423708 PWs)   bands (ev):

   -23.8615 -13.9791 -13.9791  -8.9553  -3.2621  -2.3017  -2.3015  -2.1891

     the Fermi energy is    -7.3921 ev

!    total energy              =     -23.77714135 Ry
     estimated scf accuracy    <          2.6E-10 Ry
     smearing contrib. (-TS)   =       0.00000000 Ry
     internal energy E=F+TS    =     -23.77714135 Ry

     The total energy is F=E-TS. E is the sum of the following terms:
     one-electron contribution =     -61.58259217 Ry
     hartree contribution      =      31.05044736 Ry
     xc contribution           =      -7.58928530 Ry
     ewald contribution        =      12.71104496 Ry
     Dispersion Correction     =      -0.00031876 Ry
     electric field correction =       1.63356256 Ry

     total magnetization       =    -0.00 Bohr mag/cell
     absolute magnetization    =     0.00 Bohr mag/cell

     convergence has been achieved in   6 iterations

     negative rho (up, down):  2.080E-04 2.080E-04

     Forces acting on atoms (cartesian axes, Ry/au):

     atom    1 type  1   force =    -0.00000034   -0.00000075    0.00888781
     atom    2 type  2   force =     0.00000005    0.00013122   -0.00296253
     atom    3 type  2   force =     0.00011346   -0.00006529   -0.00296272
     atom    4 type  2   force =    -0.00011317   -0.00006518   -0.00296256

     Total force =     0.005136     Total SCF correction =     0.000005
     Energy error            =      3.5E-04
     Gradient error          =      3.0E-03

     number of scf cycles    =   6
     number of bfgs steps    =   5

     energy   old            =     -23.7767926196 Ry
     energy   new            =     -23.7771413503 Ry

     CASE: energy  _new < energy  _old

     new trust radius        =       0.0425104272 bohr
     new conv_thr            =       0.0000000008 Ry


ATOMIC_POSITIONS (angstrom)
N            10.0000000000       10.0000000000        0.0000000000    0   0   0
H            10.0000001318       10.9377912073       -0.4075565306
H            10.8121487229        9.5311093604       -0.4075664781
H             9.1878519689        9.5311097125       -0.4075684697



     Writing output data file ./NH3_ESM_p25.save/
     NEW-OLD atomic charge density approx. for the potential

     negative rho (up, down):  2.079E-04 2.079E-04

     Adding external electric field
        E field amplitude [Ha a.u.]: -7.8812E-03
        Potential amp.       -0.5362 Ry
        Total length         34.0151 bohr

     Generating pointlists ...

     total cpu time spent up to now is      960.4 secs

     Self-consistent Calculation

     iteration #  1     ecut=    60.00 Ry     beta= 0.70
     CG style diagonalization
     ethr =  1.00E-06,  avg # of iterations =  4.7

     negative rho (up, down):  2.064E-04 2.064E-04

     total cpu time spent up to now is      981.7 secs

     total energy              =     -23.77732226 Ry
     estimated scf accuracy    <       0.00013924 Ry

     total magnetization       =     0.00 Bohr mag/cell
     absolute magnetization    =     0.00 Bohr mag/cell

     iteration #  2     ecut=    60.00 Ry     beta= 0.70
     CG style diagonalization
     ethr =  1.74E-06,  avg # of iterations =  3.5

     negative rho (up, down):  2.074E-04 2.074E-04

     total cpu time spent up to now is     1000.5 secs

     total energy              =     -23.77733324 Ry
     estimated scf accuracy    <       0.00004959 Ry

     total magnetization       =    -0.00 Bohr mag/cell
     absolute magnetization    =     0.00 Bohr mag/cell

     iteration #  3     ecut=    60.00 Ry     beta= 0.70
     CG style diagonalization
     ethr =  6.20E-07,  avg # of iterations =  3.5

     negative rho (up, down):  2.071E-04 2.071E-04

     total cpu time spent up to now is     1019.2 secs

     total energy              =     -23.77735348 Ry
     estimated scf accuracy    <       0.00000370 Ry

     total magnetization       =     0.00 Bohr mag/cell
     absolute magnetization    =     0.00 Bohr mag/cell

     iteration #  4     ecut=    60.00 Ry     beta= 0.70
     CG style diagonalization
     ethr =  4.63E-08,  avg # of iterations =  3.2

     negative rho (up, down):  2.070E-04 2.070E-04

     total cpu time spent up to now is     1037.4 secs

     total energy              =     -23.77735380 Ry
     estimated scf accuracy    <       0.00000027 Ry

     total magnetization       =    -0.00 Bohr mag/cell
     absolute magnetization    =     0.00 Bohr mag/cell

     iteration #  5     ecut=    60.00 Ry     beta= 0.70
     CG style diagonalization
     ethr =  3.36E-09,  avg # of iterations =  3.5

     negative rho (up, down):  2.070E-04 2.070E-04

     total cpu time spent up to now is     1056.3 secs

     total energy              =     -23.77735387 Ry
     estimated scf accuracy    <       0.00000003 Ry

     total magnetization       =     0.00 Bohr mag/cell
     absolute magnetization    =     0.00 Bohr mag/cell

     iteration #  6     ecut=    60.00 Ry     beta= 0.70
     CG style diagonalization
     ethr =  3.72E-10,  avg # of iterations =  3.5

     negative rho (up, down):  2.070E-04 2.070E-04

     total cpu time spent up to now is     1075.3 secs

     total energy              =     -23.77735388 Ry
     estimated scf accuracy    <          5.4E-09 Ry

     total magnetization       =    -0.00 Bohr mag/cell
     absolute magnetization    =     0.00 Bohr mag/cell

     iteration #  7     ecut=    60.00 Ry     beta= 0.70
     CG style diagonalization
     ethr =  6.74E-11,  avg # of iterations =  4.2

     negative rho (up, down):  2.070E-04 2.070E-04

     total cpu time spent up to now is     1095.7 secs

     total energy              =     -23.77735389 Ry
     estimated scf accuracy    <       0.00000002 Ry

     total magnetization       =    -0.00 Bohr mag/cell
     absolute magnetization    =     0.00 Bohr mag/cell

     iteration #  8     ecut=    60.00 Ry     beta= 0.70
     CG style diagonalization
     ethr =  6.74E-11,  avg # of iterations =  3.0

     negative rho (up, down):  2.070E-04 2.070E-04

     total cpu time spent up to now is     1113.8 secs

     total energy              =     -23.77735388 Ry
     estimated scf accuracy    <       0.00000001 Ry

     total magnetization       =     0.00 Bohr mag/cell
     absolute magnetization    =     0.00 Bohr mag/cell

     iteration #  9     ecut=    60.00 Ry     beta= 0.70
     CG style diagonalization
     ethr =  6.74E-11,  avg # of iterations =  3.4

     negative rho (up, down):  2.070E-04 2.070E-04

     total cpu time spent up to now is     1132.9 secs

     total energy              =     -23.77735388 Ry
     estimated scf accuracy    <          1.1E-09 Ry

     total magnetization       =    -0.00 Bohr mag/cell
     absolute magnetization    =     0.00 Bohr mag/cell

     iteration # 10     ecut=    60.00 Ry     beta= 0.70
     CG style diagonalization
     ethr =  1.42E-11,  avg # of iterations =  3.4

     negative rho (up, down):  2.070E-04 2.070E-04

     total cpu time spent up to now is     1152.0 secs

     total energy              =     -23.77735388 Ry
     estimated scf accuracy    <          1.5E-09 Ry

     total magnetization       =     0.00 Bohr mag/cell
     absolute magnetization    =     0.00 Bohr mag/cell

     iteration # 11     ecut=    60.00 Ry     beta= 0.70
     CG style diagonalization
     ethr =  1.42E-11,  avg # of iterations =  3.0

     negative rho (up, down):  2.070E-04 2.070E-04

     total cpu time spent up to now is     1170.5 secs

     total energy              =     -23.77735388 Ry
     estimated scf accuracy    <          1.1E-09 Ry

     total magnetization       =    -0.00 Bohr mag/cell
     absolute magnetization    =     0.00 Bohr mag/cell

     iteration # 12     ecut=    60.00 Ry     beta= 0.70
     CG style diagonalization
     ethr =  1.42E-11,  avg # of iterations =  3.0

     negative rho (up, down):  2.070E-04 2.070E-04

     Magnetic moment per site:
     atom:    1    charge:    1.3327    magn:    0.0000    constr:    0.0000
     atom:    2    charge:    0.4419    magn:    0.0000    constr:    0.0000
     atom:    3    charge:    0.4420    magn:   -0.0000    constr:    0.0000
     atom:    4    charge:    0.4420    magn:   -0.0000    constr:    0.0000

     total cpu time spent up to now is     1186.6 secs

     End of self-consistent calculation

 ------ SPIN UP ------------


          k = 0.0000 0.0000 0.0000 (423701 PWs)   bands (ev):

   -23.8905 -13.9079 -13.9079  -9.0446  -3.2686  -2.2885  -2.1999  -2.1996

          k = 0.0000 0.2500 0.0000 (423725 PWs)   bands (ev):

   -23.8905 -13.9079 -13.9079  -9.0446  -3.2683  -2.3224  -2.1906  -2.1750

          k = 0.0000-0.5000 0.0000 (423542 PWs)   bands (ev):

   -23.8905 -13.9079 -13.9079  -9.0446  -3.2679  -2.3460  -2.1800  -2.1464

          k = 0.2500 0.0000 0.0000 (423725 PWs)   bands (ev):

   -23.8905 -13.9079 -13.9079  -9.0446  -3.2683  -2.3224  -2.1916  -2.1732

          k = 0.2500 0.2500 0.0000 (423766 PWs)   bands (ev):

   -23.8905 -13.9079 -13.9079  -9.0446  -3.2679  -2.3185  -2.2620  -2.0818

          k = 0.2500-0.5000 0.0000 (423782 PWs)   bands (ev):

   -23.8905 -13.9079 -13.9079  -9.0446  -3.2676  -2.3282  -2.2644  -2.1176

          k = 0.2500-0.2500 0.0000 (423766 PWs)   bands (ev):

   -23.8905 -13.9079 -13.9079  -9.0446  -3.2679  -2.3184  -2.2621  -2.0843

          k =-0.5000 0.0000 0.0000 (423542 PWs)   bands (ev):

   -23.8905 -13.9079 -13.9079  -9.0446  -3.2679  -2.3462  -2.1806  -2.1450

          k =-0.5000 0.2500 0.0000 (423782 PWs)   bands (ev):

   -23.8905 -13.9079 -13.9079  -9.0446  -3.2676  -2.3281  -2.2642  -2.1152

          k =-0.5000-0.5000 0.0000 (423708 PWs)   bands (ev):

   -23.8905 -13.9079 -13.9079  -9.0446  -3.2673  -2.2991  -2.2989  -2.1884

 ------ SPIN DOWN ----------


          k = 0.0000 0.0000 0.0000 (423701 PWs)   bands (ev):

   -23.8905 -13.9079 -13.9079  -9.0446  -3.2686  -2.2885  -2.1999  -2.1996

          k = 0.0000 0.2500 0.0000 (423725 PWs)   bands (ev):

   -23.8905 -13.9079 -13.9079  -9.0446  -3.2683  -2.3224  -2.1905  -2.1742

          k = 0.0000-0.5000 0.0000 (423542 PWs)   bands (ev):

   -23.8905 -13.9079 -13.9079  -9.0446  -3.2679  -2.3462  -2.1800  -2.1459

          k = 0.2500 0.0000 0.0000 (423725 PWs)   bands (ev):

   -23.8905 -13.9079 -13.9079  -9.0446  -3.2683  -2.3224  -2.1914  -2.1738

          k = 0.2500 0.2500 0.0000 (423766 PWs)   bands (ev):

   -23.8905 -13.9079 -13.9079  -9.0446  -3.2679  -2.3183  -2.2620  -2.0844

          k = 0.2500-0.5000 0.0000 (423782 PWs)   bands (ev):

   -23.8905 -13.9079 -13.9079  -9.0446  -3.2676  -2.3282  -2.2641  -2.1167

          k = 0.2500-0.2500 0.0000 (423766 PWs)   bands (ev):

   -23.8905 -13.9079 -13.9079  -9.0446  -3.2679  -2.3184  -2.2621  -2.0843

          k =-0.5000 0.0000 0.0000 (423542 PWs)   bands (ev):

   -23.8905 -13.9079 -13.9079  -9.0446  -3.2679  -2.3461  -2.1806  -2.1449

          k =-0.5000 0.2500 0.0000 (423782 PWs)   bands (ev):

   -23.8905 -13.9079 -13.9079  -9.0446  -3.2676  -2.3281  -2.2646  -2.1178

          k =-0.5000-0.5000 0.0000 (423708 PWs)   bands (ev):

   -23.8905 -13.9079 -13.9079  -9.0446  -3.2673  -2.2991  -2.2990  -2.1884

     the Fermi energy is    -7.3979 ev

!    total energy              =     -23.77735388 Ry
     estimated scf accuracy    <          4.8E-10 Ry
     smearing contrib. (-TS)   =       0.00000000 Ry
     internal energy E=F+TS    =     -23.77735388 Ry

     The total energy is F=E-TS. E is the sum of the following terms:
     one-electron contribution =     -61.52915827 Ry
     hartree contribution      =      31.02190393 Ry
     xc contribution           =      -7.58374279 Ry
     ewald contribution        =      12.68231309 Ry
     Dispersion Correction     =      -0.00029921 Ry
     electric field correction =       1.63162937 Ry

     total magnetization       =    -0.00 Bohr mag/cell
     absolute magnetization    =     0.00 Bohr mag/cell

     convergence has been achieved in  12 iterations

     negative rho (up, down):  2.070E-04 2.070E-04

     Forces acting on atoms (cartesian axes, Ry/au):

     atom    1 type  1   force =    -0.00000022   -0.00000005   -0.00094673
     atom    2 type  2   force =     0.00000012   -0.00013741    0.00031577
     atom    3 type  2   force =    -0.00011899    0.00006877    0.00031542
     atom    4 type  2   force =     0.00011909    0.00006869    0.00031553

     Total force =     0.000596     Total SCF correction =     0.000005
     Energy error            =      2.1E-04
     Gradient error          =      3.2E-04

     number of scf cycles    =   7
     number of bfgs steps    =   6

     energy   old            =     -23.7771413503 Ry
     energy   new            =     -23.7773538819 Ry

     CASE: energy  _new < energy  _old

     new trust radius        =       0.0036419607 bohr
     new conv_thr            =            1.0E-10 Ry


ATOMIC_POSITIONS (angstrom)
N            10.0000000000       10.0000000000        0.0000000000    0   0   0
H            10.0000002052       10.9382801599       -0.4056923613
H            10.8125722106        9.5308648584       -0.4057023612
H             9.1874285399        9.5308651638       -0.4057042895



     Writing output data file ./NH3_ESM_p25.save/
     NEW-OLD atomic charge density approx. for the potential

     negative rho (up, down):  2.070E-04 2.070E-04

     Adding external electric field
        E field amplitude [Ha a.u.]: -7.8812E-03
        Potential amp.       -0.5362 Ry
        Total length         34.0151 bohr

     Generating pointlists ...

     total cpu time spent up to now is     1209.1 secs

     Self-consistent Calculation

     iteration #  1     ecut=    60.00 Ry     beta= 0.70
     CG style diagonalization
     ethr =  1.00E-06,  avg # of iterations =  2.4

     Threshold (ethr) on eigenvalues was too large:
     Diagonalizing with lowered threshold

     CG style diagonalization
     ethr =  1.27E-08,  avg # of iterations =  2.8

     negative rho (up, down):  2.071E-04 2.071E-04

     total cpu time spent up to now is     1233.9 secs

     total energy              =     -23.77735110 Ry
     estimated scf accuracy    <       0.00000107 Ry

     total magnetization       =     0.00 Bohr mag/cell
     absolute magnetization    =     0.00 Bohr mag/cell

     iteration #  2     ecut=    60.00 Ry     beta= 0.70
     CG style diagonalization
     ethr =  1.34E-08,  avg # of iterations =  3.5

     negative rho (up, down):  2.071E-04 2.071E-04

     total cpu time spent up to now is     1252.5 secs

     total energy              =     -23.77735125 Ry
     estimated scf accuracy    <       0.00000028 Ry

     total magnetization       =     0.00 Bohr mag/cell
     absolute magnetization    =     0.00 Bohr mag/cell

     iteration #  3     ecut=    60.00 Ry     beta= 0.70
     CG style diagonalization
     ethr =  3.54E-09,  avg # of iterations =  3.5

     negative rho (up, down):  2.071E-04 2.071E-04

     total cpu time spent up to now is     1271.2 secs

     total energy              =     -23.77735137 Ry
     estimated scf accuracy    <       0.00000003 Ry

     total magnetization       =     0.00 Bohr mag/cell
     absolute magnetization    =     0.00 Bohr mag/cell

     iteration #  4     ecut=    60.00 Ry     beta= 0.70
     CG style diagonalization
     ethr =  3.32E-10,  avg # of iterations =  3.2

     negative rho (up, down):  2.071E-04 2.071E-04

     total cpu time spent up to now is     1289.5 secs

     total energy              =     -23.77735137 Ry
     estimated scf accuracy    <          3.5E-10 Ry

     total magnetization       =     0.00 Bohr mag/cell
     absolute magnetization    =     0.00 Bohr mag/cell

     iteration #  5     ecut=    60.00 Ry     beta= 0.70
     CG style diagonalization
     ethr =  4.32E-12,  avg # of iterations =  4.0

     negative rho (up, down):  2.071E-04 2.071E-04

     Magnetic moment per site:
     atom:    1    charge:    1.3329    magn:   -0.0000    constr:    0.0000
     atom:    2    charge:    0.4421    magn:    0.0000    constr:    0.0000
     atom:    3    charge:    0.4422    magn:    0.0000    constr:    0.0000
     atom:    4    charge:    0.4422    magn:    0.0000    constr:    0.0000

     total cpu time spent up to now is     1307.6 secs

     End of self-consistent calculation

 ------ SPIN UP ------------


          k = 0.0000 0.0000 0.0000 (423701 PWs)   bands (ev):

   -23.8886 -13.9145 -13.9145  -9.0368  -3.2680  -2.2885  -2.2002  -2.1999

          k = 0.0000 0.2500 0.0000 (423725 PWs)   bands (ev):

   -23.8886 -13.9145 -13.9145  -9.0368  -3.2677  -2.3226  -2.1909  -2.1751

          k = 0.0000-0.5000 0.0000 (423542 PWs)   bands (ev):

   -23.8886 -13.9145 -13.9145  -9.0368  -3.2673  -2.3462  -2.1804  -2.1464

          k = 0.2500 0.0000 0.0000 (423725 PWs)   bands (ev):

   -23.8886 -13.9145 -13.9145  -9.0368  -3.2677  -2.3225  -2.1919  -2.1735

          k = 0.2500 0.2500 0.0000 (423766 PWs)   bands (ev):

   -23.8886 -13.9145 -13.9145  -9.0368  -3.2673  -2.3186  -2.2623  -2.0821

          k = 0.2500-0.5000 0.0000 (423782 PWs)   bands (ev):

   -23.8886 -13.9145 -13.9145  -9.0368  -3.2670  -2.3284  -2.2647  -2.1178

          k = 0.2500-0.2500 0.0000 (423766 PWs)   bands (ev):

   -23.8886 -13.9145 -13.9145  -9.0368  -3.2673  -2.3186  -2.2623  -2.0845

          k =-0.5000 0.0000 0.0000 (423542 PWs)   bands (ev):

   -23.8886 -13.9145 -13.9145  -9.0368  -3.2673  -2.3463  -2.1809  -2.1451

          k =-0.5000 0.2500 0.0000 (423782 PWs)   bands (ev):

   -23.8886 -13.9145 -13.9145  -9.0368  -3.2670  -2.3283  -2.2645  -2.1156

          k =-0.5000-0.5000 0.0000 (423708 PWs)   bands (ev):

   -23.8886 -13.9145 -13.9145  -9.0368  -3.2667  -2.2994  -2.2992  -2.1885

 ------ SPIN DOWN ----------


          k = 0.0000 0.0000 0.0000 (423701 PWs)   bands (ev):

   -23.8886 -13.9145 -13.9145  -9.0368  -3.2680  -2.2885  -2.2002  -2.1999

          k = 0.0000 0.2500 0.0000 (423725 PWs)   bands (ev):

   -23.8886 -13.9145 -13.9145  -9.0368  -3.2677  -2.3226  -2.1909  -2.1745

          k = 0.0000-0.5000 0.0000 (423542 PWs)   bands (ev):

   -23.8886 -13.9145 -13.9145  -9.0368  -3.2673  -2.3464  -2.1804  -2.1460

          k = 0.2500 0.0000 0.0000 (423725 PWs)   bands (ev):

   -23.8886 -13.9145 -13.9145  -9.0368  -3.2677  -2.3225  -2.1918  -2.1740

          k = 0.2500 0.2500 0.0000 (423766 PWs)   bands (ev):

   -23.8886 -13.9145 -13.9145  -9.0368  -3.2673  -2.3185  -2.2623  -2.0846

          k = 0.2500-0.5000 0.0000 (423782 PWs)   bands (ev):

   -23.8886 -13.9145 -13.9145  -9.0368  -3.2670  -2.3284  -2.2645  -2.1170

          k = 0.2500-0.2500 0.0000 (423766 PWs)   bands (ev):

   -23.8886 -13.9145 -13.9145  -9.0368  -3.2673  -2.3185  -2.2623  -2.0846

          k =-0.5000 0.0000 0.0000 (423542 PWs)   bands (ev):

   -23.8886 -13.9145 -13.9145  -9.0368  -3.2673  -2.3463  -2.1809  -2.1449

          k =-0.5000 0.2500 0.0000 (423782 PWs)   bands (ev):

   -23.8886 -13.9145 -13.9145  -9.0368  -3.2670  -2.3283  -2.2649  -2.1179

          k =-0.5000-0.5000 0.0000 (423708 PWs)   bands (ev):

   -23.8886 -13.9145 -13.9145  -9.0368  -3.2667  -2.2994  -2.2992  -2.1885

     the Fermi energy is    -7.3977 ev

!    total energy              =     -23.77735137 Ry
     estimated scf accuracy    <          7.4E-11 Ry
     smearing contrib. (-TS)   =       0.00000000 Ry
     internal energy E=F+TS    =     -23.77735137 Ry

     The total energy is F=E-TS. E is the sum of the following terms:
     one-electron contribution =     -61.53541427 Ry
     hartree contribution      =      31.02519800 Ry
     xc contribution           =      -7.58437161 Ry
     ewald contribution        =      12.68574127 Ry
     Dispersion Correction     =      -0.00030072 Ry
     electric field correction =       1.63179595 Ry

     total magnetization       =     0.00 Bohr mag/cell
     absolute magnetization    =     0.00 Bohr mag/cell

     convergence has been achieved in   5 iterations

     negative rho (up, down):  2.071E-04 2.071E-04

     Forces acting on atoms (cartesian axes, Ry/au):

     atom    1 type  1   force =    -0.00000013   -0.00000002    0.00001715
     atom    2 type  2   force =     0.00000009   -0.00004209   -0.00000553
     atom    3 type  2   force =    -0.00003645    0.00002110   -0.00000585
     atom    4 type  2   force =     0.00003649    0.00002101   -0.00000578

     Total force =     0.000074     Total SCF correction =     0.000005
     Energy error            =      2.5E-06
     Gradient error          =      4.2E-05

     number of scf cycles    =   8
     number of bfgs steps    =   7

     energy   old            =     -23.7773538819 Ry
     energy   new            =     -23.7773513749 Ry

     CASE: energy  _new > energy  _old

     new trust radius        =       0.0009850385 bohr
     new conv_thr            =            1.0E-10 Ry


ATOMIC_POSITIONS (angstrom)
N            10.0000000000       10.0000000000        0.0000000000    0   0   0
H            10.0000001517       10.9379234540       -0.4070523300
H            10.8122632633        9.5310432301       -0.4070622917
H             9.1877374444        9.5310435696       -0.4070642663



     Writing output data file ./NH3_ESM_p25.save/
     NEW-OLD atomic charge density approx. for the potential

     negative rho (up, down):  2.071E-04 2.071E-04

     Adding external electric field
        E field amplitude [Ha a.u.]: -7.8812E-03
        Potential amp.       -0.5362 Ry
        Total length         34.0151 bohr

     Generating pointlists ...

     total cpu time spent up to now is     1328.3 secs

     Self-consistent Calculation

     iteration #  1     ecut=    60.00 Ry     beta= 0.70
     CG style diagonalization
     ethr =  1.00E-06,  avg # of iterations =  2.4

     Threshold (ethr) on eigenvalues was too large:
     Diagonalizing with lowered threshold

     CG style diagonalization
     ethr =  6.44E-09,  avg # of iterations =  2.8

     negative rho (up, down):  2.071E-04 2.071E-04

     total cpu time spent up to now is     1353.1 secs

     total energy              =     -23.77735337 Ry
     estimated scf accuracy    <       0.00000054 Ry

     total magnetization       =    -0.00 Bohr mag/cell
     absolute magnetization    =     0.00 Bohr mag/cell

     iteration #  2     ecut=    60.00 Ry     beta= 0.70
     CG style diagonalization
     ethr =  6.75E-09,  avg # of iterations =  3.5

     negative rho (up, down):  2.071E-04 2.071E-04

     total cpu time spent up to now is     1371.7 secs

     total energy              =     -23.77735345 Ry
     estimated scf accuracy    <       0.00000014 Ry

     total magnetization       =    -0.00 Bohr mag/cell
     absolute magnetization    =     0.00 Bohr mag/cell

     iteration #  3     ecut=    60.00 Ry     beta= 0.70
     CG style diagonalization
     ethr =  1.70E-09,  avg # of iterations =  3.5

     negative rho (up, down):  2.071E-04 2.071E-04

     total cpu time spent up to now is     1390.3 secs

[...]

   -23.8901 -13.9098 -13.9098  -9.0426  -3.2675  -2.3283  -2.2646  -2.1178

          k = 0.2500-0.2500 0.0000 (423766 PWs)   bands (ev):

   -23.8901 -13.9098 -13.9098  -9.0426  -3.2678  -2.3185  -2.2622  -2.0844

          k =-0.5000 0.0000 0.0000 (423542 PWs)   bands (ev):

   -23.8901 -13.9098 -13.9098  -9.0426  -3.2678  -2.3462  -2.1807  -2.1452

          k =-0.5000 0.2500 0.0000 (423782 PWs)   bands (ev):

   -23.8901 -13.9098 -13.9098  -9.0426  -3.2675  -2.3282  -2.2645  -2.1158

          k =-0.5000-0.5000 0.0000 (423708 PWs)   bands (ev):

   -23.8901 -13.9098 -13.9098  -9.0426  -3.2671  -2.2992  -2.2990  -2.1884

 ------ SPIN DOWN ----------


          k = 0.0000 0.0000 0.0000 (423701 PWs)   bands (ev):

   -23.8901 -13.9098 -13.9098  -9.0426  -3.2685  -2.2885  -2.2000  -2.1997

          k = 0.0000 0.2500 0.0000 (423725 PWs)   bands (ev):

   -23.8901 -13.9098 -13.9098  -9.0426  -3.2681  -2.3225  -2.1907  -2.1746

          k = 0.0000-0.5000 0.0000 (423542 PWs)   bands (ev):

   -23.8901 -13.9098 -13.9098  -9.0426  -3.2678  -2.3462  -2.1801  -2.1461

          k = 0.2500 0.0000 0.0000 (423725 PWs)   bands (ev):

   -23.8901 -13.9098 -13.9098  -9.0426  -3.2681  -2.3225  -2.1916  -2.1739

          k = 0.2500 0.2500 0.0000 (423766 PWs)   bands (ev):

   -23.8901 -13.9098 -13.9098  -9.0426  -3.2678  -2.3184  -2.2622  -2.0845

          k = 0.2500-0.5000 0.0000 (423782 PWs)   bands (ev):

   -23.8901 -13.9098 -13.9098  -9.0426  -3.2675  -2.3282  -2.2644  -2.1171

          k = 0.2500-0.2500 0.0000 (423766 PWs)   bands (ev):

   -23.8901 -13.9098 -13.9098  -9.0426  -3.2678  -2.3185  -2.2622  -2.0844

          k =-0.5000 0.0000 0.0000 (423542 PWs)   bands (ev):

   -23.8901 -13.9098 -13.9098  -9.0426  -3.2678  -2.3462  -2.1807  -2.1450

          k =-0.5000 0.2500 0.0000 (423782 PWs)   bands (ev):

   -23.8901 -13.9098 -13.9098  -9.0426  -3.2675  -2.3282  -2.2648  -2.1179

          k =-0.5000-0.5000 0.0000 (423708 PWs)   bands (ev):

   -23.8901 -13.9098 -13.9098  -9.0426  -3.2671  -2.2992  -2.2991  -2.1884

     the Fermi energy is    -7.3981 ev

!    total energy              =     -23.77735351 Ry
     estimated scf accuracy    <          6.2E-11 Ry
     smearing contrib. (-TS)   =       0.00000000 Ry
     internal energy E=F+TS    =     -23.77735351 Ry

     The total energy is F=E-TS. E is the sum of the following terms:
     one-electron contribution =     -61.53093345 Ry
     hartree contribution      =      31.02289069 Ry
     xc contribution           =      -7.58393083 Ry
     ewald contribution        =      12.68324527 Ry
     Dispersion Correction     =      -0.00029962 Ry
     electric field correction =       1.63167443 Ry

     total magnetization       =     0.00 Bohr mag/cell
     absolute magnetization    =     0.00 Bohr mag/cell

     convergence has been achieved in   5 iterations

     negative rho (up, down):  2.071E-04 2.071E-04

     Forces acting on atoms (cartesian axes, Ry/au):

     atom    1 type  1   force =    -0.00000019   -0.00000005   -0.00068666
     atom    2 type  2   force =     0.00000011   -0.00011530    0.00022908
     atom    3 type  2   force =    -0.00009986    0.00005772    0.00022874
     atom    4 type  2   force =     0.00009994    0.00005764    0.00022884

     Total force =     0.000444     Total SCF correction =     0.000004
     Energy error            =      3.7E-07
     Gradient error          =      2.3E-04
Begin final coordinates

ATOMIC_POSITIONS (angstrom)
N            10.0000000000       10.0000000000        0.0000000000    0   0   0
H            10.0000001517       10.9379234540       -0.4070523300
H            10.8122632633        9.5310432301       -0.4070622917
H             9.1877374444        9.5310435696       -0.4070642663
End final coordinates



     Writing output data file ./NH3_ESM_p25.save/

     lsda relaxation :  a final configuration with zero
                        absolute magnetization has been found

     the program is checking if it is really the minimum energy structure
     by performing a new scf iteration without any "electronic" history

     Initial potential from superposition of free atoms

     starting charge    7.99996, renormalised to    8.00000

     negative rho (up, down):  9.706E-05 7.941E-05

     total cpu time spent up to now is     1446.0 secs

     Self-consistent Calculation

     iteration #  1     ecut=    60.00 Ry     beta= 0.70
     CG style diagonalization
     c_bands:  1 eigenvalues not converged
     c_bands:  2 eigenvalues not converged
     c_bands:  1 eigenvalues not converged
     ethr =  1.00E-06,  avg # of iterations = 13.3

     negative rho (up, down):  2.102E-04 2.022E-04

     total cpu time spent up to now is     1484.3 secs

     total energy              =     -23.51030183 Ry
     estimated scf accuracy    <       0.68644411 Ry

     total magnetization       =    -0.00 Bohr mag/cell
     absolute magnetization    =     0.06 Bohr mag/cell

     iteration #  2     ecut=    60.00 Ry     beta= 0.70
     CG style diagonalization
     ethr =  8.58E-03,  avg # of iterations =  3.5

     negative rho (up, down):  1.290E-04 1.166E-03

     total cpu time spent up to now is     1503.0 secs

     total energy              =     -23.64163073 Ry
     estimated scf accuracy    <       0.42275282 Ry

     total magnetization       =     0.04 Bohr mag/cell
     absolute magnetization    =     0.06 Bohr mag/cell

     iteration #  3     ecut=    60.00 Ry     beta= 0.70
     CG style diagonalization
     ethr =  5.28E-03,  avg # of iterations =  3.4

     negative rho (up, down):  4.259E-04 1.890E-04

     total cpu time spent up to now is     1521.5 secs

     total energy              =     -23.77130081 Ry
     estimated scf accuracy    <       0.00838333 Ry

     total magnetization       =    -0.00 Bohr mag/cell
     absolute magnetization    =     0.02 Bohr mag/cell

     iteration #  4     ecut=    60.00 Ry     beta= 0.70
     CG style diagonalization
     ethr =  1.05E-04,  avg # of iterations =  4.2

     negative rho (up, down):  1.535E-04 2.570E-04

     total cpu time spent up to now is     1541.8 secs

     total energy              =     -23.77573830 Ry
     estimated scf accuracy    <       0.00522958 Ry

     total magnetization       =     0.00 Bohr mag/cell
     absolute magnetization    =     0.01 Bohr mag/cell

     iteration #  5     ecut=    60.00 Ry     beta= 0.70
     CG style diagonalization
     ethr =  6.54E-05,  avg # of iterations =  5.7

     negative rho (up, down):  1.597E-04 2.391E-04

     total cpu time spent up to now is     1565.0 secs

     total energy              =     -23.77727132 Ry
     estimated scf accuracy    <       0.00076576 Ry

     total magnetization       =     0.00 Bohr mag/cell
     absolute magnetization    =     0.01 Bohr mag/cell

     iteration #  6     ecut=    60.00 Ry     beta= 0.70
     CG style diagonalization
     ethr =  9.57E-06,  avg # of iterations =  4.9

     negative rho (up, down):  1.859E-04 2.172E-04

     total cpu time spent up to now is     1586.9 secs

     total energy              =     -23.77727524 Ry
     estimated scf accuracy    <       0.00013612 Ry

     total magnetization       =     0.00 Bohr mag/cell
     absolute magnetization    =     0.00 Bohr mag/cell

     iteration #  7     ecut=    60.00 Ry     beta= 0.70
     CG style diagonalization
     ethr =  1.70E-06,  avg # of iterations =  5.9

     negative rho (up, down):  1.965E-04 2.122E-04

     total cpu time spent up to now is     1610.8 secs

     total energy              =     -23.77735168 Ry
     estimated scf accuracy    <       0.00001495 Ry

     total magnetization       =     0.00 Bohr mag/cell
     absolute magnetization    =     0.00 Bohr mag/cell

     iteration #  8     ecut=    60.00 Ry     beta= 0.70
     CG style diagonalization
     ethr =  1.87E-07,  avg # of iterations =  4.9

     negative rho (up, down):  2.178E-04 2.041E-04

     total cpu time spent up to now is     1632.9 secs

     total energy              =     -23.77734579 Ry
     estimated scf accuracy    <       0.00008498 Ry

     total magnetization       =     0.00 Bohr mag/cell
     absolute magnetization    =     0.00 Bohr mag/cell

     iteration #  9     ecut=    60.00 Ry     beta= 0.70
     CG style diagonalization
     ethr =  1.87E-07,  avg # of iterations =  4.0

     negative rho (up, down):  2.092E-04 2.061E-04

     total cpu time spent up to now is     1653.2 secs

     total energy              =     -23.77735157 Ry
     estimated scf accuracy    <       0.00000685 Ry

     total magnetization       =    -0.00 Bohr mag/cell
     absolute magnetization    =     0.00 Bohr mag/cell

     iteration # 10     ecut=    60.00 Ry     beta= 0.70
     CG style diagonalization
     ethr =  8.57E-08,  avg # of iterations =  3.6

     negative rho (up, down):  2.101E-04 2.060E-04

     total cpu time spent up to now is     1673.0 secs

     total energy              =     -23.77735297 Ry
     estimated scf accuracy    <       0.00000096 Ry

     total magnetization       =    -0.00 Bohr mag/cell
     absolute magnetization    =     0.00 Bohr mag/cell

     iteration # 11     ecut=    60.00 Ry     beta= 0.70
     CG style diagonalization
     ethr =  1.20E-08,  avg # of iterations =  3.7

     negative rho (up, down):  2.100E-04 2.063E-04

     total cpu time spent up to now is     1692.9 secs

     total energy              =     -23.77735346 Ry
     estimated scf accuracy    <       0.00000013 Ry

     total magnetization       =     0.00 Bohr mag/cell
     absolute magnetization    =     0.00 Bohr mag/cell

     iteration # 12     ecut=    60.00 Ry     beta= 0.70
     CG style diagonalization
     ethr =  1.66E-09,  avg # of iterations =  3.8

     negative rho (up, down):  2.080E-04 2.069E-04

     total cpu time spent up to now is     1713.0 secs

     total energy              =     -23.77735348 Ry
     estimated scf accuracy    <       0.00000024 Ry

     total magnetization       =     0.00 Bohr mag/cell
     absolute magnetization    =     0.00 Bohr mag/cell

     iteration # 13     ecut=    60.00 Ry     beta= 0.70
     CG style diagonalization
     ethr =  1.66E-09,  avg # of iterations =  3.4

     negative rho (up, down):  2.070E-04 2.071E-04

     total cpu time spent up to now is     1732.3 secs

     total energy              =     -23.77735350 Ry
     estimated scf accuracy    <       0.00000001 Ry

     total magnetization       =    -0.00 Bohr mag/cell
     absolute magnetization    =     0.00 Bohr mag/cell

     iteration # 14     ecut=    60.00 Ry     beta= 0.70
     CG style diagonalization
     ethr =  1.78E-10,  avg # of iterations =  3.9

     negative rho (up, down):  2.073E-04 2.070E-04

     total cpu time spent up to now is     1752.6 secs

     total energy              =     -23.77735351 Ry
     estimated scf accuracy    <          6.8E-09 Ry

     total magnetization       =    -0.00 Bohr mag/cell
     absolute magnetization    =     0.00 Bohr mag/cell

     iteration # 15     ecut=    60.00 Ry     beta= 0.70
     CG style diagonalization
     ethr =  8.47E-11,  avg # of iterations =  3.5

     negative rho (up, down):  2.071E-04 2.071E-04

     total cpu time spent up to now is     1772.1 secs

     total energy              =     -23.77735351 Ry
     estimated scf accuracy    <          6.8E-10 Ry

     total magnetization       =    -0.00 Bohr mag/cell
     absolute magnetization    =     0.00 Bohr mag/cell

     iteration # 16     ecut=    60.00 Ry     beta= 0.70
     CG style diagonalization
     ethr =  8.50E-12,  avg # of iterations =  3.6

     negative rho (up, down):  2.071E-04 2.071E-04

     total cpu time spent up to now is     1791.7 secs

     total energy              =     -23.77735351 Ry
     estimated scf accuracy    <          2.4E-10 Ry

     total magnetization       =    -0.00 Bohr mag/cell
     absolute magnetization    =     0.00 Bohr mag/cell

     iteration # 17     ecut=    60.00 Ry     beta= 0.70
     CG style diagonalization
     ethr =  3.02E-12,  avg # of iterations =  3.0

     negative rho (up, down):  2.071E-04 2.071E-04

     Magnetic moment per site:
     atom:    1    charge:    1.3328    magn:    0.0000    constr:    0.0000
     atom:    2    charge:    0.4420    magn:   -0.0000    constr:    0.0000
     atom:    3    charge:    0.4421    magn:   -0.0000    constr:    0.0000
     atom:    4    charge:    0.4421    magn:   -0.0000    constr:    0.0000

     total cpu time spent up to now is     1807.8 secs

     End of self-consistent calculation

 ------ SPIN UP ------------


          k = 0.0000 0.0000 0.0000 (423701 PWs)   bands (ev):

   -23.8900 -13.9097 -13.9097  -9.0425  -3.2684  -2.2884  -2.1997  -2.1992

          k = 0.0000 0.2500 0.0000 (423725 PWs)   bands (ev):

   -23.8900 -13.9097 -13.9097  -9.0425  -3.2681  -2.3223  -2.1905  -2.1749

          k = 0.0000-0.5000 0.0000 (423542 PWs)   bands (ev):

   -23.8900 -13.9097 -13.9097  -9.0425  -3.2678  -2.3456  -2.1800  -2.1463

          k = 0.2500 0.0000 0.0000 (423725 PWs)   bands (ev):

   -23.8900 -13.9097 -13.9097  -9.0425  -3.2681  -2.3221  -2.1915  -2.1724

          k = 0.2500 0.2500 0.0000 (423766 PWs)   bands (ev):

   -23.8900 -13.9097 -13.9097  -9.0425  -3.2677  -2.3183  -2.2622  -2.0823

          k = 0.2500-0.5000 0.0000 (423782 PWs)   bands (ev):

   -23.8900 -13.9097 -13.9097  -9.0425  -3.2674  -2.3282  -2.2648  -2.1160

          k = 0.2500-0.2500 0.0000 (423766 PWs)   bands (ev):

   -23.8900 -13.9097 -13.9097  -9.0425  -3.2678  -2.3185  -2.2618  -2.0839

          k =-0.5000 0.0000 0.0000 (423542 PWs)   bands (ev):

   -23.8900 -13.9097 -13.9097  -9.0425  -3.2677  -2.3462  -2.1803  -2.1452

          k =-0.5000 0.2500 0.0000 (423782 PWs)   bands (ev):

   -23.8900 -13.9097 -13.9097  -9.0425  -3.2674  -2.3281  -2.2642  -2.1165

          k =-0.5000-0.5000 0.0000 (423708 PWs)   bands (ev):

   -23.8900 -13.9097 -13.9097  -9.0425  -3.2671  -2.2991  -2.2986  -2.1884

 ------ SPIN DOWN ----------


          k = 0.0000 0.0000 0.0000 (423701 PWs)   bands (ev):

   -23.8900 -13.9097 -13.9097  -9.0425  -3.2684  -2.2885  -2.1997  -2.1995

          k = 0.0000 0.2500 0.0000 (423725 PWs)   bands (ev):

   -23.8900 -13.9097 -13.9097  -9.0425  -3.2681  -2.3222  -2.1903  -2.1732

          k = 0.0000-0.5000 0.0000 (423542 PWs)   bands (ev):

   -23.8900 -13.9097 -13.9097  -9.0425  -3.2678  -2.3462  -2.1801  -2.1456

          k = 0.2500 0.0000 0.0000 (423725 PWs)   bands (ev):

   -23.8900 -13.9097 -13.9097  -9.0425  -3.2681  -2.3214  -2.1913  -2.1725

          k = 0.2500 0.2500 0.0000 (423766 PWs)   bands (ev):

   -23.8900 -13.9097 -13.9097  -9.0425  -3.2677  -2.3185  -2.2621  -2.0836

          k = 0.2500-0.5000 0.0000 (423782 PWs)   bands (ev):

   -23.8900 -13.9097 -13.9097  -9.0425  -3.2674  -2.3276  -2.2647  -2.1171

          k = 0.2500-0.2500 0.0000 (423766 PWs)   bands (ev):

   -23.8900 -13.9097 -13.9097  -9.0425  -3.2678  -2.3185  -2.2617  -2.0832

          k =-0.5000 0.0000 0.0000 (423542 PWs)   bands (ev):

   -23.8900 -13.9097 -13.9097  -9.0425  -3.2678  -2.3459  -2.1807  -2.1456

          k =-0.5000 0.2500 0.0000 (423782 PWs)   bands (ev):

   -23.8900 -13.9097 -13.9097  -9.0425  -3.2674  -2.3282  -2.2642  -2.1167

          k =-0.5000-0.5000 0.0000 (423708 PWs)   bands (ev):

   -23.8900 -13.9097 -13.9097  -9.0425  -3.2671  -2.2992  -2.2990  -2.1883

     the Fermi energy is    -7.3982 ev

!    total energy              =     -23.77735351 Ry
     estimated scf accuracy    <          9.7E-11 Ry
     smearing contrib. (-TS)   =       0.00000000 Ry
     internal energy E=F+TS    =     -23.77735351 Ry

     The total energy is F=E-TS. E is the sum of the following terms:
     one-electron contribution =     -61.53088828 Ry
     hartree contribution      =      31.02283528 Ry
     xc contribution           =      -7.58392059 Ry
     ewald contribution        =      12.68324527 Ry
     Dispersion Correction     =      -0.00029962 Ry
     electric field correction =       1.63167443 Ry

     total magnetization       =     0.00 Bohr mag/cell
     absolute magnetization    =     0.00 Bohr mag/cell

     convergence has been achieved in  17 iterations

     negative rho (up, down):  2.071E-04 2.071E-04

     Forces acting on atoms (cartesian axes, Ry/au):

     atom    1 type  1   force =    -0.00000017    0.00000018   -0.00068545
     atom    2 type  2   force =     0.00000008   -0.00011368    0.00022872
     atom    3 type  2   force =    -0.00009824    0.00005676    0.00022829
     atom    4 type  2   force =     0.00009834    0.00005673    0.00022844

     Total force =     0.000442     Total SCF correction =     0.000003
     Energy error            =      3.7E-07
     Gradient error          =      2.3E-04

     bfgs converged in   9 scf cycles and   7 bfgs steps
     (criteria: energy <  7.3E-07 Ry, force <  3.9E-04 Ry/Bohr)

     End of BFGS Geometry Optimization

     Final energy   =     -23.7773535123 Ry

     File ./NH3_ESM_p25.bfgs deleted, as requested
Begin final coordinates

ATOMIC_POSITIONS (angstrom)
N            10.0000000000       10.0000000000        0.0000000000    0   0   0
H            10.0000001517       10.9379234540       -0.4070523300
H            10.8122632633        9.5310432301       -0.4070622917
H             9.1877374444        9.5310435696       -0.4070642663
End final coordinates



     Writing output data file ./NH3_ESM_p25.save/

     init_run     :     20.19s CPU     21.46s WALL (       1 calls)
     electrons    :   1511.78s CPU   1621.25s WALL (      10 calls)
     update_pot   :     60.71s CPU     63.93s WALL (       8 calls)
     forces       :     81.41s CPU     87.01s WALL (      10 calls)

     Called by init_run:
     wfcinit      :      1.74s CPU      1.93s WALL (       1 calls)
     potinit      :     14.96s CPU     16.11s WALL (       2 calls)
     hinit0       :      1.22s CPU      1.36s WALL (       1 calls)

     Called by electrons:
     c_bands      :    615.84s CPU    625.87s WALL (      84 calls)
     sum_band     :    191.25s CPU    197.61s WALL (      84 calls)
     v_of_rho     :    504.35s CPU    549.12s WALL (      90 calls)
     newd         :     66.36s CPU     70.15s WALL (      90 calls)
     mix_rho      :    107.98s CPU    131.55s WALL (      84 calls)

     Called by c_bands:
     init_us_2    :      3.40s CPU      3.50s WALL (     537 calls)
     ccgdiagg     :    479.36s CPU    484.86s WALL (     252 calls)
     wfcrot       :    115.82s CPU    117.18s WALL (     213 calls)

     Called by *cgdiagg:
     h_psi        :    512.74s CPU    518.68s WALL (    6278 calls)
     s_psi        :     33.53s CPU     33.90s WALL (   12343 calls)

     Called by h_psi:
     h_psi:calbec :     22.05s CPU     22.34s WALL (    6278 calls)
     vloc_psi     :    463.05s CPU    468.41s WALL (    6278 calls)
     add_vuspsi   :     25.01s CPU     25.30s WALL (    6278 calls)
     hs_1psi      :    421.28s CPU    426.14s WALL (    6065 calls)
     s_1psi       :     36.26s CPU     36.64s WALL (    6065 calls)

     General routines
     calbec       :     42.88s CPU     43.44s WALL (   12715 calls)
     fft          :    559.01s CPU    574.42s WALL (    2394 calls)
     ffts         :     29.03s CPU     29.29s WALL (     348 calls)
     fftw         :    435.57s CPU    440.49s WALL (   17554 calls)
     interpolate  :     61.84s CPU     66.33s WALL (     180 calls)
     davcio       :      0.27s CPU     14.86s WALL (    1636 calls)

     Parallel routines
     fft_scatt_xy :    159.95s CPU    161.90s WALL (   20296 calls)
     fft_scatt_yz :    370.72s CPU    375.09s WALL (   20296 calls)

     PWSCF        :  28m19.95s CPU  30m21.72s WALL


   This run was terminated on:  15:31:22  27Sep2022            

=------------------------------------------------------------------------------=
   JOB DONE.
=------------------------------------------------------------------------------=
