
     Program PWSCF v.6.4.1 starts on 10Jun2022 at  2:13:59 

     This program is part of the open-source Quantum ESPRESSO suite
     for quantum simulation of materials; please cite
         "P. Giannozzi et al., J. Phys.:Condens. Matter 21 395502 (2009);
         "P. Giannozzi et al., J. Phys.:Condens. Matter 29 465901 (2017);
          URL http://www.quantum-espresso.org", 
     in publications or presentations arising from this work. More details at
     http://www.quantum-espresso.org/quote

     Parallel version (MPI), running on   160 processors

     MPI processes distributed on     8 nodes
     K-points division:     npool     =       8
     R & G space division:  proc/nbgrp/npool/nimage =      20
     Waiting for input...
     Reading input from standard input
Warning: card &CELL ignored
Warning: card / ignored

     Current dimensions of program PWSCF are:
     Max number of different atomic species (ntypx) = 10
     Max number of k-points (npk) =  40000
     Max angular momentum in pseudopotentials (lmaxx) =  3

     IMPORTANT: XC functional enforced from input :
     Exchange-correlation      = PBE ( 1  4  3  4 0 0)
     Any further DFT definition will be discarded
     Please, verify this is what you really want

               file Fe.pbe-spn-kjpaw_psl.0.2.1.UPF: wavefunction(s)  3D renormalized

     -------------------------------------------------
     Parameters for Dispersion (Grimme-D2) Correction:
     -------------------------------------------------
       atom      VdW radius       C_6     

        Fe         2.952        374.666
        N          2.640         42.670
        H          1.892          4.857

     Subspace diagonalization in iterative solution of the eigenvalue problem:
     one sub-group per band group will be used
     scalapack distributed-memory algorithm (size of sub-group:  3*  3 procs)


     Parallelization info
     --------------------
     sticks:   dense  smooth     PW     G-vecs:    dense   smooth      PW
     Min         634     317     83               145278    51361    6989
     Max         635     318     84               145287    51370    7000
     Sum       12685    6351   1677              2905599  1027285  139897



     bravais-lattice index     =            0
     lattice parameter (alat)  =      18.7640  a.u.
     unit-cell volume          =   16360.3163 (a.u.)^3
     number of atoms/cell      =           68
     number of atomic types    =            3
     number of electrons       =      1032.00
     number of Kohn-Sham states=          619
     kinetic-energy cutoff     =      60.0000  Ry
     charge density cutoff     =     480.0000  Ry
     convergence threshold     =      1.0E-08
     mixing beta               =       0.2000
     number of iterations used =           10  local-TF  mixing
     Exchange-correlation      = PBE ( 1  4  3  4 0 0)
     nstep                     =           50


     Effective Screening Medium Method
     =================================
     Boundary Conditions: Metal-Slab-Metal
     field strength                   =     0.01 Ry/a.u.
     grid points for fit at edges     =        4 


     celldm(1)=  18.764036  celldm(2)=   0.000000  celldm(3)=   0.000000
     celldm(4)=   0.000000  celldm(5)=   0.000000  celldm(6)=   0.000000

     crystal axes: (cart. coord. in units of alat)
               a(1) = (   1.000000   0.000000   0.000000 )  
               a(2) = (   0.333330   0.942807   0.000000 )  
               a(3) = (   0.000000   0.000000   2.626577 )  

     reciprocal axes: (cart. coord. in units 2 pi/alat)
               b(1) = (  1.000000 -0.353551  0.000000 )  
               b(2) = (  0.000000  1.060663  0.000000 )  
               b(3) = (  0.000000  0.000000  0.380724 )  


     PseudoPot. # 1 for Fe read from file:
     ../../SSSP/Fe.pbe-spn-kjpaw_psl.0.2.1.UPF
     MD5 check sum: e86618425769142926afa95317d90200
     Pseudo is Projector augmented-wave + core cor, Zval = 16.0
     Generated using "atomic" code by A. Dal Corso v.5.0.99 svn rev. 10869
     Shape of augmentation charge: PSQ
     Using radial grid of 1191 points,  6 beta functions with: 
                l(1) =   0
                l(2) =   0
                l(3) =   1
                l(4) =   1
                l(5) =   2
                l(6) =   2
     Q(r) pseudized with 0 coefficients 


     PseudoPot. # 2 for N  read from file:
     ../../SSSP/N.pbe-n-radius_5.UPF
     MD5 check sum: 16739722b17309cd8fe442a2ace49922
     Pseudo is Ultrasoft + core correction, Zval =  5.0
     Generated using "atomic" code by A. Dal Corso v.5.1
     Using radial grid of 1085 points,  4 beta functions with: 
                l(1) =   0
                l(2) =   0
                l(3) =   1
                l(4) =   1
     Q(r) pseudized with 0 coefficients 


     PseudoPot. # 3 for H  read from file:
     ../../SSSP/H.pbe-rrkjus_psl.1.0.0.UPF
     MD5 check sum: f52b6d4d1c606e5624b1dc7b2218f220
     Pseudo is Ultrasoft, Zval =  1.0
     Generated using "atomic" code by A. Dal Corso v.5.1
     Using radial grid of  929 points,  2 beta functions with: 
                l(1) =   0
                l(2) =   0
     Q(r) pseudized with 0 coefficients 


     atomic species   valence    mass     pseudopotential
        Fe            16.00    55.84500     Fe( 1.00)
        N              5.00    14.00700     N ( 1.00)
        H              1.00     1.00800     H ( 1.00)

     Starting magnetic structure 
     atomic species   magnetization
        Fe           0.100
        N            0.100
        H            0.100

     No symmetry found



   Cartesian axes

     site n.     atom                  positions (alat units)
         1           Fe  tau(   1) = (   0.1666663   0.1178509   0.0000000  )
         2           Fe  tau(   2) = (   0.0000000   0.0000000   0.2041376  )
         3           Fe  tau(   3) = (   0.4999989   0.3535526   0.0000000  )
         4           Fe  tau(   4) = (   0.3333326   0.2357017   0.2041376  )
         5           Fe  tau(   5) = (   0.1668369   0.1179664   0.4056137  )
         6           Fe  tau(   6) = (   0.3333948   0.9428477   0.6043333  )
         7           Fe  tau(   7) = (   0.5005257   0.3539409   0.4049512  )
         8           Fe  tau(   8) = (   0.3334307   0.2358017   0.6041204  )
         9           Fe  tau(   9) = (   0.2499989   0.3535526   0.0000000  )
        10           Fe  tau(  10) = (   0.4166663   0.1178509   0.0000000  )
        11           Fe  tau(  11) = (   0.0833326   0.2357017   0.2041376  )
        12           Fe  tau(  12) = (   0.2500000   0.0000000   0.2041376  )
        13           Fe  tau(  13) = (   0.2500303   0.3536979   0.4056039  )
        14           Fe  tau(  14) = (   0.4168191   0.1178637   0.4056158  )
        15           Fe  tau(  15) = (   0.0833358   0.2361564   0.6054962  )
        16           Fe  tau(  16) = (   0.2504323  -0.0001439   0.6055122  )
        17           Fe  tau(  17) = (   0.6666663   0.1178509   0.0000000  )
        18           Fe  tau(  18) = (   0.5000000   0.0000000   0.2041376  )
        19           Fe  tau(  19) = (   0.9999989   0.3535526   0.0000000  )
        20           Fe  tau(  20) = (   0.8333326   0.2357017   0.2041376  )
        21           Fe  tau(  21) = (   0.6669238   0.1176323   0.4045735  )
        22           Fe  tau(  22) = (   0.4999755  -0.0000906   0.6065746  )
        23           Fe  tau(  23) = (   1.0001041   0.3532419   0.4046086  )
        24           Fe  tau(  24) = (   0.8340634   0.2347098   0.5996506  )
        25           Fe  tau(  25) = (   0.7499989   0.3535526   0.0000000  )
        26           Fe  tau(  26) = (   0.9166663   0.1178509   0.0000000  )
        27           Fe  tau(  27) = (   0.5833326   0.2357017   0.2041376  )
        28           Fe  tau(  28) = (   0.7500000   0.0000000   0.2041376  )
        29           Fe  tau(  29) = (   0.7487792   0.3552564   0.4065778  )
        30           Fe  tau(  30) = (   0.9170874   0.1172970   0.4042016  )
        31           Fe  tau(  31) = (   0.5836685   0.2348251   0.6013713  )
        32           Fe  tau(  32) = (   1.0829121   0.9428579   0.6053617  )
        33           Fe  tau(  33) = (   0.3333315   0.5892543   0.0000000  )
        34           Fe  tau(  34) = (   0.1666652   0.4714034   0.2041376  )
        35           Fe  tau(  35) = (   0.6666640   0.8249560   0.0000000  )
        36           Fe  tau(  36) = (   0.4999978   0.7071052   0.2041376  )
        37           Fe  tau(  37) = (   0.3331818   0.5896118   0.4045503  )
        38           Fe  tau(  38) = (   1.1665462   0.4713975   0.6065742  )
        39           Fe  tau(  39) = (   0.6663808   0.8252023   0.4045885  )
        40           Fe  tau(  40) = (   0.4993463   0.7080862   0.5998126  )
        41           Fe  tau(  41) = (   0.4166640   0.8249560   0.0000000  )
        42           Fe  tau(  42) = (   0.5833315   0.5892543   0.0000000  )
        43           Fe  tau(  43) = (   0.2499978   0.7071052   0.2041376  )
        44           Fe  tau(  44) = (   0.4166652   0.4714034   0.2041376  )
        45           Fe  tau(  45) = (   0.4162782   0.8255467   0.4042228  )
        46           Fe  tau(  46) = (   0.5845005   0.5875838   0.4065537  )
        47           Fe  tau(  47) = (   1.2499125   0.7066993   0.6053694  )
        48           Fe  tau(  48) = (   0.4158374   0.4720513   0.6012683  )
        49           Fe  tau(  49) = (   0.8333315   0.5892543   0.0000000  )
        50           Fe  tau(  50) = (   0.6666652   0.4714034   0.2041376  )
        51           Fe  tau(  51) = (   1.1666640   0.8249560   0.0000000  )
        52           Fe  tau(  52) = (   0.9999978   0.7071052   0.2041376  )
        53           Fe  tau(  53) = (   0.8328112   0.5888980   0.4050680  )
        54           Fe  tau(  54) = (   0.6664112   0.4714982   0.6203360  )
        55           Fe  tau(  55) = (   1.1665105   0.8248441   0.4055370  )
        56           Fe  tau(  56) = (   0.9999676   0.7071090   0.6039197  )
        57           Fe  tau(  57) = (   0.9166640   0.8249560   0.0000000  )
        58           Fe  tau(  58) = (   1.0833315   0.5892543   0.0000000  )
        59           Fe  tau(  59) = (   0.7499978   0.7071052   0.2041376  )
        60           Fe  tau(  60) = (   0.9166652   0.4714034   0.2041376  )
        61           Fe  tau(  61) = (   0.9164861   0.8249639   0.4055659  )
        62           Fe  tau(  62) = (   1.0832489   0.5890867   0.4055794  )
        63           Fe  tau(  63) = (   0.7495789   0.7079861   0.6015385  )
        64           Fe  tau(  64) = (   0.9172476   0.4707251   0.6016470  )
        65           N   tau(  65) = (   0.6670943   0.4712780   0.8294560  )
        66           H   tau(  66) = (   0.6649302   0.5674919   0.8662418  )
        67           H   tau(  67) = (   0.5836884   0.4213385   0.8637980  )
        68           H   tau(  68) = (   0.7509205   0.4235701   0.8656821  )

     number of k points=    10  Methfessel-Paxton smearing, width (Ry)=  0.0100
                       cart. coord. in units 2pi/alat
        k(    1) = (   0.0000000   0.0000000   0.0000000), wk =   0.0625000
        k(    2) = (   0.0000000   0.2651656   0.0000000), wk =   0.1250000
        k(    3) = (   0.0000000  -0.5303313   0.0000000), wk =   0.0625000
        k(    4) = (   0.2500000  -0.0883878   0.0000000), wk =   0.1250000
        k(    5) = (   0.2500000   0.1767779   0.0000000), wk =   0.1250000
        k(    6) = (   0.2500000  -0.6187190   0.0000000), wk =   0.1250000
        k(    7) = (   0.2500000  -0.3535534   0.0000000), wk =   0.1250000
        k(    8) = (  -0.5000000   0.1767755   0.0000000), wk =   0.0625000
        k(    9) = (  -0.5000000   0.4419412   0.0000000), wk =   0.1250000
        k(   10) = (  -0.5000000  -0.3535558   0.0000000), wk =   0.0625000

     Dense  grid:  2905599 G-vectors     FFT dimensions: ( 135, 135, 360)

     Smooth grid:  1027285 G-vectors     FFT dimensions: (  96,  96, 243)

     Estimated max dynamical RAM per process >       1.01 GB

     Estimated total dynamical RAM >     162.10 GB
     Generating pointlists ...
     new r_m :   0.0863 (alat units)  1.6186 (a.u.) for type    1
     new r_m :   0.0425 (alat units)  0.7975 (a.u.) for type    2
     new r_m :   0.0425 (alat units)  0.7975 (a.u.) for type    3

     Check: negative core charge=   -0.000039

     Initial potential from superposition of free atoms

     starting charge 1031.97191, renormalised to 1032.00000

     negative rho (up, down):  2.373E-02 2.555E-03
     Starting wfcs are  839 randomized atomic wfcs
     Checking if some PAW data can be deallocated... 

     total cpu time spent up to now is       97.3 secs

     Self-consistent Calculation

     iteration #  1     ecut=    60.00 Ry     beta= 0.20
     Davidson diagonalization with overlap
     c_bands:  2 eigenvalues not converged
     ethr =  1.00E-04,  avg # of iterations = 18.6

     negative rho (up, down):  1.127E-02 3.143E-03

     total cpu time spent up to now is     1137.2 secs

     total energy              =  -21090.09604331 Ry
     Harris-Foulkes estimate   =  -21098.42265731 Ry
     estimated scf accuracy    <     415.03153277 Ry

     total magnetization       =   103.50 Bohr mag/cell
     absolute magnetization    =   104.49 Bohr mag/cell

     iteration #  2     ecut=    60.00 Ry     beta= 0.20
     Davidson diagonalization with overlap
     ethr =  1.00E-02,  avg # of iterations =  1.0

     negative rho (up, down):  9.040E-03 4.344E-02

     total cpu time spent up to now is     1284.7 secs

     total energy              =  -21094.37727373 Ry
     Harris-Foulkes estimate   =  -21097.85540192 Ry
     estimated scf accuracy    <     189.62219485 Ry

     total magnetization       =   102.16 Bohr mag/cell
     absolute magnetization    =   103.43 Bohr mag/cell

     iteration #  3     ecut=    60.00 Ry     beta= 0.20
     Davidson diagonalization with overlap
     ethr =  1.00E-02,  avg # of iterations =  1.0

     negative rho (up, down):  4.591E-03 2.044E-02

     total cpu time spent up to now is     1439.1 secs

     total energy              =  -21096.07361751 Ry
     Harris-Foulkes estimate   =  -21096.21344440 Ry
     estimated scf accuracy    <      10.64977872 Ry

     total magnetization       =   132.55 Bohr mag/cell
     absolute magnetization    =   132.96 Bohr mag/cell

     iteration #  4     ecut=    60.00 Ry     beta= 0.20
     Davidson diagonalization with overlap
     ethr =  1.03E-03,  avg # of iterations =  1.0

     negative rho (up, down):  2.975E-03 1.280E-02

     total cpu time spent up to now is     1582.1 secs

     total energy              =  -21096.10698297 Ry
     Harris-Foulkes estimate   =  -21096.16715856 Ry
     estimated scf accuracy    <      16.02662198 Ry

     total magnetization       =   138.99 Bohr mag/cell
     absolute magnetization    =   139.47 Bohr mag/cell

     iteration #  5     ecut=    60.00 Ry     beta= 0.20
     Davidson diagonalization with overlap
     ethr =  1.03E-03,  avg # of iterations =  1.0

     negative rho (up, down):  1.506E-02 1.908E-01

     total cpu time spent up to now is     1721.2 secs

     total energy              =  -21094.04603576 Ry
     Harris-Foulkes estimate   =  -21096.13671070 Ry
     estimated scf accuracy    <      16.84495951 Ry

     total magnetization       =   141.81 Bohr mag/cell
     absolute magnetization    =   142.36 Bohr mag/cell

     iteration #  6     ecut=    60.00 Ry     beta= 0.20
     Davidson diagonalization with overlap
     ethr =  1.03E-03,  avg # of iterations =  7.5

     negative rho (up, down):  2.774E-03 1.037E-01

     total cpu time spent up to now is     1946.7 secs

     total energy              =  -21095.44985020 Ry
     Harris-Foulkes estimate   =  -21095.37512025 Ry
     estimated scf accuracy    <       3.95573013 Ry

     total magnetization       =   156.74 Bohr mag/cell
     absolute magnetization    =   159.91 Bohr mag/cell

     iteration #  7     ecut=    60.00 Ry     beta= 0.20
     Davidson diagonalization with overlap
     ethr =  3.83E-04,  avg # of iterations =  6.7

     negative rho (up, down):  7.834E-04 4.045E-02

     total cpu time spent up to now is     2176.5 secs

     total energy              =  -21095.72952221 Ry
     Harris-Foulkes estimate   =  -21095.80091250 Ry
     estimated scf accuracy    <       0.91259128 Ry

     total magnetization       =   149.94 Bohr mag/cell
     absolute magnetization    =   153.08 Bohr mag/cell

     iteration #  8     ecut=    60.00 Ry     beta= 0.20
     Davidson diagonalization with overlap
     c_bands:  2 eigenvalues not converged
     ethr =  8.84E-05,  avg # of iterations = 17.0

     negative rho (up, down):  2.643E-04 2.903E-02

     total cpu time spent up to now is     2983.4 secs

     total energy              =  -21096.09129517 Ry
     Harris-Foulkes estimate   =  -21096.22228123 Ry
     estimated scf accuracy    <       3.31350087 Ry

     total magnetization       =   149.53 Bohr mag/cell
     absolute magnetization    =   154.95 Bohr mag/cell

     iteration #  9     ecut=    60.00 Ry     beta= 0.20
     Davidson diagonalization with overlap
     ethr =  8.84E-05,  avg # of iterations =  3.1

     negative rho (up, down):  6.457E-05 1.169E-02

     total cpu time spent up to now is     3160.8 secs

     total energy              =  -21096.09976005 Ry
     Harris-Foulkes estimate   =  -21096.14583765 Ry
     estimated scf accuracy    <       0.37739245 Ry

     total magnetization       =   151.32 Bohr mag/cell
     absolute magnetization    =   155.99 Bohr mag/cell

     iteration # 10     ecut=    60.00 Ry     beta= 0.20
     Davidson diagonalization with overlap
     ethr =  3.66E-05,  avg # of iterations =  7.3

     negative rho (up, down):  1.900E-04 2.705E-02

     total cpu time spent up to now is     3422.5 secs

     total energy              =  -21096.10089442 Ry
     Harris-Foulkes estimate   =  -21096.13952839 Ry
     estimated scf accuracy    <       0.74293052 Ry

     total magnetization       =   152.56 Bohr mag/cell
     absolute magnetization    =   156.91 Bohr mag/cell

     iteration # 11     ecut=    60.00 Ry     beta= 0.20
     Davidson diagonalization with overlap
     ethr =  3.66E-05,  avg # of iterations =  5.5

     negative rho (up, down):  1.391E-04 2.283E-02

     total cpu time spent up to now is     3645.5 secs

     total energy              =  -21096.13266655 Ry
     Harris-Foulkes estimate   =  -21096.14644898 Ry
     estimated scf accuracy    <       0.33420290 Ry

     total magnetization       =   157.44 Bohr mag/cell
     absolute magnetization    =   162.09 Bohr mag/cell

     iteration # 12     ecut=    60.00 Ry     beta= 0.20
     Davidson diagonalization with overlap
     c_bands:  2 eigenvalues not converged
     ethr =  3.24E-05,  avg # of iterations =  3.8

     negative rho (up, down):  2.852E-05 1.398E-02

     total cpu time spent up to now is     3908.7 secs

     total energy              =  -21096.12422949 Ry
     Harris-Foulkes estimate   =  -21096.14507622 Ry
     estimated scf accuracy    <       0.26816254 Ry

     total magnetization       =   159.17 Bohr mag/cell
     absolute magnetization    =   163.83 Bohr mag/cell

     iteration # 13     ecut=    60.00 Ry     beta= 0.20
     Davidson diagonalization with overlap
     ethr =  2.60E-05,  avg # of iterations =  6.8

     negative rho (up, down):  2.590E-04 2.695E-02

     total cpu time spent up to now is     4115.9 secs

     total energy              =  -21096.11509560 Ry
     Harris-Foulkes estimate   =  -21096.13927644 Ry
     estimated scf accuracy    <       0.57469828 Ry

     total magnetization       =   159.59 Bohr mag/cell
     absolute magnetization    =   164.20 Bohr mag/cell

     iteration # 14     ecut=    60.00 Ry     beta= 0.20
     Davidson diagonalization with overlap
     ethr =  2.60E-05,  avg # of iterations =  2.3

     negative rho (up, down):  1.362E-02 3.435E-02

     total cpu time spent up to now is     4285.1 secs

     total energy              =  -21096.11056497 Ry
     Harris-Foulkes estimate   =  -21096.12450430 Ry
     estimated scf accuracy    <       0.21420639 Ry

     total magnetization       =   160.79 Bohr mag/cell
     absolute magnetization    =   165.47 Bohr mag/cell

     iteration # 15     ecut=    60.00 Ry     beta= 0.20
     Davidson diagonalization with overlap
     ethr =  2.08E-05,  avg # of iterations =  5.0

     negative rho (up, down):  9.066E-02 2.080E-02

     total cpu time spent up to now is     4513.3 secs

     total energy              =  -21096.08911424 Ry
     Harris-Foulkes estimate   =  -21096.11634043 Ry
     estimated scf accuracy    <       0.18005566 Ry

     total magnetization       =   161.13 Bohr mag/cell
     absolute magnetization    =   165.87 Bohr mag/cell

     iteration # 16     ecut=    60.00 Ry     beta= 0.20
     Davidson diagonalization with overlap
     ethr =  1.74E-05,  avg # of iterations = 19.4

     negative rho (up, down):  8.558E-02 1.763E-02

     total cpu time spent up to now is     5193.9 secs

     total energy              =  -21096.10110370 Ry
     Harris-Foulkes estimate   =  -21096.11660558 Ry
     estimated scf accuracy    <       0.05522431 Ry

     total magnetization       =   160.96 Bohr mag/cell
     absolute magnetization    =   166.15 Bohr mag/cell

     iteration # 17     ecut=    60.00 Ry     beta= 0.20
     Davidson diagonalization with overlap
     c_bands:  3 eigenvalues not converged
     ethr =  5.35E-06,  avg # of iterations = 16.6

     negative rho (up, down):  1.202E-01 2.008E-02

     total cpu time spent up to now is     6049.5 secs

     total energy              =  -21096.11103661 Ry
     Harris-Foulkes estimate   =  -21096.11791897 Ry
     estimated scf accuracy    <       0.03812469 Ry

     total magnetization       =   160.56 Bohr mag/cell
     absolute magnetization    =   166.12 Bohr mag/cell

     iteration # 18     ecut=    60.00 Ry     beta= 0.20
     Davidson diagonalization with overlap
     c_bands:  1 eigenvalues not converged
     ethr =  3.69E-06,  avg # of iterations = 12.7

     negative rho (up, down):  1.406E-01 2.114E-02

     total cpu time spent up to now is     6359.6 secs

     total energy              =  -21096.07928515 Ry
     Harris-Foulkes estimate   =  -21096.11291187 Ry
     estimated scf accuracy    <       0.03239442 Ry

     total magnetization       =   161.02 Bohr mag/cell
     absolute magnetization    =   166.65 Bohr mag/cell

     iteration # 19     ecut=    60.00 Ry     beta= 0.20
     Davidson diagonalization with overlap
     c_bands:  1 eigenvalues not converged
     ethr =  3.14E-06,  avg # of iterations = 10.8

     negative rho (up, down):  1.754E-01 2.406E-02

     total cpu time spent up to now is     6687.5 secs

     total energy              =  -21096.06621396 Ry
     Harris-Foulkes estimate   =  -21096.08179399 Ry
     estimated scf accuracy    <       0.02545947 Ry

     total magnetization       =   161.07 Bohr mag/cell
     absolute magnetization    =   166.91 Bohr mag/cell

     iteration # 20     ecut=    60.00 Ry     beta= 0.20
     Davidson diagonalization with overlap
     c_bands:  1 eigenvalues not converged
     ethr =  2.47E-06,  avg # of iterations = 19.4

     negative rho (up, down):  1.704E-01 2.260E-02

     total cpu time spent up to now is     7229.4 secs

     total energy              =  -21096.07070135 Ry
     Harris-Foulkes estimate   =  -21096.06974515 Ry
     estimated scf accuracy    <       0.01467478 Ry

     total magnetization       =   161.59 Bohr mag/cell
     absolute magnetization    =   167.76 Bohr mag/cell

     iteration # 21     ecut=    60.00 Ry     beta= 0.20
     Davidson diagonalization with overlap
     c_bands:  1 eigenvalues not converged
     c_bands:  1 eigenvalues not converged
     ethr =  1.42E-06,  avg # of iterations = 16.4

     negative rho (up, down):  1.031E-01 2.106E-02

     total cpu time spent up to now is     7600.6 secs

     total energy              =  -21096.06801897 Ry
     Harris-Foulkes estimate   =  -21096.07237790 Ry
     estimated scf accuracy    <       0.00937037 Ry

     total magnetization       =   161.68 Bohr mag/cell
     absolute magnetization    =   167.96 Bohr mag/cell

     iteration # 22     ecut=    60.00 Ry     beta= 0.20
     Davidson diagonalization with overlap
     c_bands:  1 eigenvalues not converged
     ethr =  9.08E-07,  avg # of iterations = 14.9

     negative rho (up, down):  6.844E-02 2.267E-02

     total cpu time spent up to now is     8206.3 secs

     total energy              =  -21096.07009134 Ry
     Harris-Foulkes estimate   =  -21096.07015263 Ry
     estimated scf accuracy    <       0.01253813 Ry

     total magnetization       =   161.79 Bohr mag/cell
     absolute magnetization    =   168.32 Bohr mag/cell

     iteration # 23     ecut=    60.00 Ry     beta= 0.20
     Davidson diagonalization with overlap
     c_bands:  1 eigenvalues not converged
     ethr =  9.08E-07,  avg # of iterations = 11.1

     negative rho (up, down):  5.490E-02 2.657E-02

     total cpu time spent up to now is     8461.1 secs

     total energy              =  -21096.07102743 Ry
     Harris-Foulkes estimate   =  -21096.07080150 Ry
     estimated scf accuracy    <       0.00284877 Ry

     total magnetization       =   161.90 Bohr mag/cell
     absolute magnetization    =   168.44 Bohr mag/cell

     iteration # 24     ecut=    60.00 Ry     beta= 0.20
     Davidson diagonalization with overlap
     ethr =  2.76E-07,  avg # of iterations = 13.8

     negative rho (up, down):  5.781E-02 2.355E-02

     total cpu time spent up to now is     9284.5 secs

     total energy              =  -21096.07219392 Ry
     Harris-Foulkes estimate   =  -21096.07236790 Ry
     estimated scf accuracy    <       0.00139878 Ry

     total magnetization       =   161.91 Bohr mag/cell
     absolute magnetization    =   168.45 Bohr mag/cell

     iteration # 25     ecut=    60.00 Ry     beta= 0.20
     Davidson diagonalization with overlap
     ethr =  1.36E-07,  avg # of iterations = 12.4

     negative rho (up, down):  4.666E-02 2.264E-02

     total cpu time spent up to now is     9692.2 secs

     total energy              =  -21096.07331124 Ry
     Harris-Foulkes estimate   =  -21096.07239210 Ry
     estimated scf accuracy    <       0.00120770 Ry

     total magnetization       =   161.97 Bohr mag/cell
     absolute magnetization    =   168.51 Bohr mag/cell

     iteration # 26     ecut=    60.00 Ry     beta= 0.20
     Davidson diagonalization with overlap
     ethr =  1.17E-07,  avg # of iterations =  6.5

     negative rho (up, down):  2.674E-02 2.344E-02

     total cpu time spent up to now is     9959.2 secs

     total energy              =  -21096.07558610 Ry
     Harris-Foulkes estimate   =  -21096.07338251 Ry
     estimated scf accuracy    <       0.00076313 Ry

     total magnetization       =   161.99 Bohr mag/cell
     absolute magnetization    =   168.50 Bohr mag/cell

     iteration # 27     ecut=    60.00 Ry     beta= 0.20
     Davidson diagonalization with overlap
     ethr =  7.39E-08,  avg # of iterations =  8.2

     negative rho (up, down):  2.578E-02 2.126E-02

     total cpu time spent up to now is    10346.6 secs

     total energy              =  -21096.07579870 Ry
     Harris-Foulkes estimate   =  -21096.07572697 Ry
     estimated scf accuracy    <       0.00011452 Ry

     total magnetization       =   162.02 Bohr mag/cell
     absolute magnetization    =   168.47 Bohr mag/cell

     iteration # 28     ecut=    60.00 Ry     beta= 0.20
     Davidson diagonalization with overlap
     c_bands:  1 eigenvalues not converged
     c_bands:  3 eigenvalues not converged
     ethr =  1.11E-08,  avg # of iterations = 17.1

     negative rho (up, down):  2.659E-02 2.117E-02

     total cpu time spent up to now is    11499.6 secs

     total energy              =  -21096.07574098 Ry
     Harris-Foulkes estimate   =  -21096.07600154 Ry
     estimated scf accuracy    <       0.00013777 Ry

     total magnetization       =   161.98 Bohr mag/cell
     absolute magnetization    =   168.46 Bohr mag/cell

     iteration # 29     ecut=    60.00 Ry     beta= 0.20
     Davidson diagonalization with overlap
     ethr =  1.11E-08,  avg # of iterations =  2.9

     negative rho (up, down):  2.573E-02 2.098E-02

     total cpu time spent up to now is    11705.4 secs

     total energy              =  -21096.07583131 Ry
     Harris-Foulkes estimate   =  -21096.07574646 Ry
     estimated scf accuracy    <       0.00007359 Ry

     total magnetization       =   161.97 Bohr mag/cell
     absolute magnetization    =   168.45 Bohr mag/cell

     iteration # 30     ecut=    60.00 Ry     beta= 0.20
     Davidson diagonalization with overlap
     ethr =  7.13E-09,  avg # of iterations =  8.2

     negative rho (up, down):  2.303E-02 1.983E-02

     total cpu time spent up to now is    12229.4 secs

     total energy              =  -21096.07632501 Ry
     Harris-Foulkes estimate   =  -21096.07584722 Ry
     estimated scf accuracy    <       0.00005306 Ry

     total magnetization       =   161.96 Bohr mag/cell
     absolute magnetization    =   168.46 Bohr mag/cell

     iteration # 31     ecut=    60.00 Ry     beta= 0.20
     Davidson diagonalization with overlap
     ethr =  5.14E-09,  avg # of iterations =  4.8

     negative rho (up, down):  2.251E-02 1.961E-02

     total cpu time spent up to now is    12447.2 secs

     total energy              =  -21096.07642614 Ry
     Harris-Foulkes estimate   =  -21096.07632941 Ry
     estimated scf accuracy    <       0.00001635 Ry

     total magnetization       =   161.94 Bohr mag/cell
     absolute magnetization    =   168.44 Bohr mag/cell

     iteration # 32     ecut=    60.00 Ry     beta= 0.20
     Davidson diagonalization with overlap
     c_bands:  2 eigenvalues not converged
     ethr =  1.58E-09,  avg # of iterations = 11.7

     negative rho (up, down):  2.236E-02 1.961E-02

     total cpu time spent up to now is    13148.5 secs

     total energy              =  -21096.07630839 Ry
     Harris-Foulkes estimate   =  -21096.07643135 Ry
     estimated scf accuracy    <       0.00001182 Ry

     total magnetization       =   161.93 Bohr mag/cell
     absolute magnetization    =   168.44 Bohr mag/cell

     iteration # 33     ecut=    60.00 Ry     beta= 0.20
     Davidson diagonalization with overlap
     c_bands:  1 eigenvalues not converged
     ethr =  1.15E-09,  avg # of iterations =  7.0

     negative rho (up, down):  2.293E-02 1.957E-02

     total cpu time spent up to now is    13412.1 secs

     total energy              =  -21096.07593124 Ry
     Harris-Foulkes estimate   =  -21096.07630968 Ry
     estimated scf accuracy    <       0.00000938 Ry

     total magnetization       =   161.93 Bohr mag/cell
     absolute magnetization    =   168.44 Bohr mag/cell

     iteration # 34     ecut=    60.00 Ry     beta= 0.20
     Davidson diagonalization with overlap
     ethr =  9.09E-10,  avg # of iterations =  7.4

     negative rho (up, down):  2.331E-02 1.951E-02

     total cpu time spent up to now is    13865.4 secs

     total energy              =  -21096.07594374 Ry
     Harris-Foulkes estimate   =  -21096.07593432 Ry
     estimated scf accuracy    <       0.00001364 Ry

     total magnetization       =   161.91 Bohr mag/cell
     absolute magnetization    =   168.43 Bohr mag/cell

     iteration # 35     ecut=    60.00 Ry     beta= 0.20
     Davidson diagonalization with overlap
     ethr =  9.09E-10,  avg # of iterations =  2.9

     negative rho (up, down):  2.384E-02 1.959E-02

     total cpu time spent up to now is    14063.4 secs

     total energy              =  -21096.07558885 Ry
     Harris-Foulkes estimate   =  -21096.07594453 Ry
     estimated scf accuracy    <       0.00000704 Ry

     total magnetization       =   161.92 Bohr mag/cell
     absolute magnetization    =   168.43 Bohr mag/cell

     iteration # 36     ecut=    60.00 Ry     beta= 0.20
     Davidson diagonalization with overlap
     ethr =  6.82E-10,  avg # of iterations =  8.5

     negative rho (up, down):  2.387E-02 1.959E-02

     total cpu time spent up to now is    14537.4 secs

     total energy              =  -21096.07548693 Ry
     Harris-Foulkes estimate   =  -21096.07559084 Ry
     estimated scf accuracy    <       0.00000426 Ry

     total magnetization       =   161.93 Bohr mag/cell
     absolute magnetization    =   168.44 Bohr mag/cell

     iteration # 37     ecut=    60.00 Ry     beta= 0.20
     Davidson diagonalization with overlap
     ethr =  4.12E-10,  avg # of iterations =  6.2

     negative rho (up, down):  2.375E-02 1.962E-02

     total cpu time spent up to now is    14888.9 secs

     total energy              =  -21096.07531072 Ry
     Harris-Foulkes estimate   =  -21096.07548797 Ry
     estimated scf accuracy    <       0.00000235 Ry

     total magnetization       =   161.92 Bohr mag/cell
     absolute magnetization    =   168.44 Bohr mag/cell

     iteration # 38     ecut=    60.00 Ry     beta= 0.20
     Davidson diagonalization with overlap
     ethr =  2.28E-10,  avg # of iterations =  7.0

     negative rho (up, down):  2.372E-02 1.964E-02

     total cpu time spent up to now is    15143.3 secs

     total energy              =  -21096.07515770 Ry
     Harris-Foulkes estimate   =  -21096.07531093 Ry
     estimated scf accuracy    <       0.00000122 Ry

     total magnetization       =   161.92 Bohr mag/cell
     absolute magnetization    =   168.44 Bohr mag/cell

     iteration # 39     ecut=    60.00 Ry     beta= 0.20
     Davidson diagonalization with overlap
     ethr =  1.18E-10,  avg # of iterations = 12.6

     negative rho (up, down):  2.364E-02 1.964E-02

     total cpu time spent up to now is    15979.4 secs

     total energy              =  -21096.07515823 Ry
     Harris-Foulkes estimate   =  -21096.07515820 Ry
     estimated scf accuracy    <       0.00000044 Ry

     total magnetization       =   161.93 Bohr mag/cell
     absolute magnetization    =   168.45 Bohr mag/cell

     iteration # 40     ecut=    60.00 Ry     beta= 0.20
     Davidson diagonalization with overlap
     ethr =  4.26E-11,  avg # of iterations =  6.3

     negative rho (up, down):  2.364E-02 1.964E-02

     total cpu time spent up to now is    16290.3 secs

     total energy              =  -21096.07511832 Ry
     Harris-Foulkes estimate   =  -21096.07515829 Ry
     estimated scf accuracy    <       0.00000020 Ry

     total magnetization       =   161.93 Bohr mag/cell
     absolute magnetization    =   168.45 Bohr mag/cell

     iteration # 41     ecut=    60.00 Ry     beta= 0.20
     Davidson diagonalization with overlap
     ethr =  1.89E-11,  avg # of iterations =  6.8

     negative rho (up, down):  2.366E-02 1.962E-02

     total cpu time spent up to now is    16872.8 secs

     total energy              =  -21096.07509615 Ry
     Harris-Foulkes estimate   =  -21096.07511837 Ry
     estimated scf accuracy    <       0.00000009 Ry

     total magnetization       =   161.93 Bohr mag/cell
     absolute magnetization    =   168.44 Bohr mag/cell

     iteration # 42     ecut=    60.00 Ry     beta= 0.20
     Davidson diagonalization with overlap
     ethr =  8.46E-12,  avg # of iterations =  6.1

     negative rho (up, down):  2.355E-02 1.964E-02

     total cpu time spent up to now is    17204.1 secs

     total energy              =  -21096.07510427 Ry
     Harris-Foulkes estimate   =  -21096.07509616 Ry
     estimated scf accuracy    <       0.00000008 Ry

     total magnetization       =   161.93 Bohr mag/cell
     absolute magnetization    =   168.44 Bohr mag/cell

     iteration # 43     ecut=    60.00 Ry     beta= 0.20
     Davidson diagonalization with overlap
     ethr =  7.31E-12,  avg # of iterations =  7.5

     negative rho (up, down):  2.351E-02 1.965E-02

     total cpu time spent up to now is    17588.7 secs

     total energy              =  -21096.07511498 Ry
     Harris-Foulkes estimate   =  -21096.07510428 Ry
     estimated scf accuracy    <       0.00000004 Ry

     total magnetization       =   161.93 Bohr mag/cell
     absolute magnetization    =   168.44 Bohr mag/cell

     iteration # 44     ecut=    60.00 Ry     beta= 0.20
     Davidson diagonalization with overlap
     ethr =  4.07E-12,  avg # of iterations =  5.5

     negative rho (up, down):  2.350E-02 1.964E-02

     total cpu time spent up to now is    17777.2 secs

     total energy              =  -21096.07511939 Ry
     Harris-Foulkes estimate   =  -21096.07511498 Ry
     estimated scf accuracy    <       0.00000002 Ry

     total magnetization       =   161.93 Bohr mag/cell
     absolute magnetization    =   168.44 Bohr mag/cell

     iteration # 45     ecut=    60.00 Ry     beta= 0.20
     Davidson diagonalization with overlap
     ethr =  2.24E-12,  avg # of iterations =  7.4

     negative rho (up, down):  2.349E-02 1.964E-02

     total cpu time spent up to now is    18159.1 secs

     total energy              =  -21096.07512393 Ry
     Harris-Foulkes estimate   =  -21096.07511940 Ry
     estimated scf accuracy    <       0.00000001 Ry

     total magnetization       =   161.93 Bohr mag/cell
     absolute magnetization    =   168.44 Bohr mag/cell

     iteration # 46     ecut=    60.00 Ry     beta= 0.20
     Davidson diagonalization with overlap
     ethr =  1.08E-12,  avg # of iterations =  8.1

     negative rho (up, down):  2.348E-02 1.963E-02

     Magnetic moment per site:
     atom:    1    charge:   13.4538    magn:    2.5487    constr:    0.0000
     atom:    2    charge:   13.4657    magn:    2.3166    constr:    0.0000
     atom:    3    charge:   13.4528    magn:    2.5457    constr:    0.0000
     atom:    4    charge:   13.4639    magn:    2.3496    constr:    0.0000
     atom:    5    charge:   13.4690    magn:    2.3306    constr:    0.0000
     atom:    6    charge:   13.4554    magn:    2.5305    constr:    0.0000
     atom:    7    charge:   13.4744    magn:    2.2899    constr:    0.0000
     atom:    8    charge:   13.4559    magn:    2.5275    constr:    0.0000
     atom:    9    charge:   13.4534    magn:    2.5453    constr:    0.0000
     atom:   10    charge:   13.4534    magn:    2.5452    constr:    0.0000
     atom:   11    charge:   13.4648    magn:    2.3413    constr:    0.0000
     atom:   12    charge:   13.4648    magn:    2.3413    constr:    0.0000
     atom:   13    charge:   13.4683    magn:    2.3458    constr:    0.0000
     atom:   14    charge:   13.4683    magn:    2.3458    constr:    0.0000
     atom:   15    charge:   13.4564    magn:    2.5293    constr:    0.0000
     atom:   16    charge:   13.4563    magn:    2.5295    constr:    0.0000
     atom:   17    charge:   13.4533    magn:    2.5426    constr:    0.0000
     atom:   18    charge:   13.4640    magn:    2.3520    constr:    0.0000
     atom:   19    charge:   13.4534    magn:    2.5427    constr:    0.0000
     atom:   20    charge:   13.4632    magn:    2.3471    constr:    0.0000
     atom:   21    charge:   13.4710    magn:    2.3175    constr:    0.0000
     atom:   22    charge:   13.4573    magn:    2.5204    constr:    0.0000
     atom:   23    charge:   13.4709    magn:    2.3190    constr:    0.0000
     atom:   24    charge:   13.4642    magn:    2.4797    constr:    0.0000
     atom:   25    charge:   13.4528    magn:    2.5427    constr:    0.0000
     atom:   26    charge:   13.4536    magn:    2.5471    constr:    0.0000
     atom:   27    charge:   13.4643    magn:    2.3498    constr:    0.0000
     atom:   28    charge:   13.4649    magn:    2.3401    constr:    0.0000
     atom:   29    charge:   13.4629    magn:    2.3088    constr:    0.0000
     atom:   30    charge:   13.4739    magn:    2.2794    constr:    0.0000
     atom:   31    charge:   13.4600    magn:    2.5228    constr:    0.0000
     atom:   32    charge:   13.4565    magn:    2.5292    constr:    0.0000
     atom:   33    charge:   13.4533    magn:    2.5425    constr:    0.0000
     atom:   34    charge:   13.4640    magn:    2.3520    constr:    0.0000
     atom:   35    charge:   13.4534    magn:    2.5426    constr:    0.0000
     atom:   36    charge:   13.4632    magn:    2.3468    constr:    0.0000
     atom:   37    charge:   13.4711    magn:    2.3172    constr:    0.0000
     atom:   38    charge:   13.4573    magn:    2.5204    constr:    0.0000
     atom:   39    charge:   13.4709    magn:    2.3188    constr:    0.0000
     atom:   40    charge:   13.4638    magn:    2.4826    constr:    0.0000
     atom:   41    charge:   13.4536    magn:    2.5470    constr:    0.0000
     atom:   42    charge:   13.4528    magn:    2.5427    constr:    0.0000
     atom:   43    charge:   13.4649    magn:    2.3400    constr:    0.0000
     atom:   44    charge:   13.4643    magn:    2.3497    constr:    0.0000
     atom:   45    charge:   13.4738    magn:    2.2795    constr:    0.0000
     atom:   46    charge:   13.4630    magn:    2.3073    constr:    0.0000
     atom:   47    charge:   13.4565    magn:    2.5294    constr:    0.0000
     atom:   48    charge:   13.4604    magn:    2.5205    constr:    0.0000
     atom:   49    charge:   13.4528    magn:    2.5458    constr:    0.0000
     atom:   50    charge:   13.4635    magn:    2.3321    constr:    0.0000
     atom:   51    charge:   13.4538    magn:    2.5484    constr:    0.0000
     atom:   52    charge:   13.4639    magn:    2.3491    constr:    0.0000
     atom:   53    charge:   13.4740    magn:    2.2924    constr:    0.0000
     atom:   54    charge:   13.4508    magn:    2.2533    constr:    0.0000
     atom:   55    charge:   13.4691    magn:    2.3293    constr:    0.0000
     atom:   56    charge:   13.4562    magn:    2.5274    constr:    0.0000
     atom:   57    charge:   13.4534    magn:    2.5452    constr:    0.0000
     atom:   58    charge:   13.4534    magn:    2.5452    constr:    0.0000
     atom:   59    charge:   13.4642    magn:    2.3509    constr:    0.0000
     atom:   60    charge:   13.4642    magn:    2.3509    constr:    0.0000
     atom:   61    charge:   13.4685    magn:    2.3440    constr:    0.0000
     atom:   62    charge:   13.4686    magn:    2.3439    constr:    0.0000
     atom:   63    charge:   13.4603    magn:    2.5216    constr:    0.0000
     atom:   64    charge:   13.4600    magn:    2.5239    constr:    0.0000
     atom:   65    charge:    1.3555    magn:   -0.0022    constr:    0.0000
     atom:   66    charge:    0.4388    magn:    0.0008    constr:    0.0000
     atom:   67    charge:    0.4381    magn:    0.0017    constr:    0.0000
     atom:   68    charge:    0.4387    magn:    0.0007    constr:    0.0000

     total cpu time spent up to now is    18556.6 secs

     End of self-consistent calculation

 ------ SPIN UP ------------


          k = 0.0000 0.0000 0.0000 (128403 PWs)   bands (ev):

   -90.4711 -90.4552 -90.4538 -90.4537 -90.4526 -90.4509 -90.4424 -90.4423
   -90.4405 -90.4403 -90.4372 -90.4363 -90.4356 -90.4345 -90.4331 -90.4329
   -90.4295 -90.4252 -90.4234 -90.4224 -90.4222 -90.4215 -90.4211 -90.4209
   -90.4114 -90.4109 -90.4083 -90.3971 -90.3962 -90.3638 -90.3603 -90.3573
   -90.3293 -90.3129 -90.3098 -90.3075 -90.3071 -90.3001 -90.2962 -90.2932
   -90.2910 -90.2875 -90.2864 -90.2859 -90.2828 -90.2815 -90.2811 -90.2807
   -90.2782 -90.2769 -90.2760 -90.2755 -90.2748 -90.2689 -90.2668 -90.2658
   -90.2629 -90.2598 -90.2568 -90.2549 -90.2383 -90.2368 -90.2341 -90.2276
   -56.6675 -56.6446 -56.6428 -56.6426 -56.6416 -56.6392 -56.6367 -56.6336
   -56.6302 -56.6295 -56.6267 -56.6259 -56.6228 -56.6221 -56.6210 -56.6205
   -56.6179 -56.6174 -56.6152 -56.6144 -56.6131 -56.6124 -56.6118 -56.6064
   -56.6041 -56.6007 -56.5994 -56.5941 -56.5919 -56.5883 -56.5825 -56.5796
   -56.5769 -56.5761 -56.5656 -56.5650 -56.5546 -56.5539 -56.5536 -56.5535
   -56.5474 -56.5450 -56.5356 -56.5349 -56.5333 -56.5311 -56.5107 -56.4957
   -56.4858 -56.4813 -56.4802 -56.4793 -56.4776 -56.4767 -56.4752 -56.4742
   -56.4688 -56.4686 -56.4673 -56.4640 -56.4636 -56.4617 -56.4593 -56.4570
   -56.4545 -56.4523 -56.4501 -56.4456 -56.4446 -56.4444 -56.4426 -56.4415
   -56.4334 -56.4303 -56.4302 -56.4273 -56.4250 -56.4235 -56.4235 -56.4179
   -56.4097 -56.4095 -56.4081 -56.4079 -56.4048 -56.4018 -56.4006 -56.4005
   -56.3997 -56.3976 -56.3964 -56.3923 -56.3895 -56.3863 -56.3825 -56.3778
   -56.3775 -56.3754 -56.3709 -56.3702 -56.3683 -56.3668 -56.3631 -56.3583
   -56.3577 -56.3554 -56.3502 -56.3490 -56.3451 -56.3445 -56.3445 -56.3420
   -56.3418 -56.3400 -56.3383 -56.3370 -56.3335 -56.3327 -56.3324 -56.3295
   -56.3293 -56.3270 -56.3269 -56.3236 -56.3215 -56.3201 -56.3172 -56.3159
   -56.3145 -56.3114 -56.3109 -56.3085 -56.3084 -56.3021 -56.3016 -56.2979
   -56.2978 -56.2971 -56.2970 -56.2916 -56.2886 -56.2881 -56.2828 -56.2804
   -56.2792 -56.2724 -56.2721 -56.2699 -56.2691 -56.2670 -56.2666 -56.2546
   -56.2542 -56.2535 -56.2526 -56.2497 -56.2462 -56.2423 -56.2398 -56.2369
   -56.2367 -56.2331 -56.2305 -56.2295 -56.2272 -56.2269 -56.2264 -56.2227
   -56.2197 -56.2185 -56.2172 -56.2154 -56.2118 -56.2072 -56.2028 -56.2008
   -56.1956 -56.1890 -56.1884 -56.1871 -56.1815 -56.1800 -56.1793 -56.1786
   -56.1776 -56.1767 -56.1755 -56.1752 -56.1739 -56.1717 -56.1704 -56.1668
   -21.3718 -11.5307 -11.5254 -10.2406  -9.0360  -8.6081  -8.5594  -8.5559
    -8.5542  -8.2200  -8.0844  -8.0178  -7.6048  -7.5707  -7.5692  -7.5690
    -7.4395  -7.1471  -7.1342  -7.0973  -6.9309  -6.9304  -6.9096  -6.9087
    -6.8923  -6.8471  -6.8218  -6.7494  -6.7422  -6.4972  -6.4964  -6.4923
    -6.4688  -6.4483  -6.4060  -6.3607  -6.3546  -6.3527  -6.3521  -6.3493
    -6.3461  -6.3430  -6.3393  -6.3318  -6.3284  -6.3277  -6.3256  -6.3203
    -6.3034  -6.2881  -6.2811  -6.2771  -6.2585  -6.2548  -6.2512  -6.2488
    -6.2390  -6.2128  -6.1448  -6.1429  -6.1391  -6.1375  -6.0728  -6.0718
    -6.0633  -6.0504  -5.7873  -5.7785  -5.7603  -5.7546  -5.7527  -5.7389
    -5.6419  -5.6398  -5.6121  -5.5905  -5.5817  -5.5804  -5.5709  -5.5702
    -5.5610  -5.5592  -5.5577  -5.5564  -5.5396  -5.5387  -5.5371  -5.5312
    -5.5285  -5.5084  -5.5068  -5.4968  -5.4948  -5.4884  -5.4851  -5.4769
    -5.4767  -5.4722  -5.4651  -5.4408  -5.4406  -5.4395  -5.4308  -5.4249
    -5.4229  -5.4126  -5.4111  -5.4029  -5.3841  -5.3772  -5.3756  -5.3396
    -5.2984  -5.2460  -5.2318  -5.2043  -5.1977  -5.1936  -5.1794  -5.1778
    -5.1000  -5.0774  -5.0121  -5.0071  -4.9971  -4.9931  -4.9889  -4.9793
    -4.9748  -4.9655  -4.9601  -4.9334  -4.9243  -4.9193  -4.9069  -4.9061
    -4.9030  -4.8766  -4.8686  -4.8681  -4.8614  -4.8557  -4.8529  -4.8523
    -4.8468  -4.8238  -4.7907  -4.7898  -4.7252  -4.7184  -4.7178  -4.7084
    -4.7055  -4.6986  -4.6985  -4.6713  -4.6478  -4.6458  -4.6423  -4.6280
    -4.6103  -4.5872  -4.5641  -4.5592  -4.5583  -4.5565  -4.5415  -4.5300
    -4.5268  -4.4906  -4.4803  -4.4800  -4.4759  -4.4635  -4.4615  -4.4529
    -4.4478  -4.4391  -4.4335  -4.4282  -4.4274  -4.4113  -4.4085  -4.4044
    -4.3966  -4.3899  -4.3738  -4.3578  -4.3334  -4.3034  -4.2474  -4.1826
    -4.1730  -4.0401  -4.0075  -3.9120  -3.8972  -3.8887  -3.8876  -3.8849
    -3.8833  -3.8750  -3.8670  -3.8646  -3.8643  -3.8283  -3.8217  -3.8009
    -3.7998  -3.7941  -3.7628  -3.7543  -3.7273  -3.7220  -3.7177  -3.7161
    -3.6896  -3.6890  -3.6839  -3.6750  -3.6730  -3.6727  -3.6658  -3.6500
    -3.6275  -3.6105  -3.6074  -3.5860  -3.5821  -3.5817  -3.5808  -3.5760
    -3.5535  -3.5472  -3.5433  -3.5395  -3.5388  -3.5379  -3.5247  -3.5222
    -3.5044  -3.4998  -3.4927  -3.4900  -3.4826  -3.4818  -3.4779  -3.4682
    -3.4647  -3.4616  -3.4595  -3.4539  -3.4528  -3.4513  -3.4499  -3.4448
    -3.4376  -3.4272  -3.4268  -3.4228  -3.4228  -3.4099  -3.4060  -3.4020
    -3.3994  -3.3968  -3.3946  -3.3879  -3.3785  -3.3767  -3.3499  -3.3474
    -3.3451  -3.3450  -3.3441  -3.3428  -3.3344  -3.3307  -3.3302  -3.3202
    -3.3199  -3.2983  -3.2900  -3.2876  -3.2862  -3.2347  -3.2332  -3.2301
    -3.2284  -3.2223  -3.2055  -3.2007  -3.1861  -3.1842  -3.1818  -3.0797
    -3.0797  -3.0754  -3.0664  -3.0638  -3.0582  -3.0578  -3.0428  -3.0425
    -3.0403  -3.0382  -3.0371  -3.0224  -3.0185  -3.0025  -2.9992  -2.9964
    -2.9794  -2.9788  -2.9787  -2.9763  -2.8901  -2.8838  -2.7749  -2.5939
    -2.5632  -2.5470  -2.5411  -2.5296  -2.5143  -2.4586  -2.4557  -2.4485
    -2.4405  -2.3885  -2.3713  -2.3232  -2.3200  -2.3164  -2.3056  -2.2733
    -2.2621  -2.2489  -2.2368  -2.2168  -2.1985  -2.1063  -2.0975  -2.0314
    -2.0260  -1.9929  -1.9493  -1.9281  -1.7477  -1.3054  -1.2865  -1.2712
    -1.2678  -1.2618  -1.2110  -1.0976  -0.5001  -0.3519  -0.3389  -0.3373
    -0.3096  -0.3027  -0.2989

          k = 0.0000 0.2652 0.0000 (128375 PWs)   bands (ev):

   -90.4697 -90.4602 -90.4533 -90.4527 -90.4508 -90.4468 -90.4459 -90.4447
   -90.4414 -90.4405 -90.4373 -90.4359 -90.4350 -90.4331 -90.4325 -90.4295
   -90.4292 -90.4283 -90.4247 -90.4232 -90.4226 -90.4221 -90.4211 -90.4180
   -90.4118 -90.4108 -90.4082 -90.3970 -90.3963 -90.3639 -90.3603 -90.3573
   -90.3278 -90.3177 -90.3099 -90.3062 -90.3046 -90.2992 -90.2941 -90.2936
   -90.2919 -90.2886 -90.2876 -90.2858 -90.2853 -90.2823 -90.2812 -90.2786
   -90.2781 -90.2763 -90.2756 -90.2743 -90.2739 -90.2699 -90.2681 -90.2651
   -90.2629 -90.2615 -90.2558 -90.2545 -90.2388 -90.2367 -90.2330 -90.2284
   -56.6654 -56.6508 -56.6437 -56.6421 -56.6403 -56.6387 -56.6351 -56.6320
   -56.6300 -56.6299 -56.6274 -56.6269 -56.6254 -56.6216 -56.6203 -56.6183
   -56.6174 -56.6169 -56.6159 -56.6148 -56.6139 -56.6109 -56.6081 -56.6075
   -56.6022 -56.6007 -56.6004 -56.5949 -56.5873 -56.5854 -56.5832 -56.5753
   -56.5737 -56.5682 -56.5620 -56.5614 -56.5566 -56.5557 -56.5512 -56.5491
   -56.5418 -56.5402 -56.5371 -56.5348 -56.5312 -56.5241 -56.5089 -56.5050
   -56.5000 -56.4960 -56.4905 -56.4876 -56.4870 -56.4776 -56.4754 -56.4720
   -56.4711 -56.4695 -56.4694 -56.4660 -56.4641 -56.4611 -56.4595 -56.4575
   -56.4557 -56.4544 -56.4509 -56.4493 -56.4471 -56.4450 -56.4432 -56.4422
   -56.4408 -56.4381 -56.4372 -56.4353 -56.4322 -56.4233 -56.4230 -56.4178
   -56.4168 -56.4156 -56.4124 -56.4065 -56.4049 -56.4019 -56.4006 -56.3988
   -56.3915 -56.3898 -56.3880 -56.3867 -56.3853 -56.3823 -56.3787 -56.3773
   -56.3764 -56.3736 -56.3725 -56.3701 -56.3684 -56.3644 -56.3605 -56.3585
   -56.3555 -56.3529 -56.3520 -56.3505 -56.3490 -56.3482 -56.3463 -56.3460
   -56.3435 -56.3414 -56.3394 -56.3384 -56.3356 -56.3351 -56.3341 -56.3326
   -56.3277 -56.3264 -56.3192 -56.3177 -56.3162 -56.3151 -56.3135 -56.3120
   -56.3103 -56.3091 -56.3087 -56.3035 -56.3026 -56.3020 -56.3003 -56.2982
   -56.2939 -56.2916 -56.2902 -56.2894 -56.2866 -56.2861 -56.2803 -56.2758
   -56.2745 -56.2728 -56.2726 -56.2708 -56.2689 -56.2669 -56.2652 -56.2564
   -56.2535 -56.2512 -56.2501 -56.2484 -56.2464 -56.2454 -56.2425 -56.2407
   -56.2371 -56.2359 -56.2301 -56.2293 -56.2265 -56.2246 -56.2195 -56.2188
   -56.2179 -56.2162 -56.2128 -56.2116 -56.2100 -56.2062 -56.2033 -56.2019
   -56.1951 -56.1930 -56.1923 -56.1888 -56.1869 -56.1858 -56.1833 -56.1821
   -56.1809 -56.1792 -56.1785 -56.1769 -56.1763 -56.1749 -56.1723 -56.1689
   -21.3718 -11.5308 -11.5255 -10.1243  -9.2465  -8.9286  -8.7120  -8.4655
    -8.2929  -8.1959  -7.9948  -7.8237  -7.6453  -7.6065  -7.4855  -7.3895
    -7.2909  -7.2207  -7.1482  -7.0615  -6.9721  -6.9239  -6.8716  -6.8505
    -6.8428  -6.8250  -6.7970  -6.7939  -6.7770  -6.6408  -6.5608  -6.5304
    -6.4981  -6.4943  -6.4840  -6.4633  -6.4525  -6.4485  -6.4399  -6.4281
    -6.4182  -6.3954  -6.3884  -6.3820  -6.3572  -6.3552  -6.3288  -6.3193
    -6.3041  -6.2940  -6.2757  -6.2713  -6.2507  -6.2264  -6.2050  -6.1978
    -6.1744  -6.1726  -6.1658  -6.1608  -6.1380  -6.0452  -6.0164  -6.0015
    -5.9940  -5.9730  -5.9465  -5.8646  -5.8306  -5.8101  -5.7601  -5.7419
    -5.6990  -5.6928  -5.6521  -5.6074  -5.5967  -5.5873  -5.5797  -5.5678
    -5.5635  -5.5540  -5.5416  -5.5363  -5.5287  -5.5255  -5.5238  -5.5217
    -5.5067  -5.4925  -5.4870  -5.4834  -5.4784  -5.4644  -5.4584  -5.4514
    -5.4462  -5.4411  -5.4357  -5.4343  -5.4285  -5.4245  -5.4212  -5.4024
    -5.3839  -5.3607  -5.3472  -5.3393  -5.3270  -5.3248  -5.3053  -5.2876
    -5.2863  -5.2731  -5.2677  -5.2602  -5.1892  -5.1810  -5.1625  -5.1327
    -5.1034  -5.1028  -5.0927  -5.0745  -5.0559  -4.9983  -4.9888  -4.9837
    -4.9749  -4.9708  -4.9648  -4.9516  -4.9498  -4.9408  -4.9388  -4.9247
    -4.9220  -4.9060  -4.8866  -4.8830  -4.8765  -4.8648  -4.8425  -4.8309
    -4.8259  -4.7886  -4.7831  -4.7551  -4.7506  -4.7407  -4.7268  -4.7195
    -4.7083  -4.6955  -4.6878  -4.6862  -4.6722  -4.6667  -4.6617  -4.6524
    -4.6403  -4.6362  -4.6317  -4.6179  -4.6131  -4.5832  -4.5657  -4.5622
    -4.5324  -4.5154  -4.5131  -4.4911  -4.4819  -4.4746  -4.4493  -4.4385
    -4.4349  -4.4201  -4.4129  -4.4021  -4.3958  -4.3583  -4.3395  -4.3167
    -4.3015  -4.2880  -4.2640  -4.2357  -4.2205  -4.2165  -4.1773  -4.1328
    -4.0326  -4.0151  -4.0033  -3.9742  -3.9623  -3.9449  -3.9394  -3.9033
    -3.8945  -3.8774  -3.8732  -3.8569  -3.8537  -3.8427  -3.8238  -3.8202
    -3.8195  -3.8062  -3.8030  -3.7912  -3.7718  -3.7583  -3.7346  -3.7115
    -3.6952  -3.6850  -3.6747  -3.6729  -3.6651  -3.6545  -3.6499  -3.6445
    -3.6422  -3.6387  -3.6274  -3.6202  -3.6155  -3.6073  -3.5835  -3.5819
    -3.5646  -3.5567  -3.5476  -3.5373  -3.5272  -3.5220  -3.5163  -3.5122
    -3.5074  -3.5020  -3.4956  -3.4921  -3.4902  -3.4771  -3.4756  -3.4703
    -3.4641  -3.4564  -3.4473  -3.4450  -3.4387  -3.4300  -3.4228  -3.4184
    -3.4084  -3.4077  -3.4041  -3.4003  -3.3974  -3.3930  -3.3916  -3.3902
    -3.3727  -3.3676  -3.3630  -3.3558  -3.3497  -3.3478  -3.3430  -3.3389
    -3.3321  -3.3294  -3.3278  -3.3255  -3.3055  -3.3024  -3.2907  -3.2809
    -3.2762  -3.2724  -3.2500  -3.2312  -3.2216  -3.1983  -3.1938  -3.1819
    -3.1758  -3.1753  -3.1662  -3.1579  -3.1495  -3.1480  -3.1427  -3.1395
    -3.1309  -3.1284  -3.1026  -3.0714  -3.0645  -3.0591  -3.0528  -3.0522
    -3.0451  -3.0334  -3.0271  -3.0111  -3.0096  -3.0032  -2.9879  -2.9763
    -2.9424  -2.8797  -2.8724  -2.8608  -2.8481  -2.6556  -2.6371  -2.6264
    -2.6157  -2.5977  -2.5871  -2.5755  -2.5647  -2.5555  -2.5202  -2.4820
    -2.4741  -2.4600  -2.4521  -2.4415  -2.4297  -2.4226  -2.4130  -2.3905
    -2.3833  -2.3449  -2.3403  -2.3206  -2.2846  -2.2572  -2.2279  -2.1603
    -2.1291  -2.0527  -1.8855  -1.7519  -1.6014  -1.4444  -1.4318  -1.3617
    -1.1852  -1.1737  -1.0173  -1.0088  -0.9179  -0.8717  -0.8253  -0.7009
    -0.6284  -0.4499  -0.4433

          k = 0.0000-0.5303 0.0000 (128388 PWs)   bands (ev):

   -90.4661 -90.4656 -90.4511 -90.4508 -90.4506 -90.4478 -90.4468 -90.4467
   -90.4406 -90.4405 -90.4401 -90.4348 -90.4327 -90.4322 -90.4321 -90.4288
   -90.4288 -90.4288 -90.4254 -90.4253 -90.4233 -90.4224 -90.4209 -90.4145
   -90.4142 -90.4104 -90.4079 -90.3971 -90.3964 -90.3639 -90.3603 -90.3573
   -90.3241 -90.3233 -90.3099 -90.3063 -90.3013 -90.3000 -90.2936 -90.2920
   -90.2917 -90.2906 -90.2880 -90.2871 -90.2855 -90.2832 -90.2805 -90.2799
   -90.2767 -90.2764 -90.2752 -90.2729 -90.2728 -90.2705 -90.2679 -90.2662
   -90.2637 -90.2616 -90.2557 -90.2539 -90.2391 -90.2366 -90.2308 -90.2304
   -56.6595 -56.6588 -56.6433 -56.6431 -56.6408 -56.6343 -56.6340 -56.6335
   -56.6320 -56.6319 -56.6264 -56.6260 -56.6249 -56.6219 -56.6202 -56.6197
   -56.6161 -56.6158 -56.6152 -56.6144 -56.6136 -56.6101 -56.6084 -56.6041
   -56.6040 -56.6015 -56.5979 -56.5967 -56.5860 -56.5842 -56.5703 -56.5700
   -56.5697 -56.5694 -56.5634 -56.5599 -56.5533 -56.5500 -56.5452 -56.5441
   -56.5361 -56.5343 -56.5321 -56.5281 -56.5277 -56.5264 -56.5201 -56.5143
   -56.5115 -56.5115 -56.4994 -56.4950 -56.4939 -56.4932 -56.4876 -56.4794
   -56.4719 -56.4689 -56.4666 -56.4648 -56.4644 -56.4612 -56.4584 -56.4563
   -56.4561 -56.4485 -56.4479 -56.4477 -56.4452 -56.4444 -56.4411 -56.4387
   -56.4386 -56.4359 -56.4343 -56.4339 -56.4331 -56.4265 -56.4264 -56.4242
   -56.4226 -56.4220 -56.4207 -56.4175 -56.4151 -56.4102 -56.4090 -56.4069
   -56.4056 -56.3957 -56.3909 -56.3892 -56.3812 -56.3753 -56.3751 -56.3744
   -56.3702 -56.3657 -56.3655 -56.3626 -56.3599 -56.3565 -56.3554 -56.3511
   -56.3509 -56.3501 -56.3496 -56.3486 -56.3477 -56.3457 -56.3452 -56.3441
   -56.3411 -56.3393 -56.3387 -56.3364 -56.3345 -56.3342 -56.3328 -56.3306
   -56.3303 -56.3265 -56.3257 -56.3235 -56.3230 -56.3165 -56.3160 -56.3115
   -56.3096 -56.3070 -56.3062 -56.3050 -56.3022 -56.2982 -56.2949 -56.2932
   -56.2892 -56.2879 -56.2865 -56.2847 -56.2847 -56.2785 -56.2771 -56.2744
   -56.2742 -56.2736 -56.2712 -56.2705 -56.2701 -56.2657 -56.2638 -56.2596
   -56.2591 -56.2550 -56.2497 -56.2485 -56.2463 -56.2445 -56.2406 -56.2391
   -56.2383 -56.2334 -56.2285 -56.2208 -56.2192 -56.2176 -56.2172 -56.2147
   -56.2129 -56.2089 -56.2079 -56.2074 -56.2070 -56.2060 -56.2037 -56.2035
   -56.1992 -56.1983 -56.1980 -56.1956 -56.1946 -56.1930 -56.1905 -56.1898
   -56.1888 -56.1853 -56.1807 -56.1793 -56.1765 -56.1752 -56.1719 -56.1702
   -21.3718 -11.5309 -11.5255  -9.7871  -9.7803  -8.7161  -8.6620  -8.6288
    -8.5750  -8.1090  -7.7605  -7.7455  -7.6080  -7.5460  -7.2514  -7.2470
    -7.2205  -7.1837  -7.1187  -7.1039  -6.9805  -6.9766  -6.9519  -6.9116
    -6.8281  -6.8224  -6.7105  -6.7090  -6.6981  -6.6963  -6.6842  -6.6773
    -6.6527  -6.6513  -6.6439  -6.6379  -6.5502  -6.5474  -6.4910  -6.4775
    -6.4744  -6.4491  -6.3322  -6.3268  -6.3260  -6.3203  -6.2535  -6.2511
    -6.2437  -6.2390  -6.2315  -6.2214  -6.2200  -6.2092  -6.1973  -6.1940
    -6.1872  -6.1810  -6.0866  -6.0739  -6.0725  -6.0665  -6.0562  -6.0550
    -6.0421  -6.0328  -5.9535  -5.9407  -5.8894  -5.8786  -5.8427  -5.8398
    -5.7707  -5.7573  -5.6335  -5.6177  -5.5886  -5.5880  -5.5627  -5.5593
    -5.5529  -5.5428  -5.5397  -5.5326  -5.5251  -5.5193  -5.5138  -5.5039
    -5.4977  -5.4820  -5.4816  -5.4800  -5.4747  -5.4728  -5.4665  -5.4646
    -5.4276  -5.4167  -5.3824  -5.3777  -5.3478  -5.3363  -5.3333  -5.3302
    -5.3070  -5.3022  -5.2931  -5.2929  -5.2852  -5.2770  -5.2766  -5.2752
    -5.2702  -5.2636  -5.2607  -5.2494  -5.2197  -5.2167  -5.2130  -5.2092
    -5.2013  -5.1922  -5.0737  -5.0444  -5.0240  -5.0017  -4.9630  -4.9590
    -4.9569  -4.9560  -4.9470  -4.9468  -4.9420  -4.9327  -4.9287  -4.9259
    -4.9258  -4.9146  -4.9082  -4.9054  -4.8993  -4.8954  -4.8668  -4.8638
    -4.8617  -4.8602  -4.8542  -4.8061  -4.8052  -4.7939  -4.7897  -4.7805
    -4.7697  -4.7667  -4.7366  -4.7289  -4.7209  -4.7198  -4.6949  -4.6941
    -4.6793  -4.6625  -4.6402  -4.6230  -4.6100  -4.6076  -4.5745  -4.5723
    -4.4823  -4.4726  -4.4658  -4.4570  -4.4520  -4.4427  -4.4299  -4.4225
    -4.4190  -4.4048  -4.3947  -4.3706  -4.2826  -4.2802  -4.1547  -4.1538
    -4.1444  -4.1397  -4.1350  -4.1318  -4.0947  -4.0852  -4.0748  -4.0508
    -4.0103  -3.9918  -3.9863  -3.9861  -3.9642  -3.9628  -3.9550  -3.9541
    -3.9487  -3.9469  -3.9395  -3.9262  -3.9256  -3.9237  -3.9034  -3.8747
    -3.8169  -3.8127  -3.8002  -3.7866  -3.7856  -3.7796  -3.7714  -3.7465
    -3.7438  -3.7222  -3.6751  -3.6713  -3.6546  -3.6527  -3.6477  -3.6415
    -3.6395  -3.6343  -3.6341  -3.6322  -3.6246  -3.6199  -3.6194  -3.6116
    -3.6075  -3.6007  -3.5973  -3.5931  -3.5829  -3.5816  -3.5797  -3.5468
    -3.5130  -3.4896  -3.4875  -3.4719  -3.4705  -3.4675  -3.4655  -3.4557
    -3.4505  -3.4461  -3.4375  -3.4338  -3.4301  -3.4267  -3.4250  -3.4197
    -3.4078  -3.4074  -3.4044  -3.3972  -3.3946  -3.3870  -3.3778  -3.3626
    -3.3507  -3.3405  -3.3401  -3.3299  -3.3255  -3.2903  -3.2872  -3.2779
    -3.2763  -3.2729  -3.2666  -3.2623  -3.2369  -3.2287  -3.2230  -3.2140
    -3.1975  -3.1917  -3.1914  -3.1880  -3.1843  -3.1820  -3.1776  -3.1732
    -3.1678  -3.1666  -3.1638  -3.1623  -3.1590  -3.1569  -3.1532  -3.1518
    -3.1474  -3.1342  -3.1318  -3.0938  -3.0848  -3.0594  -3.0490  -2.9921
    -2.9828  -2.9806  -2.9406  -2.9346  -2.8928  -2.8914  -2.8816  -2.8788
    -2.7676  -2.7630  -2.7606  -2.7572  -2.7387  -2.7355  -2.6921  -2.6916
    -2.6789  -2.6745  -2.6654  -2.6473  -2.6258  -2.6067  -2.6063  -2.5950
    -2.5914  -2.5551  -2.5119  -2.4913  -2.4779  -2.4657  -2.4381  -2.4281
    -2.4031  -2.3957  -2.3892  -2.3796  -2.3661  -2.3647  -2.3553  -2.3513
    -2.3397  -2.2002  -2.0111  -2.0012  -1.8933  -1.8036  -1.3723  -1.3703
    -1.3444  -1.2118  -0.7378  -0.7289  -0.7148  -0.6119  -0.5648  -0.5577
    -0.5514  -0.5173  -0.5034

          k = 0.2500-0.0884 0.0000 (128371 PWs)   bands (ev):

   -90.4697 -90.4602 -90.4533 -90.4527 -90.4508 -90.4468 -90.4459 -90.4446
   -90.4414 -90.4407 -90.4373 -90.4359 -90.4350 -90.4331 -90.4323 -90.4294
   -90.4293 -90.4283 -90.4247 -90.4232 -90.4225 -90.4222 -90.4210 -90.4180
   -90.4118 -90.4108 -90.4082 -90.3970 -90.3963 -90.3639 -90.3603 -90.3573
   -90.3279 -90.3177 -90.3099 -90.3062 -90.3046 -90.2992 -90.2941 -90.2936
   -90.2919 -90.2886 -90.2876 -90.2858 -90.2853 -90.2823 -90.2812 -90.2786
   -90.2781 -90.2763 -90.2756 -90.2743 -90.2738 -90.2699 -90.2681 -90.2651
   -90.2629 -90.2615 -90.2558 -90.2545 -90.2388 -90.2367 -90.2330 -90.2284
   -56.6654 -56.6508 -56.6437 -56.6421 -56.6403 -56.6387 -56.6351 -56.6320
   -56.6300 -56.6298 -56.6274 -56.6269 -56.6255 -56.6216 -56.6204 -56.6181
   -56.6174 -56.6168 -56.6159 -56.6147 -56.6139 -56.6111 -56.6081 -56.6076
   -56.6022 -56.6008 -56.6003 -56.5949 -56.5873 -56.5854 -56.5832 -56.5753
   -56.5737 -56.5682 -56.5620 -56.5614 -56.5566 -56.5557 -56.5512 -56.5491
   -56.5418 -56.5402 -56.5371 -56.5348 -56.5312 -56.5241 -56.5089 -56.5050
   -56.5000 -56.4960 -56.4905 -56.4876 -56.4870 -56.4776 -56.4754 -56.4720
   -56.4711 -56.4695 -56.4694 -56.4660 -56.4641 -56.4610 -56.4596 -56.4575
   -56.4557 -56.4544 -56.4510 -56.4493 -56.4471 -56.4450 -56.4432 -56.4422
   -56.4408 -56.4381 -56.4372 -56.4353 -56.4322 -56.4233 -56.4230 -56.4178
   -56.4168 -56.4156 -56.4124 -56.4065 -56.4049 -56.4019 -56.4006 -56.3988
   -56.3915 -56.3898 -56.3880 -56.3867 -56.3853 -56.3823 -56.3787 -56.3773
   -56.3764 -56.3736 -56.3725 -56.3701 -56.3684 -56.3644 -56.3605 -56.3585
   -56.3555 -56.3529 -56.3520 -56.3505 -56.3490 -56.3481 -56.3463 -56.3460
   -56.3435 -56.3414 -56.3394 -56.3384 -56.3356 -56.3351 -56.3341 -56.3326
   -56.3277 -56.3264 -56.3191 -56.3177 -56.3162 -56.3151 -56.3135 -56.3120
   -56.3103 -56.3090 -56.3087 -56.3035 -56.3026 -56.3020 -56.3003 -56.2982
   -56.2939 -56.2916 -56.2902 -56.2894 -56.2866 -56.2861 -56.2803 -56.2758
   -56.2745 -56.2728 -56.2726 -56.2708 -56.2689 -56.2669 -56.2651 -56.2565
   -56.2535 -56.2512 -56.2501 -56.2484 -56.2464 -56.2454 -56.2424 -56.2407
   -56.2371 -56.2359 -56.2301 -56.2293 -56.2265 -56.2246 -56.2195 -56.2187
   -56.2178 -56.2162 -56.2128 -56.2116 -56.2100 -56.2062 -56.2033 -56.2019
   -56.1951 -56.1930 -56.1923 -56.1888 -56.1869 -56.1858 -56.1833 -56.1821
   -56.1809 -56.1792 -56.1785 -56.1769 -56.1764 -56.1748 -56.1723 -56.1689
   -21.3718 -11.5307 -11.5256 -10.1243  -9.2465  -8.9286  -8.7120  -8.4655
    -8.2929  -8.1959  -7.9948  -7.8238  -7.6453  -7.6066  -7.4855  -7.3895
    -7.2909  -7.2207  -7.1482  -7.0615  -6.9721  -6.9239  -6.8716  -6.8505
    -6.8428  -6.8250  -6.7970  -6.7939  -6.7770  -6.6408  -6.5608  -6.5304
    -6.4981  -6.4943  -6.4840  -6.4633  -6.4525  -6.4485  -6.4399  -6.4281
    -6.4182  -6.3954  -6.3884  -6.3820  -6.3572  -6.3552  -6.3288  -6.3193
    -6.3041  -6.2940  -6.2757  -6.2713  -6.2507  -6.2264  -6.2050  -6.1978
    -6.1744  -6.1726  -6.1658  -6.1608  -6.1380  -6.0452  -6.0164  -6.0015
    -5.9940  -5.9730  -5.9465  -5.8646  -5.8306  -5.8101  -5.7601  -5.7419
    -5.6990  -5.6929  -5.6521  -5.6074  -5.5967  -5.5873  -5.5797  -5.5678
    -5.5635  -5.5540  -5.5416  -5.5363  -5.5287  -5.5255  -5.5238  -5.5217
    -5.5067  -5.4925  -5.4870  -5.4833  -5.4784  -5.4645  -5.4584  -5.4514
    -5.4462  -5.4411  -5.4357  -5.4343  -5.4285  -5.4245  -5.4212  -5.4024
    -5.3839  -5.3607  -5.3472  -5.3393  -5.3270  -5.3248  -5.3053  -5.2876
    -5.2863  -5.2731  -5.2677  -5.2602  -5.1892  -5.1810  -5.1625  -5.1327
    -5.1033  -5.1028  -5.0927  -5.0745  -5.0559  -4.9983  -4.9888  -4.9837
    -4.9749  -4.9708  -4.9648  -4.9515  -4.9498  -4.9408  -4.9387  -4.9247
    -4.9220  -4.9060  -4.8866  -4.8830  -4.8765  -4.8647  -4.8425  -4.8309
    -4.8259  -4.7886  -4.7831  -4.7551  -4.7506  -4.7407  -4.7268  -4.7195
    -4.7083  -4.6955  -4.6878  -4.6862  -4.6722  -4.6667  -4.6617  -4.6524
    -4.6403  -4.6362  -4.6317  -4.6180  -4.6131  -4.5832  -4.5657  -4.5622
    -4.5324  -4.5154  -4.5131  -4.4911  -4.4819  -4.4746  -4.4493  -4.4386
    -4.4349  -4.4201  -4.4129  -4.4021  -4.3957  -4.3583  -4.3395  -4.3167
    -4.3015  -4.2880  -4.2640  -4.2356  -4.2205  -4.2165  -4.1773  -4.1328
    -4.0326  -4.0151  -4.0033  -3.9742  -3.9623  -3.9449  -3.9394  -3.9033
    -3.8945  -3.8774  -3.8733  -3.8569  -3.8538  -3.8427  -3.8238  -3.8202
    -3.8195  -3.8062  -3.8030  -3.7912  -3.7718  -3.7583  -3.7346  -3.7115
    -3.6952  -3.6850  -3.6747  -3.6729  -3.6651  -3.6545  -3.6498  -3.6445
    -3.6422  -3.6387  -3.6274  -3.6202  -3.6155  -3.6073  -3.5835  -3.5819
    -3.5646  -3.5567  -3.5476  -3.5373  -3.5272  -3.5220  -3.5163  -3.5122
    -3.5074  -3.5020  -3.4956  -3.4921  -3.4902  -3.4771  -3.4756  -3.4703
    -3.4641  -3.4564  -3.4473  -3.4450  -3.4387  -3.4300  -3.4228  -3.4184
    -3.4085  -3.4076  -3.4041  -3.4003  -3.3975  -3.3930  -3.3915  -3.3902
    -3.3727  -3.3676  -3.3630  -3.3558  -3.3497  -3.3478  -3.3430  -3.3389
    -3.3322  -3.3294  -3.3278  -3.3255  -3.3055  -3.3024  -3.2907  -3.2809
    -3.2762  -3.2724  -3.2500  -3.2312  -3.2217  -3.1983  -3.1938  -3.1819
    -3.1758  -3.1753  -3.1662  -3.1580  -3.1495  -3.1479  -3.1427  -3.1396
    -3.1309  -3.1284  -3.1026  -3.0714  -3.0645  -3.0591  -3.0528  -3.0522
    -3.0451  -3.0334  -3.0271  -3.0111  -3.0096  -3.0032  -2.9879  -2.9763
    -2.9424  -2.8797  -2.8724  -2.8608  -2.8481  -2.6556  -2.6371  -2.6264
    -2.6157  -2.5977  -2.5871  -2.5755  -2.5647  -2.5555  -2.5202  -2.4820
    -2.4741  -2.4600  -2.4521  -2.4415  -2.4297  -2.4226  -2.4130  -2.3905
    -2.3833  -2.3449  -2.3403  -2.3206  -2.2846  -2.2572  -2.2279  -2.1603
    -2.1290  -2.0527  -1.8855  -1.7519  -1.6015  -1.4445  -1.4318  -1.3617
    -1.1852  -1.1737  -1.0173  -1.0088  -0.9179  -0.8717  -0.8253  -0.7009
    -0.6284  -0.4495  -0.4432

          k = 0.2500 0.1768 0.0000 (128340 PWs)   bands (ev):

   -90.4688 -90.4592 -90.4564 -90.4526 -90.4520 -90.4477 -90.4448 -90.4447
   -90.4402 -90.4382 -90.4363 -90.4359 -90.4357 -90.4331 -90.4317 -90.4312
   -90.4295 -90.4290 -90.4286 -90.4224 -90.4212 -90.4206 -90.4197 -90.4170
   -90.4132 -90.4123 -90.4070 -90.3968 -90.3967 -90.3639 -90.3603 -90.3573
   -90.3271 -90.3153 -90.3131 -90.3104 -90.3025 -90.3002 -90.2926 -90.2911
   -90.2899 -90.2892 -90.2871 -90.2866 -90.2827 -90.2816 -90.2808 -90.2807
   -90.2793 -90.2780 -90.2764 -90.2752 -90.2723 -90.2716 -90.2693 -90.2634
   -90.2627 -90.2602 -90.2572 -90.2537 -90.2380 -90.2367 -90.2333 -90.2288
   -56.6650 -56.6478 -56.6471 -56.6447 -56.6411 -56.6376 -56.6343 -56.6305
   -56.6294 -56.6291 -56.6263 -56.6239 -56.6232 -56.6225 -56.6218 -56.6210
   -56.6203 -56.6182 -56.6176 -56.6156 -56.6101 -56.6088 -56.6077 -56.6067
   -56.6038 -56.6020 -56.6014 -56.5938 -56.5858 -56.5836 -56.5792 -56.5694
   -56.5678 -56.5670 -56.5568 -56.5557 -56.5483 -56.5483 -56.5477 -56.5467
   -56.5418 -56.5381 -56.5355 -56.5297 -56.5284 -56.5283 -56.5111 -56.5050
   -56.5025 -56.4994 -56.4989 -56.4969 -56.4931 -56.4914 -56.4912 -56.4875
   -56.4820 -56.4780 -56.4720 -56.4654 -56.4647 -56.4625 -56.4608 -56.4580
   -56.4563 -56.4550 -56.4529 -56.4490 -56.4481 -56.4480 -56.4463 -56.4432
   -56.4411 -56.4405 -56.4376 -56.4349 -56.4294 -56.4243 -56.4219 -56.4195
   -56.4190 -56.4096 -56.4089 -56.4053 -56.4029 -56.4021 -56.4015 -56.3979
   -56.3979 -56.3946 -56.3907 -56.3858 -56.3857 -56.3783 -56.3760 -56.3751
   -56.3744 -56.3701 -56.3681 -56.3658 -56.3644 -56.3642 -56.3619 -56.3604
   -56.3602 -56.3583 -56.3548 -56.3543 -56.3510 -56.3485 -56.3455 -56.3450
   -56.3440 -56.3424 -56.3375 -56.3366 -56.3361 -56.3328 -56.3292 -56.3269
   -56.3220 -56.3200 -56.3188 -56.3180 -56.3170 -56.3151 -56.3133 -56.3114
   -56.3090 -56.3048 -56.3031 -56.3029 -56.3021 -56.3012 -56.3000 -56.2976
   -56.2925 -56.2850 -56.2819 -56.2809 -56.2804 -56.2801 -56.2793 -56.2781
   -56.2777 -56.2740 -56.2738 -56.2687 -56.2680 -56.2635 -56.2619 -56.2605
   -56.2575 -56.2534 -56.2533 -56.2502 -56.2478 -56.2393 -56.2355 -56.2343
   -56.2321 -56.2318 -56.2275 -56.2272 -56.2235 -56.2226 -56.2218 -56.2196
   -56.2174 -56.2171 -56.2146 -56.2104 -56.2089 -56.2067 -56.2038 -56.2028
   -56.1960 -56.1940 -56.1922 -56.1921 -56.1915 -56.1866 -56.1857 -56.1842
   -56.1838 -56.1827 -56.1826 -56.1810 -56.1809 -56.1794 -56.1766 -56.1712
   -21.3718 -11.5307 -11.5256 -10.0851  -8.9630  -8.9323  -8.9266  -8.8795
    -8.2435  -7.9791  -7.9596  -7.8213  -7.8100  -7.6873  -7.4520  -7.3377
    -7.2122  -7.1760  -7.0436  -6.8980  -6.8894  -6.8884  -6.8536  -6.8503
    -6.7839  -6.7659  -6.7630  -6.7563  -6.6651  -6.6635  -6.6579  -6.6349
    -6.5618  -6.5446  -6.5286  -6.5207  -6.4492  -6.4385  -6.4321  -6.4124
    -6.4006  -6.3811  -6.3807  -6.3754  -6.3729  -6.3697  -6.3666  -6.3637
    -6.3573  -6.3509  -6.3390  -6.2919  -6.2819  -6.2698  -6.2677  -6.2002
    -6.1984  -6.1913  -6.1823  -6.1403  -6.0214  -6.0173  -5.9882  -5.9881
    -5.9285  -5.9060  -5.8991  -5.8921  -5.8708  -5.8635  -5.8633  -5.7265
    -5.7193  -5.6823  -5.6821  -5.6193  -5.6155  -5.6069  -5.5999  -5.5937
    -5.5929  -5.5928  -5.5781  -5.5769  -5.5729  -5.5693  -5.5590  -5.5580
    -5.5531  -5.5362  -5.5140  -5.5102  -5.4546  -5.4478  -5.4464  -5.4372
    -5.4358  -5.3954  -5.3920  -5.3851  -5.3772  -5.3752  -5.3682  -5.3582
    -5.3477  -5.3403  -5.3299  -5.3157  -5.2856  -5.2760  -5.2405  -5.2333
    -5.2299  -5.2107  -5.2019  -5.1951  -5.1790  -5.1764  -5.1730  -5.1612
    -5.1603  -5.1509  -5.1502  -5.1390  -5.1281  -5.0716  -5.0710  -5.0544
    -5.0447  -4.9857  -4.9772  -4.9657  -4.9655  -4.9598  -4.9567  -4.9476
    -4.9366  -4.9058  -4.9013  -4.8803  -4.8774  -4.8764  -4.8583  -4.8545
    -4.8472  -4.8225  -4.8187  -4.8102  -4.7980  -4.7935  -4.7721  -4.7370
    -4.7134  -4.7034  -4.6991  -4.6925  -4.6715  -4.6701  -4.6695  -4.6600
    -4.6201  -4.5900  -4.5799  -4.5778  -4.5642  -4.5572  -4.5571  -4.5493
    -4.5461  -4.5375  -4.5370  -4.5347  -4.5270  -4.5159  -4.5157  -4.5045
    -4.4842  -4.4690  -4.4587  -4.4555  -4.3928  -4.3900  -4.2662  -4.2391
    -4.2281  -4.2117  -4.2022  -4.1976  -4.1826  -4.1309  -4.0711  -4.0470
    -4.0375  -4.0123  -3.9713  -3.9696  -3.9679  -3.9527  -3.9428  -3.9391
    -3.9056  -3.8903  -3.8767  -3.8691  -3.8599  -3.8535  -3.8371  -3.8141
    -3.7906  -3.7869  -3.7779  -3.7617  -3.7616  -3.7456  -3.7454  -3.7376
    -3.7361  -3.7252  -3.7099  -3.7032  -3.6934  -3.6902  -3.6564  -3.6299
    -3.6269  -3.6196  -3.6083  -3.6048  -3.6037  -3.5979  -3.5931  -3.5877
    -3.5791  -3.5745  -3.5654  -3.5384  -3.5235  -3.5220  -3.5115  -3.5085
    -3.5067  -3.5012  -3.4937  -3.4917  -3.4857  -3.4773  -3.4570  -3.4467
    -3.4424  -3.4354  -3.4350  -3.4248  -3.4206  -3.4160  -3.4025  -3.3908
    -3.3826  -3.3794  -3.3688  -3.3676  -3.3603  -3.3514  -3.3445  -3.3400
    -3.3383  -3.3211  -3.3134  -3.3070  -3.2979  -3.2933  -3.2907  -3.2880
    -3.2856  -3.2846  -3.2795  -3.2788  -3.2638  -3.2564  -3.2488  -3.2397
    -3.2340  -3.2275  -3.2229  -3.2119  -3.2023  -3.1992  -3.1970  -3.1922
    -3.1907  -3.1806  -3.1786  -3.1708  -3.1657  -3.1508  -3.1472  -3.1470
    -3.1277  -3.1263  -3.1147  -3.0920  -3.0849  -3.0547  -3.0483  -3.0401
    -3.0209  -3.0161  -2.9985  -2.9861  -2.9628  -2.9568  -2.9559  -2.9295
    -2.9031  -2.8647  -2.8604  -2.8454  -2.8290  -2.6996  -2.6992  -2.6703
    -2.6066  -2.5980  -2.5858  -2.5444  -2.5170  -2.5160  -2.4716  -2.4547
    -2.4377  -2.4296  -2.4212  -2.4202  -2.4185  -2.4095  -2.4059  -2.3907
    -2.3407  -2.3233  -2.3163  -2.2301  -2.2253  -2.2078  -2.1134  -2.0290
    -2.0118  -2.0112  -1.8766  -1.7551  -1.5876  -1.5781  -1.4558  -1.4419
    -1.4387  -1.3423  -1.3270  -1.3132  -1.2970  -1.2564  -1.2441  -1.0182
    -0.9469  -0.7954  -0.7227

          k = 0.2500-0.6187 0.0000 (128424 PWs)   bands (ev):

   -90.4654 -90.4639 -90.4571 -90.4533 -90.4498 -90.4472 -90.4447 -90.4421
   -90.4407 -90.4400 -90.4385 -90.4369 -90.4350 -90.4327 -90.4324 -90.4316
   -90.4300 -90.4278 -90.4242 -90.4232 -90.4218 -90.4211 -90.4208 -90.4161
   -90.4144 -90.4116 -90.4068 -90.3972 -90.3964 -90.3640 -90.3603 -90.3573
   -90.3239 -90.3210 -90.3145 -90.3082 -90.3012 -90.2954 -90.2938 -90.2919
   -90.2912 -90.2895 -90.2883 -90.2864 -90.2859 -90.2836 -90.2797 -90.2793
   -90.2785 -90.2766 -90.2755 -90.2744 -90.2718 -90.2713 -90.2705 -90.2641
   -90.2627 -90.2617 -90.2565 -90.2532 -90.2385 -90.2361 -90.2318 -90.2304
   -56.6605 -56.6545 -56.6514 -56.6408 -56.6391 -56.6357 -56.6331 -56.6313
   -56.6307 -56.6288 -56.6275 -56.6269 -56.6254 -56.6243 -56.6207 -56.6202
   -56.6175 -56.6159 -56.6151 -56.6139 -56.6106 -56.6094 -56.6089 -56.6064
   -56.6035 -56.6013 -56.6003 -56.5944 -56.5858 -56.5834 -56.5637 -56.5630
   -56.5619 -56.5589 -56.5570 -56.5512 -56.5482 -56.5445 -56.5408 -56.5388
   -56.5375 -56.5353 -56.5330 -56.5310 -56.5267 -56.5244 -56.5222 -56.5220
   -56.5163 -56.5139 -56.5099 -56.5056 -56.4988 -56.4946 -56.4905 -56.4888
   -56.4858 -56.4833 -56.4741 -56.4721 -56.4696 -56.4615 -56.4611 -56.4567
   -56.4564 -56.4556 -56.4536 -56.4491 -56.4426 -56.4417 -56.4393 -56.4386
   -56.4376 -56.4365 -56.4354 -56.4331 -56.4329 -56.4301 -56.4277 -56.4271
   -56.4230 -56.4199 -56.4191 -56.4152 -56.4087 -56.4059 -56.4047 -56.4041
   -56.4014 -56.4007 -56.3959 -56.3934 -56.3877 -56.3826 -56.3745 -56.3734
   -56.3689 -56.3676 -56.3639 -56.3606 -56.3598 -56.3571 -56.3541 -56.3539
   -56.3518 -56.3514 -56.3495 -56.3481 -56.3459 -56.3450 -56.3443 -56.3422
   -56.3394 -56.3367 -56.3346 -56.3332 -56.3312 -56.3306 -56.3303 -56.3273
   -56.3269 -56.3262 -56.3242 -56.3232 -56.3200 -56.3167 -56.3153 -56.3113
   -56.3091 -56.3077 -56.3026 -56.3001 -56.2944 -56.2939 -56.2936 -56.2920
   -56.2899 -56.2873 -56.2855 -56.2846 -56.2809 -56.2795 -56.2767 -56.2763
   -56.2738 -56.2729 -56.2723 -56.2674 -56.2655 -56.2646 -56.2595 -56.2580
   -56.2561 -56.2540 -56.2512 -56.2499 -56.2458 -56.2430 -56.2408 -56.2315
   -56.2288 -56.2262 -56.2247 -56.2197 -56.2187 -56.2183 -56.2168 -56.2150
   -56.2132 -56.2114 -56.2087 -56.2077 -56.2067 -56.2060 -56.2055 -56.2045
   -56.2006 -56.2004 -56.1982 -56.1967 -56.1959 -56.1953 -56.1934 -56.1920
   -56.1890 -56.1869 -56.1850 -56.1837 -56.1831 -56.1813 -56.1786 -56.1739
   -21.3718 -11.5308 -11.5256  -9.8193  -9.5265  -9.2380  -8.6669  -8.4661
    -8.3904  -8.1731  -8.0005  -7.8968  -7.3737  -7.3169  -7.2476  -7.1966
    -7.1636  -7.1249  -7.0675  -7.0476  -6.9717  -6.9478  -6.8790  -6.8709
    -6.8613  -6.8193  -6.8113  -6.7302  -6.7206  -6.7118  -6.6799  -6.6740
    -6.6673  -6.6595  -6.6341  -6.5614  -6.5533  -6.5431  -6.5346  -6.5114
    -6.4818  -6.4624  -6.4386  -6.4280  -6.4160  -6.3964  -6.3844  -6.3033
    -6.2900  -6.2633  -6.2537  -6.2319  -6.1906  -6.1765  -6.1606  -6.1461
    -6.1010  -6.0973  -6.0758  -6.0679  -6.0586  -6.0313  -6.0188  -6.0044
    -5.9943  -5.9633  -5.9380  -5.9149  -5.8984  -5.8935  -5.8840  -5.8691
    -5.7970  -5.7780  -5.7642  -5.7043  -5.6301  -5.6184  -5.6027  -5.5988
    -5.5884  -5.5822  -5.5784  -5.5704  -5.5608  -5.5392  -5.4977  -5.4889
    -5.4582  -5.4536  -5.4482  -5.4255  -5.4201  -5.4159  -5.3893  -5.3852
    -5.3839  -5.3773  -5.3677  -5.3656  -5.3611  -5.3572  -5.3493  -5.3462
    -5.3293  -5.3122  -5.2944  -5.2917  -5.2885  -5.2729  -5.2558  -5.2494
    -5.2394  -5.2316  -5.2251  -5.2147  -5.2011  -5.1855  -5.1622  -5.1463
    -5.1354  -5.1319  -5.1210  -5.1126  -5.1070  -5.1041  -5.0966  -5.0865
    -5.0698  -5.0663  -5.0606  -5.0514  -5.0436  -5.0402  -5.0122  -4.9964
    -4.9931  -4.9865  -4.9686  -4.9453  -4.9353  -4.8490  -4.8221  -4.8202
    -4.8090  -4.8071  -4.7966  -4.7739  -4.7729  -4.7692  -4.7667  -4.7535
    -4.7487  -4.7412  -4.7335  -4.7231  -4.7213  -4.7162  -4.7017  -4.6775
    -4.6698  -4.6551  -4.6503  -4.6469  -4.6374  -4.6072  -4.5744  -4.5524
    -4.5193  -4.4973  -4.4860  -4.4677  -4.4553  -4.4102  -4.3979  -4.3846
    -4.3716  -4.3551  -4.2999  -4.2773  -4.2562  -4.2362  -4.2232  -4.2154
    -4.1823  -4.1370  -4.1282  -4.1151  -4.1020  -4.0734  -4.0685  -4.0591
    -4.0439  -4.0298  -4.0227  -4.0163  -4.0098  -3.9902  -3.9874  -3.9754
    -3.9285  -3.9157  -3.9045  -3.8834  -3.8730  -3.8531  -3.8500  -3.8284
    -3.8195  -3.8117  -3.7960  -3.7888  -3.7787  -3.7655  -3.7579  -3.7560
    -3.7493  -3.7330  -3.7185  -3.7073  -3.6869  -3.6789  -3.6683  -3.6632
    -3.6427  -3.6351  -3.6308  -3.6245  -3.6224  -3.6210  -3.6143  -3.6039
    -3.5942  -3.5873  -3.5797  -3.5635  -3.5515  -3.5346  -3.5159  -3.5132
    -3.5055  -3.5006  -3.4861  -3.4833  -3.4749  -3.4709  -3.4659  -3.4547
    -3.4512  -3.4448  -3.4331  -3.4124  -3.4090  -3.4031  -3.3991  -3.3957
    -3.3877  -3.3783  -3.3725  -3.3548  -3.3506  -3.3456  -3.3388  -3.3361
    -3.3316  -3.3219  -3.3067  -3.3043  -3.3029  -3.2988  -3.2864  -3.2796
    -3.2676  -3.2641  -3.2568  -3.2509  -3.2422  -3.2368  -3.2298  -3.2293
    -3.2203  -3.2139  -3.2056  -3.1992  -3.1964  -3.1903  -3.1893  -3.1821
    -3.1765  -3.1555  -3.1346  -3.1291  -3.1183  -3.1160  -3.1048  -3.0949
    -3.0678  -3.0623  -3.0496  -3.0408  -3.0296  -2.9881  -2.9791  -2.9393
    -2.9361  -2.9215  -2.9194  -2.8936  -2.8753  -2.8449  -2.8330  -2.8147
    -2.7834  -2.7751  -2.7690  -2.7545  -2.7318  -2.6972  -2.6916  -2.6816
    -2.6707  -2.6495  -2.6283  -2.6061  -2.6050  -2.5880  -2.5549  -2.5482
    -2.5399  -2.5178  -2.4889  -2.4691  -2.4633  -2.4623  -2.4470  -2.4296
    -2.4261  -2.4173  -2.3873  -2.3765  -2.3530  -2.3485  -2.3174  -2.3078
    -2.1784  -2.1649  -2.0326  -1.9453  -1.8478  -1.7874  -1.6867  -1.5458
    -1.5051  -1.4902  -1.4214  -1.2938  -1.0450  -1.0270  -0.8426  -0.8004
    -0.6857  -0.6356  -0.5306

          k = 0.2500-0.3536 0.0000 (128397 PWs)   bands (ev):

   -90.4680 -90.4606 -90.4591 -90.4513 -90.4476 -90.4455 -90.4449 -90.4434
   -90.4429 -90.4418 -90.4396 -90.4356 -90.4351 -90.4348 -90.4320 -90.4289
   -90.4276 -90.4271 -90.4245 -90.4242 -90.4221 -90.4215 -90.4210 -90.4195
   -90.4122 -90.4101 -90.4081 -90.3972 -90.3963 -90.3639 -90.3603 -90.3573
   -90.3257 -90.3198 -90.3149 -90.3015 -90.3008 -90.2995 -90.2948 -90.2942
   -90.2920 -90.2898 -90.2886 -90.2867 -90.2853 -90.2838 -90.2802 -90.2790
   -90.2776 -90.2757 -90.2746 -90.2746 -90.2712 -90.2697 -90.2688 -90.2659
   -90.2639 -90.2623 -90.2556 -90.2538 -90.2391 -90.2361 -90.2320 -90.2296
   -56.6615 -56.6534 -56.6518 -56.6410 -56.6348 -56.6344 -56.6341 -56.6324
   -56.6318 -56.6312 -56.6289 -56.6288 -56.6282 -56.6217 -56.6193 -56.6179
   -56.6161 -56.6149 -56.6141 -56.6131 -56.6122 -56.6116 -56.6096 -56.6083
   -56.6015 -56.6007 -56.5979 -56.5968 -56.5871 -56.5831 -56.5786 -56.5685
   -56.5646 -56.5637 -56.5571 -56.5569 -56.5511 -56.5510 -56.5480 -56.5477
   -56.5466 -56.5455 -56.5357 -56.5324 -56.5287 -56.5285 -56.5140 -56.5119
   -56.4982 -56.4966 -56.4966 -56.4941 -56.4866 -56.4822 -56.4812 -56.4789
   -56.4757 -56.4737 -56.4732 -56.4719 -56.4704 -56.4638 -56.4629 -56.4609
   -56.4591 -56.4583 -56.4547 -56.4530 -56.4523 -56.4502 -56.4477 -56.4433
   -56.4401 -56.4373 -56.4360 -56.4306 -56.4301 -56.4256 -56.4218 -56.4181
   -56.4137 -56.4127 -56.4122 -56.4074 -56.4069 -56.4034 -56.4029 -56.4010
   -56.3957 -56.3933 -56.3871 -56.3867 -56.3846 -56.3844 -56.3812 -56.3810
   -56.3758 -56.3721 -56.3708 -56.3688 -56.3658 -56.3623 -56.3581 -56.3523
   -56.3508 -56.3507 -56.3501 -56.3490 -56.3484 -56.3457 -56.3453 -56.3437
[...]
    -0.7976  -0.7918  -0.7815  -0.7723  -0.7520  -0.7398  -0.7353  -0.7251
    -0.7130  -0.7007  -0.6897  -0.6817  -0.6686  -0.6450  -0.6407  -0.6206
    -0.6169  -0.6085  -0.6053  -0.6008  -0.5962  -0.5798  -0.5715  -0.5696
    -0.5636  -0.5456  -0.5385  -0.5325  -0.5291  -0.5229  -0.4960  -0.4938
    -0.4900  -0.4780  -0.4703  -0.4619  -0.4577  -0.4550  -0.4368  -0.4203
    -0.3949  -0.3917  -0.3864  -0.3778  -0.3679  -0.3645  -0.3586  -0.3570
    -0.3540  -0.3487  -0.3359  -0.3349  -0.3243  -0.3163  -0.3133  -0.2851
    -0.2844  -0.2677  -0.2608  -0.2549  -0.2524  -0.2441  -0.2414  -0.2391
    -0.2352  -0.2339  -0.2268  -0.2087  -0.1996  -0.1973  -0.1800  -0.1709
    -0.1608  -0.1594  -0.1505  -0.1445  -0.1240  -0.1214  -0.1166  -0.0774
    -0.0686  -0.0654  -0.0592  -0.0428  -0.0402  -0.0206  -0.0131  -0.0116
    -0.0047   0.0004   0.0060   0.0166   0.0552   0.0644   0.0744   0.0850
     0.0895   0.1017   0.1228   0.1499   0.2122   0.2348   0.2866   0.3510
     0.3653   0.3675   0.4890   0.5383   0.6043   0.7458   0.7643   0.8264
     0.8942   0.9323   0.9524

          k =-0.5000-0.3536 0.0000 (128560 PWs)   bands (ev):

   -87.6522 -87.5055 -87.4937 -87.4930 -87.4845 -87.4736 -87.4619 -87.4608
   -87.4606 -87.4562 -87.4553 -87.4528 -87.4487 -87.4442 -87.4441 -87.4433
   -87.4416 -87.4338 -87.4327 -87.4325 -87.4299 -87.4273 -87.4259 -87.4256
   -87.4237 -87.4218 -87.4204 -87.4202 -87.4171 -87.4062 -87.3997 -87.3996
   -87.3970 -87.3908 -87.3908 -87.3889 -87.3876 -87.3853 -87.3839 -87.3834
   -87.3828 -87.3807 -87.3695 -87.3694 -87.3673 -87.3639 -87.3625 -87.3623
   -87.3617 -87.3616 -87.3615 -87.3610 -87.3605 -87.3588 -87.3585 -87.3575
   -87.3518 -87.3420 -87.3413 -87.3405 -87.3397 -87.3393 -87.3390 -87.3385
   -53.9084 -53.8172 -53.7637 -53.7480 -53.7472 -53.7412 -53.7363 -53.7335
   -53.7319 -53.7290 -53.7278 -53.7270 -53.7261 -53.7231 -53.7226 -53.7226
   -53.7205 -53.7183 -53.7178 -53.7139 -53.7107 -53.7093 -53.7020 -53.7019
   -53.6993 -53.6924 -53.6873 -53.6846 -53.6831 -53.6807 -53.6802 -53.6757
   -53.6755 -53.6635 -53.6634 -53.6608 -53.6535 -53.6528 -53.6483 -53.6477
   -53.6474 -53.6458 -53.6443 -53.6416 -53.6415 -53.6390 -53.6369 -53.6364
   -53.6348 -53.6342 -53.6339 -53.6334 -53.6333 -53.6300 -53.6262 -53.6255
   -53.6251 -53.6244 -53.6228 -53.6217 -53.6208 -53.6207 -53.6202 -53.5912
   -53.5895 -53.5836 -53.5825 -53.5811 -53.5743 -53.5725 -53.5705 -53.5702
   -53.5643 -53.5624 -53.5598 -53.5502 -53.5488 -53.5439 -53.5420 -53.5394
   -53.5342 -53.5325 -53.5283 -53.5258 -53.5236 -53.5229 -53.5187 -53.5178
   -53.5174 -53.5166 -53.5155 -53.5147 -53.5123 -53.5122 -53.5042 -53.5021
   -53.4967 -53.4947 -53.4933 -53.4919 -53.4898 -53.4885 -53.4877 -53.4861
   -53.4842 -53.4838 -53.4797 -53.4780 -53.4757 -53.4748 -53.4743 -53.4742
   -53.4686 -53.4676 -53.4659 -53.4611 -53.4606 -53.4544 -53.4541 -53.4491
   -53.4478 -53.4476 -53.4472 -53.4457 -53.4441 -53.4437 -53.4432 -53.4357
   -53.4352 -53.4300 -53.4295 -53.4261 -53.4228 -53.4225 -53.4207 -53.4191
   -53.4185 -53.4173 -53.4156 -53.4154 -53.4153 -53.4133 -53.4132 -53.4130
   -53.4119 -53.4114 -53.4099 -53.4090 -53.4071 -53.4061 -53.4015 -53.4005
   -53.3996 -53.3972 -53.3962 -53.3952 -53.3945 -53.3942 -53.3941 -53.3936
   -53.3927 -53.3924 -53.3921 -53.3919 -53.3907 -53.3890 -53.3876 -53.3865
   -53.3862 -53.3847 -53.3839 -53.3812 -53.3811 -53.3805 -53.3801 -53.3795
   -53.3782 -53.3775 -53.3741 -53.3734 -53.3731 -53.3717 -53.3685 -53.3678
   -53.3667 -53.3647 -53.3642 -53.3630 -53.3617 -53.3579 -53.3569 -53.3538
   -21.3388 -11.5580 -11.5429  -9.4484  -9.4361  -8.8663  -8.8533  -8.2784
    -8.1430  -7.8559  -7.6012  -7.4588  -6.8551  -6.8471  -6.8459  -6.8290
    -6.4425  -6.4012  -6.0037  -6.0017  -6.0007  -5.9991  -5.9973  -5.9736
    -5.9072  -5.8817  -5.8678  -5.8668  -5.8643  -5.8405  -5.4444  -5.4428
    -5.4415  -5.4381  -5.4359  -5.4226  -5.2252  -5.2217  -4.9762  -4.9729
    -4.9432  -4.9376  -4.9333  -4.9191  -4.8803  -4.8753  -4.8364  -4.8360
    -4.8329  -4.8234  -4.6840  -4.6727  -4.6717  -4.6621  -4.6513  -4.6444
    -4.4048  -4.4012  -4.3887  -4.3847  -4.3845  -4.3784  -4.1673  -4.1648
    -4.1166  -4.1106  -4.0676  -4.0590  -3.9617  -3.9612  -3.8893  -3.8856
    -3.8806  -3.8726  -3.8680  -3.8609  -3.8547  -3.8537  -3.8457  -3.8414
    -3.7580  -3.7564  -3.7536  -3.7438  -3.7435  -3.7406  -3.7394  -3.7391
    -3.7316  -3.7300  -3.7292  -3.7266  -3.5260  -3.5194  -3.5095  -3.5078
    -3.3878  -3.3853  -3.3850  -3.3822  -3.3675  -3.3588  -3.3310  -3.3278
    -3.3223  -3.3195  -3.3173  -3.3086  -3.3053  -3.2975  -3.2914  -3.2891
    -3.2829  -3.2749  -3.2702  -3.2502  -3.2496  -3.2489  -3.2475  -3.2431
    -3.2379  -3.2357  -3.2345  -3.2315  -3.2175  -3.1995  -3.1957  -3.1801
    -3.1518  -3.1422  -3.1413  -3.1376  -3.1344  -3.1310  -3.1265  -3.1259
    -3.1239  -3.1224  -3.1160  -3.0991  -3.0661  -3.0500  -2.9267  -2.9206
    -2.8755  -2.8672  -2.8633  -2.8605  -2.8416  -2.8342  -2.8119  -2.8074
    -2.7986  -2.7962  -2.7290  -2.7044  -2.6928  -2.6854  -2.6807  -2.6743
    -2.6552  -2.6529  -2.6357  -2.6191  -2.6136  -2.6123  -2.5919  -2.5810
    -2.4459  -2.4346  -2.4333  -2.4256  -2.4213  -2.4110  -2.3462  -2.3443
    -2.3419  -2.3411  -2.3259  -2.2964  -2.2876  -2.2813  -2.2678  -2.2653
    -2.2334  -2.2280  -2.2220  -2.2183  -2.1924  -2.1921  -1.9669  -1.9305
    -1.9108  -1.8691  -1.8440  -1.8267  -1.7765  -1.7607  -1.5949  -1.5908
    -1.5751  -1.5567  -1.5312  -1.5102  -1.4657  -1.4318  -1.4257  -1.4198
    -1.4100  -1.3933  -1.3427  -1.3299  -1.3252  -1.3236  -1.2906  -1.2836
    -1.2833  -1.2696  -1.2243  -1.1955  -1.1892  -1.1687  -1.1610  -1.1288
    -1.0890  -1.0859  -1.0798  -1.0663  -1.0650  -1.0647  -1.0620  -1.0525
    -1.0395  -1.0372  -1.0329  -1.0242  -0.9737  -0.9634  -0.9619  -0.9400
    -0.9131  -0.8985  -0.8984  -0.8721  -0.8650  -0.8591  -0.8184  -0.7983
    -0.7792  -0.7607  -0.7275  -0.7082  -0.6561  -0.6499  -0.6343  -0.6307
    -0.6298  -0.6274  -0.6245  -0.6173  -0.6158  -0.5953  -0.5933  -0.5848
    -0.5719  -0.5714  -0.5675  -0.5652  -0.5631  -0.5608  -0.5590  -0.5413
    -0.5349  -0.5203  -0.5025  -0.5019  -0.4874  -0.4833  -0.4788  -0.4776
    -0.4706  -0.4600  -0.4597  -0.4583  -0.4572  -0.4446  -0.4348  -0.4199
    -0.4169  -0.4099  -0.3960  -0.3951  -0.3946  -0.3901  -0.3878  -0.3856
    -0.3850  -0.3772  -0.3743  -0.3460  -0.3443  -0.3411  -0.2751  -0.2725
    -0.2621  -0.2533  -0.2375  -0.2341  -0.2304  -0.2280  -0.2014  -0.2012
    -0.1974  -0.1919  -0.1897  -0.1864  -0.1826  -0.1801  -0.1749  -0.1729
    -0.1721  -0.1703  -0.1684  -0.1677  -0.1652  -0.1581  -0.1366  -0.1289
    -0.1163  -0.1108  -0.1104  -0.1012  -0.0973  -0.0926  -0.0893  -0.0861
    -0.0854  -0.0800  -0.0100   0.0021   0.0046   0.0061   0.0150   0.0171
     0.0781   0.1136   0.2064   0.2264   0.4213   0.4283   0.4344   0.4376
     0.4603   0.4730   0.4752   0.4942   0.4968   0.5218   0.5230   0.5254
     0.5339   0.5430   0.6174

     the Fermi energy is    -2.3272 ev

!    total energy              =  -21096.07538339 Ry
     Harris-Foulkes estimate   =  -21096.07538275 Ry
     estimated scf accuracy    <          8.8E-11 Ry

     The total energy is the sum of the following terms:

     one-electron contribution = -744077.48914748 Ry
     hartree contribution      =  371946.28286674 Ry
     xc contribution           =   -2235.76484980 Ry
     ewald contribution        =  358145.72319440 Ry
     Dispersion Correction     =      -1.39629964 Ry
     one-center paw contrib.   =   -4873.43162395 Ry
     smearing contrib. (-TS)   =       0.00047634 Ry

     total magnetization       =   162.01 Bohr mag/cell
     absolute magnetization    =   168.54 Bohr mag/cell

     convergence has been achieved in  18 iterations

     negative rho (up, down):  2.354E-02 1.953E-02

     Forces acting on atoms (cartesian axes, Ry/au):

     atom    1 type  1   force =    -0.00007566   -0.00004966    0.00923212
     atom    2 type  1   force =    -0.00001201   -0.00003533   -0.01073734
     atom    3 type  1   force =     0.00058215    0.00040940    0.00940286
     atom    4 type  1   force =     0.00004050    0.00003397   -0.00848328
     atom    5 type  1   force =    -0.00002155   -0.00000981   -0.00004176
     atom    6 type  1   force =    -0.00000067   -0.00000056   -0.00014859
     atom    7 type  1   force =    -0.00008139   -0.00005240   -0.00010878
     atom    8 type  1   force =    -0.00000925   -0.00000742    0.00004829
     atom    9 type  1   force =     0.00001885   -0.00006203    0.00911605
     atom   10 type  1   force =    -0.00004193    0.00001286    0.00912428
     atom   11 type  1   force =     0.00009895   -0.00058208   -0.00979898
     atom   12 type  1   force =    -0.00051143    0.00029636   -0.00984192
     atom   13 type  1   force =     0.00009875   -0.00001030   -0.00002866
     atom   14 type  1   force =     0.00002154    0.00009961   -0.00003105
     atom   15 type  1   force =    -0.00005518   -0.00002307   -0.00007541
     atom   16 type  1   force =    -0.00004163   -0.00004543   -0.00007680
     atom   17 type  1   force =    -0.00038728    0.00029193    0.00995960
     atom   18 type  1   force =    -0.00004258    0.00005312   -0.00959312
     atom   19 type  1   force =    -0.00011694    0.00048624    0.00993396
     atom   20 type  1   force =    -0.00065800    0.00090134   -0.00777498
     atom   21 type  1   force =    -0.00003824    0.00005302    0.00000088
     atom   22 type  1   force =    -0.00001056    0.00000258   -0.00001601
     atom   23 type  1   force =    -0.00003828    0.00005150   -0.00000823
     atom   24 type  1   force =     0.00003629   -0.00004039    0.00011890
     atom   25 type  1   force =     0.00001848    0.00001666    0.00960214
     atom   26 type  1   force =    -0.00020132    0.00027608    0.00953442
     atom   27 type  1   force =     0.00041026   -0.00008104   -0.01045312
     atom   28 type  1   force =     0.00049587   -0.00032547   -0.00998819
     atom   29 type  1   force =     0.00001827   -0.00001158   -0.00000400
     atom   30 type  1   force =    -0.00005629    0.00007861   -0.00003630
     atom   31 type  1   force =     0.00003957    0.00005276    0.00005868
     atom   32 type  1   force =     0.00002273    0.00004199   -0.00007320
     atom   33 type  1   force =     0.00014483   -0.00046857    0.00995767
     atom   34 type  1   force =     0.00004828   -0.00004545   -0.00958886
     atom   35 type  1   force =     0.00040887   -0.00029077    0.00992868
     atom   36 type  1   force =     0.00064565   -0.00093342   -0.00773800
     atom   37 type  1   force =     0.00003597   -0.00005535    0.00000082
     atom   38 type  1   force =     0.00000049   -0.00001056   -0.00001254
     atom   39 type  1   force =     0.00003696   -0.00005615   -0.00000882
     atom   40 type  1   force =    -0.00003086    0.00005085    0.00009946
     atom   41 type  1   force =     0.00019430   -0.00027591    0.00954528
     atom   42 type  1   force =     0.00002201    0.00001484    0.00960322
     atom   43 type  1   force =    -0.00015820    0.00056310   -0.01002752
     atom   44 type  1   force =     0.00004286    0.00039447   -0.01047350
     atom   45 type  1   force =     0.00005346   -0.00007800   -0.00004651
     atom   46 type  1   force =    -0.00000133    0.00001685   -0.00000550
     atom   47 type  1   force =     0.00004743    0.00001167   -0.00007065
     atom   48 type  1   force =     0.00005813    0.00001662    0.00007289
     atom   49 type  1   force =    -0.00060339   -0.00042401    0.00941357
     atom   50 type  1   force =     0.00000226    0.00000629   -0.00750476
     atom   51 type  1   force =     0.00005141    0.00003999    0.00927490
     atom   52 type  1   force =    -0.00000456    0.00000380   -0.00866862
     atom   53 type  1   force =     0.00007450    0.00005875   -0.00010320
     atom   54 type  1   force =    -0.00001157   -0.00001586   -0.00011314
     atom   55 type  1   force =     0.00001565    0.00001382   -0.00003598
     atom   56 type  1   force =     0.00002018    0.00001626    0.00003091
     atom   57 type  1   force =     0.00007370   -0.00001793    0.00914081
     atom   58 type  1   force =     0.00000948    0.00007419    0.00914166
     atom   59 type  1   force =    -0.00042417   -0.00003057   -0.01035315
     atom   60 type  1   force =    -0.00017813   -0.00040967   -0.01034045
     atom   61 type  1   force =    -0.00002601   -0.00009032   -0.00003671
     atom   62 type  1   force =    -0.00009317    0.00000820   -0.00003746
     atom   63 type  1   force =    -0.00002441   -0.00001714    0.00006939
     atom   64 type  1   force =    -0.00003049   -0.00001414    0.00005573
     atom   65 type  2   force =     0.00003101    0.00004057    0.00003287
     atom   66 type  3   force =    -0.00002407    0.00005008   -0.00002903
     atom   67 type  3   force =     0.00002322   -0.00002322    0.00000436
     atom   68 type  3   force =     0.00006765    0.00005523   -0.00002273

     Total force =     0.000525     Total SCF correction =     0.000018

     bfgs converged in  23 scf cycles and  22 bfgs steps
     (criteria: energy <  7.3E-07 Ry, force <  3.9E-04 Ry/Bohr)

     End of BFGS Geometry Optimization

     Final energy   =  -21096.0753833922 Ry
Begin final coordinates

ATOMIC_POSITIONS (angstrom)
Fe       1.654912953   1.170200133   0.000000000    0   0   0
Fe       0.000000000   0.000000000   2.026984232    0   0   0
Fe       4.964738858   3.510600399   0.000000000    0   0   0
Fe       3.309825906   2.340400266   2.026984232    0   0   0
Fe       1.656487868   1.171216184   4.031041850
Fe       3.310281680   9.361868121   6.004648458
Fe       4.968843807   3.513450226   4.022236486
Fe       3.310639772   2.341045741   6.008432383
Fe       2.482363858   3.510600399   0.000000000    0   0   0
Fe       4.137287953   1.170200133   0.000000000    0   0   0
Fe       0.827450906   2.340400266   2.026984232    0   0   0
Fe       2.482375000   0.000000000   2.026984232    0   0   0
Fe       2.482147633   3.511730399   4.031282217
Fe       4.138393014   1.169670482   4.031379960
Fe       0.827716382   2.344315433   6.020283284
Fe       2.486254220  -0.001198667   6.020288060
Fe       6.619662953   1.170200133   0.000000000    0   0   0
Fe       4.964750000   0.000000000   2.026984232    0   0   0
Fe       9.929488858   3.510600399   0.000000000    0   0   0
Fe       8.274575906   2.340400266   2.026984232    0   0   0
Fe       6.622322557   1.166191270   4.019923117
Fe       4.964508347  -0.002175747   6.031234463
Fe       9.931529695   3.506438111   4.020565547
Fe       8.281635088   2.329594529   5.958402741
Fe       7.447113858   3.510600399   0.000000000    0   0   0
Fe       9.102037953   1.170200133   0.000000000    0   0   0
Fe       5.792200906   2.340400266   2.026984232    0   0   0
Fe       7.447125000   0.000000000   2.026984232    0   0   0
Fe       7.435542379   3.525665067   4.035057422
Fe       9.106225499   1.164289410   4.015595272
Fe       5.794194930   2.329833298   5.975547944
Fe      10.753011000   9.360682677   6.018117208
Fe       3.309814764   5.851000664   0.000000000    0   0   0
Fe       1.654901811   4.680800531   2.026984232    0   0   0
Fe       6.619640670   8.191400930   0.000000000    0   0   0
Fe       4.964727717   7.021200797   2.026984232    0   0   0
Fe       3.306909502   5.855077978   4.019786885
Fe      11.582574011   4.680967557   6.031238554
Fe       6.616287395   8.194857233   4.020452501
Fe       4.957545816   7.030873499   5.959838641
Fe       4.137265670   8.191400930   0.000000000    0   0   0
Fe       5.792189764   5.851000664   0.000000000    0   0   0
Fe       2.482352717   7.021200797   2.026984232    0   0   0
Fe       4.137276811   4.680800531   2.026984232    0   0   0
Fe       4.133148564   8.197320089   4.015824272
Fe       5.802428149   5.835307730   4.034808848
Fe      12.410030605   7.017681384   6.018097502
Fe       4.127428354   4.686184486   5.974613695
Fe       8.274564764   5.851000664   0.000000000    0   0   0
Fe       6.619651811   4.680800531   2.026984232    0   0   0
Fe      11.584390670   8.191400930   0.000000000    0   0   0
Fe       9.929477717   7.021200797   2.026984232    0   0   0
Fe       8.269920574   5.847571375   4.023258754
Fe       6.616852291   4.680690575   6.136451685
Fe      11.582681808   8.190074449   4.029830725
Fe       9.928600537   7.020495046   6.006075599
Fe       9.102015670   8.191400930   0.000000000    0   0   0
Fe      10.756939764   5.851000664   0.000000000    0   0   0
Fe       7.447102717   7.021200797   2.026984232    0   0   0
Fe       9.102026811   4.680800531   2.026984232    0   0   0
Fe       9.100187560   8.191233250   4.030659931
Fe      10.756125161   5.849178741   4.030755601
Fe       7.443275626   7.029906120   5.977468636
Fe       9.108438898   4.673867844   5.978509219
N        6.626182557   4.682118772   8.216007437
H        6.601246773   5.643478435   8.564735442
H        5.795381180   4.180869869   8.542510721
H        7.465323145   4.209424104   8.560797263
End final coordinates



     Writing output data file Fe_NH3_paper_480c_ESM_p25.save/

     init_run     :     93.75s CPU     95.28s WALL (       1 calls)
     electrons    : 181166.35s CPU 182624.78s WALL (      23 calls)
     update_pot   :    455.37s CPU    456.01s WALL (      22 calls)
     forces       :   1158.15s CPU   1167.15s WALL (      23 calls)

     Called by init_run:
     wfcinit      :     59.06s CPU     60.27s WALL (       1 calls)
     potinit      :     10.85s CPU     10.91s WALL (       1 calls)
     hinit0       :     14.72s CPU     14.82s WALL (       1 calls)

     Called by electrons:
     c_bands      : 165236.37s CPU 166478.88s WALL (     527 calls)
     sum_band     :   8835.53s CPU   8975.35s WALL (     527 calls)
     v_of_rho     :    860.65s CPU    864.23s WALL (     528 calls)
     newd         :    162.97s CPU    169.50s WALL (     528 calls)
     PAW_pot      :    358.04s CPU    359.44s WALL (     550 calls)
     mix_rho      :   5407.42s CPU   5461.03s WALL (     527 calls)

     Called by c_bands:
     init_us_2    :    243.94s CPU    247.36s WALL (    3300 calls)
     cegterg      : 131589.31s CPU 132453.22s WALL (    1592 calls)

     Called by sum_band:
     sum_band:bec :     15.84s CPU     15.91s WALL (    1647 calls)
     addusdens    :    194.46s CPU    206.71s WALL (     527 calls)

     Called by *egterg:
     h_psi        :  39543.62s CPU  39884.79s WALL (   14300 calls)
     s_psi        :   8250.13s CPU   8269.60s WALL (   14300 calls)
     g_psi        :    109.39s CPU    109.89s WALL (   12705 calls)
     cdiaghg      :  50618.40s CPU  50825.74s WALL (   14165 calls)

     Called by h_psi:
     h_psi:pot    :  39354.60s CPU  39580.82s WALL (   14300 calls)
     h_psi:calbec :   8324.59s CPU   8342.87s WALL (   14300 calls)
     vloc_psi     :  22763.88s CPU  22954.43s WALL (   14300 calls)
     add_vuspsi   :   8265.94s CPU   8283.42s WALL (   14300 calls)

     General routines
     calbec       :  11799.70s CPU  11825.43s WALL (   16223 calls)
     fft          :    542.98s CPU    546.25s WALL (   13565 calls)
     ffts         :   2804.45s CPU   2826.71s WALL (  332312 calls)
     fftw         :  22183.12s CPU  22379.03s WALL ( 6343863 calls)
     interpolate  :     54.04s CPU     54.77s WALL (    1056 calls)
     davcio       :      2.59s CPU    324.61s WALL (   13876 calls)

     Parallel routines
     fft_scatt_xy :   4303.19s CPU   4328.19s WALL ( 6689740 calls)
     fft_scatt_yz :   6649.45s CPU   6752.31s WALL ( 6689740 calls)

     PWSCF        :   2d 2h52m CPU   2d 3h17m WALL


   This run was terminated on:   5:31:37  12Jun2022            

=------------------------------------------------------------------------------=
   JOB DONE.
=------------------------------------------------------------------------------=
