
     Program PWSCF v.6.7MaX starts on  8Jul2022 at 17:36:22 

     This program is part of the open-source Quantum ESPRESSO suite
     for quantum simulation of materials; please cite
         "P. Giannozzi et al., J. Phys.:Condens. Matter 21 395502 (2009);
         "P. Giannozzi et al., J. Phys.:Condens. Matter 29 465901 (2017);
          URL http://www.quantum-espresso.org", 
     in publications or presentations arising from this work. More details at
     http://www.quantum-espresso.org/quote

     Parallel version (MPI), running on   256 processors

     MPI processes distributed on     2 nodes
     K-points division:     npool     =       8
     R & G space division:  proc/nbgrp/npool/nimage =      32
     Waiting for input...
     Reading input from standard input
Warning: card &CELL ignored
Warning: card / ignored

     Current dimensions of program PWSCF are:
     Max number of different atomic species (ntypx) = 10
     Max number of k-points (npk) =  40000
     Max angular momentum in pseudopotentials (lmaxx) =  3
     file Fe.pbe-spn-kjpaw_psl.0.2.1.UPF: wavefunction(s)  3D renormalized

     IMPORTANT: XC functional enforced from input :
     Exchange-correlation= PBE
                           (   1   4   3   4   0   0   0)
     Any further DFT definition will be discarded
     Please, verify this is what you really want


     -------------------------------------------------
     Parameters for Dispersion (Grimme-D2) Correction:
     -------------------------------------------------
       atom      VdW radius       C_6     

        Fe         2.952        374.666
        N          2.640         42.670
        H          1.892          4.857

     Subspace diagonalization in iterative solution of the eigenvalue problem:
     one sub-group per band group will be used
     scalapack distributed-memory algorithm (size of sub-group:  5*  5 procs)


     Parallelization info
     --------------------
     sticks:   dense  smooth     PW     G-vecs:    dense   smooth      PW
     Min         396     198     52                90796    32100    4368
     Max         397     199     53                90807    32109    4377
     Sum       12685    6351   1677              2905599  1027285  139897



     bravais-lattice index     =            0
     lattice parameter (alat)  =      18.7640  a.u.
     unit-cell volume          =   16360.3161 (a.u.)^3
     number of atoms/cell      =           68
     number of atomic types    =            3
     number of electrons       =      1032.00
     number of Kohn-Sham states=          619
     kinetic-energy cutoff     =      60.0000  Ry
     charge density cutoff     =     480.0000  Ry
     scf convergence threshold =      1.0E-08
     mixing beta               =       0.2000
     number of iterations used =           10  local-TF  mixing
     energy convergence thresh.=      7.3E-07
     force convergence thresh. =      3.9E-04
     Exchange-correlation= PBE
                           (   1   4   3   4   0   0   0)
     nstep                     =           50


     Effective Screening Medium Method
     =================================
     Boundary Conditions: Metal-Slab-Metal
     field strength                   =     0.00 Ry/a.u.
     grid points for fit at edges     =        4 


     celldm(1)=  18.764036  celldm(2)=   0.000000  celldm(3)=   0.000000
     celldm(4)=   0.000000  celldm(5)=   0.000000  celldm(6)=   0.000000

     crystal axes: (cart. coord. in units of alat)
               a(1) = (   1.000000   0.000000   0.000000 )  
               a(2) = (   0.333330   0.942807   0.000000 )  
               a(3) = (   0.000000   0.000000   2.626577 )  

     reciprocal axes: (cart. coord. in units 2 pi/alat)
               b(1) = (  1.000000 -0.353551  0.000000 )  
               b(2) = (  0.000000  1.060663  0.000000 )  
               b(3) = (  0.000000  0.000000  0.380724 )  


     PseudoPot. # 1 for Fe read from file:
     ../../SSSP/Fe.pbe-spn-kjpaw_psl.0.2.1.UPF
     MD5 check sum: e86618425769142926afa95317d90200
     Pseudo is Projector augmented-wave + core cor, Zval = 16.0
     Generated using "atomic" code by A. Dal Corso  v.5.0.99 svn rev. 10869
     Shape of augmentation charge: PSQ
     Using radial grid of 1191 points,  6 beta functions with: 
                l(1) =   0
                l(2) =   0
                l(3) =   1
                l(4) =   1
                l(5) =   2
                l(6) =   2
     Q(r) pseudized with 0 coefficients 


     PseudoPot. # 2 for N  read from file:
     ../../SSSP/N.pbe-n-radius_5.UPF
     MD5 check sum: 16739722b17309cd8fe442a2ace49922
     Pseudo is Ultrasoft + core correction, Zval =  5.0
     Generated using "atomic" code by A. Dal Corso  v.5.1
     Using radial grid of 1085 points,  4 beta functions with: 
                l(1) =   0
                l(2) =   0
                l(3) =   1
                l(4) =   1
     Q(r) pseudized with 0 coefficients 


     PseudoPot. # 3 for H  read from file:
     ../../SSSP/H.pbe-rrkjus_psl.1.0.0.UPF
     MD5 check sum: f52b6d4d1c606e5624b1dc7b2218f220
     Pseudo is Ultrasoft, Zval =  1.0
     Generated using "atomic" code by A. Dal Corso  v.5.1
     Using radial grid of  929 points,  2 beta functions with: 
                l(1) =   0
                l(2) =   0
     Q(r) pseudized with 0 coefficients 


     atomic species   valence    mass     pseudopotential
        Fe            16.00    55.84500     Fe( 1.00)
        N              5.00    14.00700     N ( 1.00)
        H              1.00     1.00800     H ( 1.00)

     Starting magnetic structure 
     atomic species   magnetization
        Fe           0.100
        N            0.100
        H            0.100

     No symmetry found



   Cartesian axes

     site n.     atom                  positions (alat units)
         1           Fe  tau(   1) = (   0.1666663   0.1178509   0.0000000  )
         2           Fe  tau(   2) = (   0.0000000   0.0000000   0.2041376  )
         3           Fe  tau(   3) = (   0.4999989   0.3535526   0.0000000  )
         4           Fe  tau(   4) = (   0.3333326   0.2357017   0.2041376  )
         5           Fe  tau(   5) = (   0.1668249   0.1179532   0.4059662  )
         6           Fe  tau(   6) = (   0.3333785   0.9428338   0.6047282  )
         7           Fe  tau(   7) = (   0.5004123   0.3538396   0.4050795  )
         8           Fe  tau(   8) = (   0.3334145   0.2357667   0.6051093  )
         9           Fe  tau(   9) = (   0.2499989   0.3535526   0.0000000  )
        10           Fe  tau(  10) = (   0.4166663   0.1178509   0.0000000  )
        11           Fe  tau(  11) = (   0.0833326   0.2357017   0.2041376  )
        12           Fe  tau(  12) = (   0.2500000   0.0000000   0.2041376  )
        13           Fe  tau(  13) = (   0.2499771   0.3536664   0.4059905  )
        14           Fe  tau(  14) = (   0.4167776   0.1177975   0.4060003  )
        15           Fe  tau(  15) = (   0.0833593   0.2360960   0.6063028  )
        16           Fe  tau(  16) = (   0.2503907  -0.0001207   0.6063032  )
        17           Fe  tau(  17) = (   0.6666663   0.1178509   0.0000000  )
        18           Fe  tau(  18) = (   0.5000000   0.0000000   0.2041376  )
        19           Fe  tau(  19) = (   0.9999989   0.3535526   0.0000000  )
        20           Fe  tau(  20) = (   0.8333326   0.2357017   0.2041376  )
        21           Fe  tau(  21) = (   0.6669341   0.1174471   0.4048465  )
        22           Fe  tau(  22) = (   0.4999757  -0.0002191   0.6074057  )
        23           Fe  tau(  23) = (   1.0002044   0.3531334   0.4049112  )
        24           Fe  tau(  24) = (   0.8340435   0.2346135   0.6000708  )
        25           Fe  tau(  25) = (   0.7499989   0.3535526   0.0000000  )
        26           Fe  tau(  26) = (   0.9166663   0.1178509   0.0000000  )
        27           Fe  tau(  27) = (   0.5833326   0.2357017   0.2041376  )
        28           Fe  tau(  28) = (   0.7500000   0.0000000   0.2041376  )
        29           Fe  tau(  29) = (   0.7488335   0.3550697   0.4063707  )
        30           Fe  tau(  30) = (   0.9170880   0.1172556   0.4044106  )
        31           Fe  tau(  31) = (   0.5835334   0.2346375   0.6017975  )
        32           Fe  tau(  32) = (   1.0829358   0.9427144   0.6060846  )
        33           Fe  tau(  33) = (   0.3333315   0.5892543   0.0000000  )
        34           Fe  tau(  34) = (   0.1666652   0.4714034   0.2041376  )
        35           Fe  tau(  35) = (   0.6666640   0.8249560   0.0000000  )
        36           Fe  tau(  36) = (   0.4999978   0.7071052   0.2041376  )
        37           Fe  tau(  37) = (   0.3330389   0.5896649   0.4048328  )
        38           Fe  tau(  38) = (   1.1664811   0.4714203   0.6074061  )
        39           Fe  tau(  39) = (   0.6663263   0.8253041   0.4048998  )
        40           Fe  tau(  40) = (   0.4992745   0.7080793   0.6002154  )
        41           Fe  tau(  41) = (   0.4166640   0.8249560   0.0000000  )
        42           Fe  tau(  42) = (   0.5833315   0.5892543   0.0000000  )
        43           Fe  tau(  43) = (   0.2499978   0.7071052   0.2041376  )
        44           Fe  tau(  44) = (   0.4166652   0.4714034   0.2041376  )
        45           Fe  tau(  45) = (   0.4162494   0.8255522   0.4044337  )
        46           Fe  tau(  46) = (   0.5843626   0.5876739   0.4063456  )
        47           Fe  tau(  47) = (   1.2498143   0.7067507   0.6060826  )
        48           Fe  tau(  48) = (   0.4156733   0.4719457   0.6017034  )
        49           Fe  tau(  49) = (   0.8333315   0.5892543   0.0000000  )
        50           Fe  tau(  50) = (   0.6666652   0.4714034   0.2041376  )
        51           Fe  tau(  51) = (   1.1666640   0.8249560   0.0000000  )
        52           Fe  tau(  52) = (   0.9999978   0.7071052   0.2041376  )
        53           Fe  tau(  53) = (   0.8328637   0.5889089   0.4051824  )
        54           Fe  tau(  54) = (   0.6663832   0.4713924   0.6180021  )
        55           Fe  tau(  55) = (   1.1664919   0.8248224   0.4058443  )
        56           Fe  tau(  56) = (   0.9999094   0.7070341   0.6048719  )
        57           Fe  tau(  57) = (   0.9166640   0.8249560   0.0000000  )
        58           Fe  tau(  58) = (   1.0833315   0.5892543   0.0000000  )
        59           Fe  tau(  59) = (   0.7499978   0.7071052   0.2041376  )
        60           Fe  tau(  60) = (   0.9166652   0.4714034   0.2041376  )
        61           Fe  tau(  61) = (   0.9164799   0.8249391   0.4059278  )
        62           Fe  tau(  62) = (   1.0832494   0.5890708   0.4059374  )
        63           Fe  tau(  63) = (   0.7496123   0.7079819   0.6019909  )
        64           Fe  tau(  64) = (   0.9173109   0.4707053   0.6020957  )
        65           N   tau(  65) = (   0.6673229   0.4715362   0.8274342  )
        66           H   tau(  66) = (   0.6648116   0.5683547   0.8625546  )
        67           H   tau(  67) = (   0.5836529   0.4210554   0.8603163  )
        68           H   tau(  68) = (   0.7518327   0.4239311   0.8621579  )

     number of k points=    10  Methfessel-Paxton smearing, width (Ry)=  0.0100
                       cart. coord. in units 2pi/alat
        k(    1) = (   0.0000000   0.0000000   0.0000000), wk =   0.0625000
        k(    2) = (   0.0000000   0.2651656   0.0000000), wk =   0.1250000
        k(    3) = (   0.0000000  -0.5303313   0.0000000), wk =   0.0625000
        k(    4) = (   0.2500000  -0.0883878   0.0000000), wk =   0.1250000
        k(    5) = (   0.2500000   0.1767779   0.0000000), wk =   0.1250000
        k(    6) = (   0.2500000  -0.6187190   0.0000000), wk =   0.1250000
        k(    7) = (   0.2500000  -0.3535534   0.0000000), wk =   0.1250000
        k(    8) = (  -0.5000000   0.1767755   0.0000000), wk =   0.0625000
        k(    9) = (  -0.5000000   0.4419412   0.0000000), wk =   0.1250000
        k(   10) = (  -0.5000000  -0.3535558   0.0000000), wk =   0.0625000

     Dense  grid:  2905599 G-vectors     FFT dimensions: ( 135, 135, 360)

     Smooth grid:  1027285 G-vectors     FFT dimensions: (  96,  96, 243)

     Estimated max dynamical RAM per process >     641.09 MB

     Estimated total dynamical RAM >     160.27 GB

     Check: negative core charge=   -0.000039
     Generating pointlists ...
     new r_m :   0.0864 (alat units)  1.6211 (a.u.) for type    1
     new r_m :   0.0425 (alat units)  0.7974 (a.u.) for type    2
     new r_m :   0.0425 (alat units)  0.7974 (a.u.) for type    3

     Initial potential from superposition of free atoms

     starting charge 1031.97191, renormalised to 1032.00000

     negative rho (up, down):  1.308E-02 1.070E-02
     Starting wfcs are  839 randomized atomic wfcs
     Checking if some PAW data can be deallocated... 

     total cpu time spent up to now is       31.9 secs

     Self-consistent Calculation

     iteration #  1     ecut=    60.00 Ry     beta= 0.20
     Davidson diagonalization with overlap
     ethr =  1.00E-04,  avg # of iterations = 17.9

     negative rho (up, down):  6.341E-03 5.051E-03

     total cpu time spent up to now is      325.2 secs

     total energy              =  -21095.87280503 Ry
     estimated scf accuracy    <      44.69348481 Ry

     total magnetization       =   134.02 Bohr mag/cell
     absolute magnetization    =   134.37 Bohr mag/cell

     iteration #  2     ecut=    60.00 Ry     beta= 0.20
     Davidson diagonalization with overlap
     ethr =  4.33E-03,  avg # of iterations =  1.0

     negative rho (up, down):  3.748E-03 3.190E-03

     total cpu time spent up to now is      375.7 secs

     total energy              =  -21096.24550732 Ry
     estimated scf accuracy    <      11.08328536 Ry

     total magnetization       =   136.49 Bohr mag/cell
     absolute magnetization    =   136.83 Bohr mag/cell

     iteration #  3     ecut=    60.00 Ry     beta= 0.20
     Davidson diagonalization with overlap
     ethr =  1.07E-03,  avg # of iterations =  1.0

     negative rho (up, down):  1.608E-02 5.231E-02

     total cpu time spent up to now is      423.8 secs

     total energy              =  -21095.37840849 Ry
     estimated scf accuracy    <      10.70887404 Ry

     total magnetization       =   142.08 Bohr mag/cell
     absolute magnetization    =   142.45 Bohr mag/cell

     iteration #  4     ecut=    60.00 Ry     beta= 0.20
     Davidson diagonalization with overlap
     ethr =  1.04E-03,  avg # of iterations =  4.8

     negative rho (up, down):  2.761E-02 9.966E-02

     total cpu time spent up to now is      480.1 secs

     total energy              =  -21094.62887382 Ry
     estimated scf accuracy    <       8.95951204 Ry

     total magnetization       =   155.42 Bohr mag/cell
     absolute magnetization    =   156.33 Bohr mag/cell

     iteration #  5     ecut=    60.00 Ry     beta= 0.20
     Davidson diagonalization with overlap
     ethr =  8.68E-04,  avg # of iterations =  5.7

     negative rho (up, down):  2.445E-03 2.679E-02

     total cpu time spent up to now is      548.0 secs

     total energy              =  -21095.39036138 Ry
     estimated scf accuracy    <       3.87804009 Ry

     total magnetization       =   160.51 Bohr mag/cell
     absolute magnetization    =   162.65 Bohr mag/cell

     iteration #  6     ecut=    60.00 Ry     beta= 0.20
     Davidson diagonalization with overlap
     ethr =  3.76E-04,  avg # of iterations =  7.1

     negative rho (up, down):  6.971E-05 1.554E-03

     total cpu time spent up to now is      618.0 secs

     total energy              =  -21095.68079686 Ry
     estimated scf accuracy    <       1.04021460 Ry

     total magnetization       =   152.31 Bohr mag/cell
     absolute magnetization    =   155.57 Bohr mag/cell

     iteration #  7     ecut=    60.00 Ry     beta= 0.20
     Davidson diagonalization with overlap
     ethr =  1.01E-04,  avg # of iterations = 14.8

     negative rho (up, down):  6.232E-06 2.560E-03

     total cpu time spent up to now is      822.3 secs

     total energy              =  -21096.12122392 Ry
     estimated scf accuracy    <       2.95423595 Ry

     total magnetization       =   148.44 Bohr mag/cell
     absolute magnetization    =   152.87 Bohr mag/cell

     iteration #  8     ecut=    60.00 Ry     beta= 0.20
     Davidson diagonalization with overlap
     ethr =  1.01E-04,  avg # of iterations =  3.0

     negative rho (up, down):  7.546E-06 1.218E-03

     total cpu time spent up to now is      879.7 secs

     total energy              =  -21096.09271258 Ry
     estimated scf accuracy    <       0.43031084 Ry

     total magnetization       =   152.17 Bohr mag/cell
     absolute magnetization    =   156.15 Bohr mag/cell

     iteration #  9     ecut=    60.00 Ry     beta= 0.20
     Davidson diagonalization with overlap
     ethr =  4.17E-05,  avg # of iterations =  6.3

     negative rho (up, down):  3.146E-04 9.485E-04

     total cpu time spent up to now is      948.9 secs

     total energy              =  -21096.12952753 Ry
     estimated scf accuracy    <       0.42198401 Ry

     total magnetization       =   153.91 Bohr mag/cell
     absolute magnetization    =   157.69 Bohr mag/cell

     iteration # 10     ecut=    60.00 Ry     beta= 0.20
     Davidson diagonalization with overlap
     ethr =  4.09E-05,  avg # of iterations =  3.4

     negative rho (up, down):  3.481E-04 1.393E-03

     total cpu time spent up to now is     1002.1 secs

     total energy              =  -21096.09972517 Ry
     estimated scf accuracy    <       0.47268818 Ry

     total magnetization       =   156.13 Bohr mag/cell
     absolute magnetization    =   159.96 Bohr mag/cell

     iteration # 11     ecut=    60.00 Ry     beta= 0.20
     Davidson diagonalization with overlap
     ethr =  4.09E-05,  avg # of iterations =  3.6

     negative rho (up, down):  1.314E-04 1.387E-03

     total cpu time spent up to now is     1058.0 secs

     total energy              =  -21096.12631610 Ry
     estimated scf accuracy    <       0.31734660 Ry

     total magnetization       =   158.41 Bohr mag/cell
     absolute magnetization    =   162.37 Bohr mag/cell

     iteration # 12     ecut=    60.00 Ry     beta= 0.20
     Davidson diagonalization with overlap
     ethr =  3.08E-05,  avg # of iterations =  2.0

     negative rho (up, down):  1.077E-02 1.215E-02

     total cpu time spent up to now is     1112.5 secs

     total energy              =  -21096.09944881 Ry
     estimated scf accuracy    <       0.19422744 Ry

     total magnetization       =   158.37 Bohr mag/cell
     absolute magnetization    =   162.38 Bohr mag/cell

     iteration # 13     ecut=    60.00 Ry     beta= 0.20
     Davidson diagonalization with overlap
     ethr =  1.88E-05,  avg # of iterations = 14.0

     negative rho (up, down):  1.812E-03 2.881E-03

     total cpu time spent up to now is     1266.6 secs

     total energy              =  -21096.13291022 Ry
     estimated scf accuracy    <       0.44300743 Ry

     total magnetization       =   161.05 Bohr mag/cell
     absolute magnetization    =   165.95 Bohr mag/cell

     iteration # 14     ecut=    60.00 Ry     beta= 0.20
     Davidson diagonalization with overlap
     ethr =  1.88E-05,  avg # of iterations =  7.3

     negative rho (up, down):  2.238E-02 2.039E-02

     total cpu time spent up to now is     1339.0 secs

     total energy              =  -21096.13245211 Ry
     estimated scf accuracy    <       0.13937708 Ry

     total magnetization       =   161.29 Bohr mag/cell
     absolute magnetization    =   166.28 Bohr mag/cell

     iteration # 15     ecut=    60.00 Ry     beta= 0.20
     Davidson diagonalization with overlap
     ethr =  1.35E-05,  avg # of iterations =  5.7

     negative rho (up, down):  7.681E-02 7.107E-02

     total cpu time spent up to now is     1406.2 secs

     total energy              =  -21096.12596200 Ry
     estimated scf accuracy    <       0.17282784 Ry

     total magnetization       =   162.22 Bohr mag/cell
     absolute magnetization    =   167.35 Bohr mag/cell

     iteration # 16     ecut=    60.00 Ry     beta= 0.20
     Davidson diagonalization with overlap
     ethr =  1.35E-05,  avg # of iterations =  1.4

     negative rho (up, down):  1.007E-01 9.405E-02

     total cpu time spent up to now is     1459.2 secs

     total energy              =  -21096.10134784 Ry
     estimated scf accuracy    <       0.11224580 Ry

     total magnetization       =   162.32 Bohr mag/cell
     absolute magnetization    =   167.52 Bohr mag/cell

     iteration # 17     ecut=    60.00 Ry     beta= 0.20
     Davidson diagonalization with overlap
     ethr =  1.09E-05,  avg # of iterations = 12.7

     negative rho (up, down):  4.804E-02 4.515E-02

     total cpu time spent up to now is     1571.0 secs

     total energy              =  -21096.09360188 Ry
     estimated scf accuracy    <       0.04017089 Ry

     total magnetization       =   161.67 Bohr mag/cell
     absolute magnetization    =   167.18 Bohr mag/cell

     iteration # 18     ecut=    60.00 Ry     beta= 0.20
     Davidson diagonalization with overlap
     c_bands:  2 eigenvalues not converged
     c_bands:  1 eigenvalues not converged
     ethr =  3.89E-06,  avg # of iterations = 17.7

     negative rho (up, down):  4.833E-02 4.549E-02

     total cpu time spent up to now is     1808.1 secs

     total energy              =  -21096.09930834 Ry
     estimated scf accuracy    <       0.06027967 Ry

     total magnetization       =   161.36 Bohr mag/cell
     absolute magnetization    =   167.35 Bohr mag/cell

     iteration # 19     ecut=    60.00 Ry     beta= 0.20
     Davidson diagonalization with overlap
     ethr =  3.89E-06,  avg # of iterations =  9.2

     negative rho (up, down):  6.488E-02 6.437E-02

     total cpu time spent up to now is     1890.6 secs

     total energy              =  -21096.05531626 Ry
     estimated scf accuracy    <       0.03275760 Ry

     total magnetization       =   161.24 Bohr mag/cell
     absolute magnetization    =   167.31 Bohr mag/cell

     iteration # 20     ecut=    60.00 Ry     beta= 0.20
     Davidson diagonalization with overlap
     ethr =  3.17E-06,  avg # of iterations = 14.2

     negative rho (up, down):  7.766E-02 7.662E-02

     total cpu time spent up to now is     2096.2 secs

     total energy              =  -21096.06122071 Ry
     estimated scf accuracy    <       0.02302437 Ry

     total magnetization       =   160.83 Bohr mag/cell
     absolute magnetization    =   167.42 Bohr mag/cell

     iteration # 21     ecut=    60.00 Ry     beta= 0.20
     Davidson diagonalization with overlap
     ethr =  2.23E-06,  avg # of iterations = 12.2

     negative rho (up, down):  7.677E-02 7.552E-02

     total cpu time spent up to now is     2188.4 secs

     total energy              =  -21096.05880200 Ry
     estimated scf accuracy    <       0.01361061 Ry

     total magnetization       =   161.50 Bohr mag/cell
     absolute magnetization    =   168.09 Bohr mag/cell

     iteration # 22     ecut=    60.00 Ry     beta= 0.20
     Davidson diagonalization with overlap
     ethr =  1.32E-06,  avg # of iterations = 12.8

     negative rho (up, down):  4.643E-02 4.743E-02

     total cpu time spent up to now is     2322.1 secs

     total energy              =  -21096.05412457 Ry
     estimated scf accuracy    <       0.00828197 Ry

     total magnetization       =   162.07 Bohr mag/cell
     absolute magnetization    =   168.75 Bohr mag/cell

     iteration # 23     ecut=    60.00 Ry     beta= 0.20
     Davidson diagonalization with overlap
     ethr =  8.03E-07,  avg # of iterations =  9.7

     negative rho (up, down):  3.448E-02 3.599E-02

     total cpu time spent up to now is     2432.1 secs

     total energy              =  -21096.05569491 Ry
     estimated scf accuracy    <       0.00679883 Ry

     total magnetization       =   161.92 Bohr mag/cell
     absolute magnetization    =   168.51 Bohr mag/cell

     iteration # 24     ecut=    60.00 Ry     beta= 0.20
     Davidson diagonalization with overlap
     ethr =  6.59E-07,  avg # of iterations =  5.3

     negative rho (up, down):  2.179E-02 2.446E-02

     total cpu time spent up to now is     2496.9 secs

     total energy              =  -21096.05808917 Ry
     estimated scf accuracy    <       0.00276885 Ry

     total magnetization       =   161.89 Bohr mag/cell
     absolute magnetization    =   168.50 Bohr mag/cell

     iteration # 25     ecut=    60.00 Ry     beta= 0.20
     Davidson diagonalization with overlap
     ethr =  2.68E-07,  avg # of iterations =  9.2

     negative rho (up, down):  2.067E-02 2.346E-02

     total cpu time spent up to now is     2594.1 secs

     total energy              =  -21096.05882109 Ry
     estimated scf accuracy    <       0.00078597 Ry

     total magnetization       =   162.01 Bohr mag/cell
     absolute magnetization    =   168.53 Bohr mag/cell

     iteration # 26     ecut=    60.00 Ry     beta= 0.20
     Davidson diagonalization with overlap
     c_bands:  3 eigenvalues not converged
     ethr =  7.62E-08,  avg # of iterations = 10.9

     negative rho (up, down):  1.834E-02 2.147E-02

     total cpu time spent up to now is     2794.9 secs

     total energy              =  -21096.06014180 Ry
     estimated scf accuracy    <       0.00031705 Ry

     total magnetization       =   161.92 Bohr mag/cell
     absolute magnetization    =   168.42 Bohr mag/cell

     iteration # 27     ecut=    60.00 Ry     beta= 0.20
     Davidson diagonalization with overlap
     c_bands:  3 eigenvalues not converged
     ethr =  3.07E-08,  avg # of iterations =  7.7

     negative rho (up, down):  1.358E-02 1.734E-02

     total cpu time spent up to now is     2902.4 secs

     total energy              =  -21096.06295105 Ry
     estimated scf accuracy    <       0.00023870 Ry

     total magnetization       =   161.93 Bohr mag/cell
     absolute magnetization    =   168.42 Bohr mag/cell

     iteration # 28     ecut=    60.00 Ry     beta= 0.20
     Davidson diagonalization with overlap
     c_bands:  3 eigenvalues not converged
     ethr =  2.31E-08,  avg # of iterations =  8.8

     negative rho (up, down):  1.177E-02 1.574E-02

     total cpu time spent up to now is     3005.6 secs

     total energy              =  -21096.06468619 Ry
     estimated scf accuracy    <       0.00010447 Ry

     total magnetization       =   162.00 Bohr mag/cell
     absolute magnetization    =   168.49 Bohr mag/cell

     iteration # 29     ecut=    60.00 Ry     beta= 0.20
     Davidson diagonalization with overlap
     c_bands:  5 eigenvalues not converged
     c_bands:  1 eigenvalues not converged
     ethr =  1.01E-08,  avg # of iterations = 10.7

     negative rho (up, down):  1.143E-02 1.543E-02

     total cpu time spent up to now is     3175.4 secs

     total energy              =  -21096.06507595 Ry
     estimated scf accuracy    <       0.00009312 Ry

     total magnetization       =   162.03 Bohr mag/cell
     absolute magnetization    =   168.51 Bohr mag/cell

     iteration # 30     ecut=    60.00 Ry     beta= 0.20
     Davidson diagonalization with overlap
     c_bands:  3 eigenvalues not converged
     c_bands:  1 eigenvalues not converged
     ethr =  9.02E-09,  avg # of iterations =  8.4

     negative rho (up, down):  1.087E-02 1.496E-02

     total cpu time spent up to now is     3274.1 secs

     total energy              =  -21096.06599161 Ry
     estimated scf accuracy    <       0.00003278 Ry

     total magnetization       =   162.00 Bohr mag/cell
     absolute magnetization    =   168.48 Bohr mag/cell

     iteration # 31     ecut=    60.00 Ry     beta= 0.20
     Davidson diagonalization with overlap
     c_bands:  2 eigenvalues not converged
     ethr =  3.18E-09,  avg # of iterations =  9.3

     negative rho (up, down):  1.094E-02 1.505E-02

     total cpu time spent up to now is     3468.7 secs

     total energy              =  -21096.06633397 Ry
     estimated scf accuracy    <       0.00003252 Ry

     total magnetization       =   161.95 Bohr mag/cell
     absolute magnetization    =   168.43 Bohr mag/cell

     iteration # 32     ecut=    60.00 Ry     beta= 0.20
     Davidson diagonalization with overlap
     c_bands:  5 eigenvalues not converged
     ethr =  3.15E-09,  avg # of iterations =  5.0

     negative rho (up, down):  1.096E-02 1.507E-02

     total cpu time spent up to now is     3541.2 secs

     total energy              =  -21096.06655715 Ry
     estimated scf accuracy    <       0.00000881 Ry

     total magnetization       =   161.96 Bohr mag/cell
     absolute magnetization    =   168.44 Bohr mag/cell

     iteration # 33     ecut=    60.00 Ry     beta= 0.20
     Davidson diagonalization with overlap
     c_bands:  1 eigenvalues not converged
     ethr =  8.54E-10,  avg # of iterations =  7.6

     negative rho (up, down):  1.103E-02 1.515E-02

     total cpu time spent up to now is     3669.7 secs

     total energy              =  -21096.06653524 Ry
     estimated scf accuracy    <       0.00000676 Ry

     total magnetization       =   161.97 Bohr mag/cell
     absolute magnetization    =   168.44 Bohr mag/cell

     iteration # 34     ecut=    60.00 Ry     beta= 0.20
     Davidson diagonalization with overlap
     c_bands:  1 eigenvalues not converged
     ethr =  6.55E-10,  avg # of iterations =  6.8

     negative rho (up, down):  1.129E-02 1.542E-02

     total cpu time spent up to now is     3782.7 secs

     total energy              =  -21096.06669037 Ry
     estimated scf accuracy    <       0.00000528 Ry

     total magnetization       =   161.96 Bohr mag/cell
     absolute magnetization    =   168.43 Bohr mag/cell

     iteration # 35     ecut=    60.00 Ry     beta= 0.20
     Davidson diagonalization with overlap
     ethr =  5.12E-10,  avg # of iterations =  6.2

     negative rho (up, down):  1.146E-02 1.559E-02

     total cpu time spent up to now is     3852.6 secs

     total energy              =  -21096.06675079 Ry
     estimated scf accuracy    <       0.00000597 Ry

     total magnetization       =   161.95 Bohr mag/cell
     absolute magnetization    =   168.43 Bohr mag/cell

     iteration # 36     ecut=    60.00 Ry     beta= 0.20
     Davidson diagonalization with overlap
     ethr =  5.12E-10,  avg # of iterations =  3.9

     negative rho (up, down):  1.157E-02 1.569E-02

     total cpu time spent up to now is     3906.5 secs

     total energy              =  -21096.06677207 Ry
     estimated scf accuracy    <       0.00000216 Ry

     total magnetization       =   161.96 Bohr mag/cell
     absolute magnetization    =   168.43 Bohr mag/cell

     iteration # 37     ecut=    60.00 Ry     beta= 0.20
     Davidson diagonalization with overlap
     ethr =  2.09E-10,  avg # of iterations =  9.2

     negative rho (up, down):  1.157E-02 1.569E-02

     total cpu time spent up to now is     4038.2 secs

     total energy              =  -21096.06671459 Ry
     estimated scf accuracy    <       0.00000164 Ry

     total magnetization       =   161.96 Bohr mag/cell
     absolute magnetization    =   168.44 Bohr mag/cell

     iteration # 38     ecut=    60.00 Ry     beta= 0.20
     Davidson diagonalization with overlap
     ethr =  1.59E-10,  avg # of iterations =  1.4

     negative rho (up, down):  1.158E-02 1.569E-02

     total cpu time spent up to now is     4088.2 secs

     total energy              =  -21096.06669342 Ry
     estimated scf accuracy    <       0.00000082 Ry

     total magnetization       =   161.96 Bohr mag/cell
     absolute magnetization    =   168.43 Bohr mag/cell

     iteration # 39     ecut=    60.00 Ry     beta= 0.20
     Davidson diagonalization with overlap
     c_bands:  3 eigenvalues not converged
     ethr =  7.91E-11,  avg # of iterations =  7.5

     negative rho (up, down):  1.154E-02 1.565E-02

     total cpu time spent up to now is     4246.8 secs

     total energy              =  -21096.06672960 Ry
     estimated scf accuracy    <       0.00000024 Ry

     total magnetization       =   161.95 Bohr mag/cell
     absolute magnetization    =   168.43 Bohr mag/cell

     iteration # 40     ecut=    60.00 Ry     beta= 0.20
     Davidson diagonalization with overlap
     c_bands:  1 eigenvalues not converged
     ethr =  2.30E-11,  avg # of iterations =  9.5

     negative rho (up, down):  1.149E-02 1.561E-02

     total cpu time spent up to now is     4409.8 secs

     total energy              =  -21096.06676382 Ry
     estimated scf accuracy    <       0.00000025 Ry

     total magnetization       =   161.95 Bohr mag/cell
     absolute magnetization    =   168.43 Bohr mag/cell

     iteration # 41     ecut=    60.00 Ry     beta= 0.20
     Davidson diagonalization with overlap
     ethr =  2.30E-11,  avg # of iterations =  5.6

     negative rho (up, down):  1.144E-02 1.555E-02

     total cpu time spent up to now is     4478.3 secs

     total energy              =  -21096.06682329 Ry
     estimated scf accuracy    <       0.00000021 Ry

     total magnetization       =   161.95 Bohr mag/cell
     absolute magnetization    =   168.42 Bohr mag/cell

     iteration # 42     ecut=    60.00 Ry     beta= 0.20
     Davidson diagonalization with overlap
     ethr =  1.99E-11,  avg # of iterations =  5.2

     negative rho (up, down):  1.143E-02 1.555E-02

     total cpu time spent up to now is     4553.6 secs

     total energy              =  -21096.06683790 Ry
     estimated scf accuracy    <       0.00000009 Ry

     total magnetization       =   161.95 Bohr mag/cell
     absolute magnetization    =   168.43 Bohr mag/cell

     iteration # 43     ecut=    60.00 Ry     beta= 0.20
     Davidson diagonalization with overlap
     ethr =  8.32E-12,  avg # of iterations =  7.0

     negative rho (up, down):  1.142E-02 1.554E-02

     total cpu time spent up to now is     4618.4 secs

     total energy              =  -21096.06684237 Ry
     estimated scf accuracy    <       0.00000004 Ry

     total magnetization       =   161.95 Bohr mag/cell
     absolute magnetization    =   168.43 Bohr mag/cell

     iteration # 44     ecut=    60.00 Ry     beta= 0.20
     Davidson diagonalization with overlap
     ethr =  3.53E-12,  avg # of iterations =  8.8

     negative rho (up, down):  1.142E-02 1.553E-02

     total cpu time spent up to now is     4770.9 secs

     total energy              =  -21096.06685396 Ry
     estimated scf accuracy    <       0.00000005 Ry

     total magnetization       =   161.95 Bohr mag/cell
     absolute magnetization    =   168.42 Bohr mag/cell

     iteration # 45     ecut=    60.00 Ry     beta= 0.20
     Davidson diagonalization with overlap
     ethr =  3.53E-12,  avg # of iterations =  1.0

     negative rho (up, down):  1.140E-02 1.551E-02

     total cpu time spent up to now is     4819.1 secs

     total energy              =  -21096.06688759 Ry
     estimated scf accuracy    <       0.00000003 Ry

     total magnetization       =   161.95 Bohr mag/cell
     absolute magnetization    =   168.42 Bohr mag/cell

     iteration # 46     ecut=    60.00 Ry     beta= 0.20
     Davidson diagonalization with overlap
     ethr =  3.09E-12,  avg # of iterations =  5.1

     negative rho (up, down):  1.138E-02 1.550E-02

     total cpu time spent up to now is     4875.8 secs

     total energy              =  -21096.06690226 Ry
     estimated scf accuracy    <       0.00000001 Ry

     total magnetization       =   161.95 Bohr mag/cell
     absolute magnetization    =   168.42 Bohr mag/cell

     iteration # 47     ecut=    60.00 Ry     beta= 0.20
     Davidson diagonalization with overlap
     ethr =  1.43E-12,  avg # of iterations =  9.7

     negative rho (up, down):  1.137E-02 1.549E-02

     Magnetic moment per site:
     atom:    1    charge:   13.4608    magn:    2.5488    constr:    0.0000
     atom:    2    charge:   13.4732    magn:    2.3188    constr:    0.0000
     atom:    3    charge:   13.4597    magn:    2.5459    constr:    0.0000
     atom:    4    charge:   13.4713    magn:    2.3550    constr:    0.0000
     atom:    5    charge:   13.4764    magn:    2.3347    constr:    0.0000
     atom:    6    charge:   13.4635    magn:    2.5314    constr:    0.0000
     atom:    7    charge:   13.4818    magn:    2.2962    constr:    0.0000
     atom:    8    charge:   13.4637    magn:    2.5303    constr:    0.0000
     atom:    9    charge:   13.4604    magn:    2.5453    constr:    0.0000
     atom:   10    charge:   13.4605    magn:    2.5452    constr:    0.0000
     atom:   11    charge:   13.4723    magn:    2.3460    constr:    0.0000
     atom:   12    charge:   13.4723    magn:    2.3460    constr:    0.0000
     atom:   13    charge:   13.4755    magn:    2.3503    constr:    0.0000
     atom:   14    charge:   13.4755    magn:    2.3503    constr:    0.0000
     atom:   15    charge:   13.4642    magn:    2.5320    constr:    0.0000
     atom:   16    charge:   13.4642    magn:    2.5322    constr:    0.0000
     atom:   17    charge:   13.4604    magn:    2.5423    constr:    0.0000
     atom:   18    charge:   13.4714    magn:    2.3581    constr:    0.0000
     atom:   19    charge:   13.4604    magn:    2.5424    constr:    0.0000
     atom:   20    charge:   13.4710    magn:    2.3502    constr:    0.0000
     atom:   21    charge:   13.4785    magn:    2.3220    constr:    0.0000
     atom:   22    charge:   13.4652    magn:    2.5218    constr:    0.0000
     atom:   23    charge:   13.4783    magn:    2.3238    constr:    0.0000
     atom:   24    charge:   13.4724    magn:    2.4813    constr:    0.0000
     atom:   25    charge:   13.4597    magn:    2.5428    constr:    0.0000
     atom:   26    charge:   13.4605    magn:    2.5471    constr:    0.0000
     atom:   27    charge:   13.4718    magn:    2.3542    constr:    0.0000
     atom:   28    charge:   13.4724    magn:    2.3444    constr:    0.0000
     atom:   29    charge:   13.4715    magn:    2.3068    constr:    0.0000
     atom:   30    charge:   13.4817    magn:    2.2788    constr:    0.0000
     atom:   31    charge:   13.4684    magn:    2.5229    constr:    0.0000
     atom:   32    charge:   13.4644    magn:    2.5314    constr:    0.0000
     atom:   33    charge:   13.4604    magn:    2.5422    constr:    0.0000
     atom:   34    charge:   13.4714    magn:    2.3581    constr:    0.0000
     atom:   35    charge:   13.4604    magn:    2.5424    constr:    0.0000
     atom:   36    charge:   13.4710    magn:    2.3500    constr:    0.0000
     atom:   37    charge:   13.4786    magn:    2.3218    constr:    0.0000
     atom:   38    charge:   13.4652    magn:    2.5218    constr:    0.0000
     atom:   39    charge:   13.4784    magn:    2.3236    constr:    0.0000
     atom:   40    charge:   13.4720    magn:    2.4841    constr:    0.0000
     atom:   41    charge:   13.4605    magn:    2.5470    constr:    0.0000
     atom:   42    charge:   13.4597    magn:    2.5428    constr:    0.0000
     atom:   43    charge:   13.4724    magn:    2.3444    constr:    0.0000
     atom:   44    charge:   13.4718    magn:    2.3542    constr:    0.0000
     atom:   45    charge:   13.4816    magn:    2.2790    constr:    0.0000
     atom:   46    charge:   13.4715    magn:    2.3056    constr:    0.0000
     atom:   47    charge:   13.4644    magn:    2.5315    constr:    0.0000
     atom:   48    charge:   13.4688    magn:    2.5206    constr:    0.0000
     atom:   49    charge:   13.4597    magn:    2.5459    constr:    0.0000
     atom:   50    charge:   13.4715    magn:    2.3334    constr:    0.0000
     atom:   51    charge:   13.4608    magn:    2.5485    constr:    0.0000
     atom:   52    charge:   13.4714    magn:    2.3543    constr:    0.0000
     atom:   53    charge:   13.4814    magn:    2.2991    constr:    0.0000
     atom:   54    charge:   13.4603    magn:    2.2163    constr:    0.0000
     atom:   55    charge:   13.4766    magn:    2.3327    constr:    0.0000
     atom:   56    charge:   13.4641    magn:    2.5302    constr:    0.0000
     atom:   57    charge:   13.4604    magn:    2.5452    constr:    0.0000
     atom:   58    charge:   13.4604    magn:    2.5451    constr:    0.0000
     atom:   59    charge:   13.4717    magn:    2.3554    constr:    0.0000
     atom:   60    charge:   13.4717    magn:    2.3554    constr:    0.0000
     atom:   61    charge:   13.4758    magn:    2.3481    constr:    0.0000
     atom:   62    charge:   13.4758    magn:    2.3481    constr:    0.0000
     atom:   63    charge:   13.4687    magn:    2.5211    constr:    0.0000
     atom:   64    charge:   13.4684    magn:    2.5233    constr:    0.0000
     atom:   65    charge:    1.3549    magn:   -0.0021    constr:    0.0000
     atom:   66    charge:    0.4380    magn:    0.0008    constr:    0.0000
     atom:   67    charge:    0.4367    magn:    0.0018    constr:    0.0000
     atom:   68    charge:    0.4377    magn:    0.0007    constr:    0.0000

     total cpu time spent up to now is     4975.7 secs

     End of self-consistent calculation

 ------ SPIN UP ------------


          k = 0.0000 0.0000 0.0000 (128403 PWs)   bands (ev):

   -92.0255 -92.0106 -92.0097 -92.0081 -92.0071 -92.0053 -91.9986 -91.9969
   -91.9967 -91.9951 -91.9931 -91.9910 -91.9899 -91.9889 -91.9887 -91.9875
   -91.9865 -91.9797 -91.9795 -91.9787 -91.9782 -91.9778 -91.9769 -91.9753
   -91.9688 -91.9655 -91.9653 -91.9539 -91.9531 -91.9181 -91.9153 -91.8966
   -91.8874 -91.8713 -91.8680 -91.8652 -91.8645 -91.8583 -91.8548 -91.8507
   -91.8481 -91.8458 -91.8443 -91.8424 -91.8420 -91.8409 -91.8404 -91.8393
   -91.8361 -91.8360 -91.8340 -91.8339 -91.8326 -91.8268 -91.8253 -91.8238
   -91.8206 -91.8186 -91.8150 -91.8137 -91.7971 -91.7935 -91.7924 -91.7849
   -58.2202 -58.1999 -58.1960 -58.1939 -58.1931 -58.1906 -58.1890 -58.1870
   -58.1837 -58.1823 -58.1822 -58.1810 -58.1794 -58.1774 -58.1758 -58.1739
   -58.1725 -58.1716 -58.1700 -58.1662 -58.1653 -58.1652 -58.1637 -58.1629
   -58.1605 -58.1527 -58.1508 -58.1465 -58.1460 -58.1449 -58.1359 -58.1329
   -58.1329 -58.1272 -58.1216 -58.1207 -58.1099 -58.1092 -58.1090 -58.1086
   -58.1040 -58.1008 -58.0946 -58.0910 -58.0902 -58.0900 -58.0683 -58.0506
   -58.0423 -58.0388 -58.0373 -58.0366 -58.0349 -58.0334 -58.0331 -58.0305
   -58.0258 -58.0250 -58.0241 -58.0212 -58.0209 -58.0181 -58.0171 -58.0139
   -58.0103 -58.0096 -58.0067 -58.0030 -58.0017 -58.0012 -58.0003 -57.9981
   -57.9893 -57.9843 -57.9842 -57.9824 -57.9814 -57.9775 -57.9775 -57.9750
   -57.9663 -57.9661 -57.9647 -57.9644 -57.9619 -57.9591 -57.9584 -57.9582
   -57.9565 -57.9538 -57.9534 -57.9491 -57.9452 -57.9436 -57.9398 -57.9345
   -57.9341 -57.9326 -57.9281 -57.9276 -57.9263 -57.9241 -57.9167 -57.9154
   -57.9144 -57.9127 -57.9079 -57.9065 -57.9029 -57.9021 -57.9014 -57.9002
   -57.8997 -57.8982 -57.8958 -57.8935 -57.8916 -57.8902 -57.8897 -57.8871
   -57.8865 -57.8844 -57.8837 -57.8812 -57.8792 -57.8778 -57.8746 -57.8724
   -57.8722 -57.8695 -57.8681 -57.8662 -57.8645 -57.8599 -57.8584 -57.8538
   -57.8533 -57.8525 -57.8520 -57.8483 -57.8460 -57.8458 -57.8408 -57.8389
   -57.8318 -57.8299 -57.8293 -57.8279 -57.8263 -57.8215 -57.8209 -57.8138
   -57.8126 -57.8112 -57.8086 -57.8058 -57.8025 -57.7985 -57.7970 -57.7962
   -57.7925 -57.7916 -57.7896 -57.7860 -57.7858 -57.7854 -57.7828 -57.7800
   -57.7771 -57.7766 -57.7763 -57.7746 -57.7701 -57.7649 -57.7622 -57.7596
   -57.7539 -57.7478 -57.7463 -57.7457 -57.7401 -57.7387 -57.7373 -57.7365
   -57.7363 -57.7341 -57.7336 -57.7333 -57.7319 -57.7286 -57.7275 -57.7245
   -22.7516 -12.9797 -12.9753 -11.7944 -10.5865 -10.1491 -10.1123 -10.1105
   -10.1074  -9.7073  -9.6379  -9.5256  -9.1610  -9.1257  -9.1250  -9.1246
    -8.9675  -8.7016  -8.6895  -8.6465  -8.4845  -8.4842  -8.4641  -8.4622
    -8.4451  -8.4005  -8.3760  -8.3031  -8.2958  -8.0534  -8.0526  -8.0474
    -8.0212  -8.0037  -7.9619  -7.9149  -7.9078  -7.9068  -7.9057  -7.9022
    -7.8998  -7.8972  -7.8939  -7.8862  -7.8832  -7.8821  -7.8814  -7.8755
    -7.8592  -7.8436  -7.8352  -7.8297  -7.8133  -7.8079  -7.8056  -7.8025
    -7.7926  -7.7675  -7.6994  -7.6971  -7.6937  -7.6914  -7.6262  -7.6254
    -7.6172  -7.6054  -7.3443  -7.3349  -7.3153  -7.3094  -7.3077  -7.2938
    -7.1965  -7.1943  -7.1635  -7.1429  -7.1368  -7.1355  -7.1289  -7.1249
    -7.1144  -7.1131  -7.1122  -7.1102  -7.0937  -7.0923  -7.0884  -7.0855
    -7.0832  -7.0631  -7.0626  -7.0529  -7.0505  -7.0441  -7.0418  -7.0327
    -7.0310  -7.0280  -7.0203  -6.9963  -6.9957  -6.9942  -6.9860  -6.9785
    -6.9770  -6.9678  -6.9658  -6.9577  -6.9407  -6.9339  -6.9315  -6.8954
    -6.8542  -6.7989  -6.7874  -6.7591  -6.7527  -6.7506  -6.7344  -6.7338
    -6.6541  -6.6336  -6.5650  -6.5613  -6.5539  -6.5496  -6.5467  -6.5352
    -6.5268  -6.5178  -6.5163  -6.4856  -6.4807  -6.4759  -6.4628  -6.4619
    -6.4596  -6.4295  -6.4241  -6.4235  -6.4153  -6.4106  -6.4104  -6.4078
    -6.4022  -6.3794  -6.3494  -6.3466  -6.2791  -6.2727  -6.2699  -6.2636
    -6.2604  -6.2538  -6.2533  -6.2298  -6.2060  -6.2025  -6.1999  -6.1845
    -6.1657  -6.1415  -6.1178  -6.1137  -6.1113  -6.1105  -6.0970  -6.0889
    -6.0847  -6.0457  -6.0358  -6.0355  -6.0306  -6.0178  -6.0166  -6.0080
    -6.0055  -5.9964  -5.9863  -5.9819  -5.9816  -5.9673  -5.9635  -5.9617
    -5.9547  -5.9448  -5.9291  -5.9141  -5.8958  -5.8586  -5.8044  -5.7373
    -5.7279  -5.5947  -5.5652  -5.4606  -5.4542  -5.4433  -5.4412  -5.4394
    -5.4381  -5.4286  -5.4229  -5.4219  -5.4192  -5.3879  -5.3794  -5.3587
    -5.3567  -5.3541  -5.3191  -5.3112  -5.2810  -5.2784  -5.2737  -5.2734
    -5.2492  -5.2465  -5.2452  -5.2332  -5.2321  -5.2300  -5.2222  -5.2095
    -5.1858  -5.1665  -5.1644  -5.1409  -5.1386  -5.1374  -5.1361  -5.1321
    -5.1088  -5.1060  -5.0989  -5.0951  -5.0940  -5.0940  -5.0831  -5.0790
    -5.0611  -5.0560  -5.0484  -5.0469  -5.0389  -5.0380  -5.0338  -5.0260
    -5.0207  -5.0201  -5.0159  -5.0117  -5.0108  -5.0086  -5.0075  -5.0022
    -4.9973  -4.9850  -4.9827  -4.9815  -4.9784  -4.9688  -4.9651  -4.9621
    -4.9580  -4.9539  -4.9521  -4.9449  -4.9353  -4.9317  -4.9062  -4.9038
    -4.9023  -4.9014  -4.9012  -4.9008  -4.8921  -4.8881  -4.8871  -4.8774
    -4.8769  -4.8543  -4.8470  -4.8450  -4.8431  -4.7932  -4.7912  -4.7884
    -4.7872  -4.7827  -4.7627  -4.7588  -4.7468  -4.7445  -4.7328  -4.6370
    -4.6366  -4.6328  -4.6239  -4.6225  -4.6149  -4.6136  -4.6007  -4.6005
    -4.6001  -4.5976  -4.5952  -4.5821  -4.5773  -4.5610  -4.5591  -4.5544
    -4.5362  -4.5357  -4.5351  -4.5320  -4.4518  -4.4442  -4.3270  -4.1569
    -4.1217  -4.1053  -4.0991  -4.0890  -4.0728  -4.0179  -4.0162  -4.0075
    -3.9970  -3.9490  -3.9359  -3.8814  -3.8797  -3.8762  -3.8639  -3.8347
    -3.8243  -3.8090  -3.7924  -3.7790  -3.7535  -3.6637  -3.6536  -3.5881
    -3.5829  -3.5505  -3.5080  -3.4887  -3.2824  -2.8645  -2.8428  -2.8291
    -2.8240  -2.8194  -2.7616  -2.6523  -2.0594  -2.0486  -2.0390  -1.9345
    -1.9103  -1.8954  -1.8949

          k = 0.0000 0.2652 0.0000 (128375 PWs)   bands (ev):

   -92.0242 -92.0146 -92.0096 -92.0077 -92.0052 -92.0012 -92.0010 -92.0002
   -91.9970 -91.9958 -91.9917 -91.9916 -91.9895 -91.9885 -91.9874 -91.9861
   -91.9838 -91.9827 -91.9800 -91.9795 -91.9792 -91.9780 -91.9776 -91.9724
   -91.9682 -91.9662 -91.9654 -91.9539 -91.9532 -91.9181 -91.9153 -91.8966
   -91.8860 -91.8760 -91.8675 -91.8644 -91.8625 -91.8573 -91.8520 -91.8518
   -91.8492 -91.8467 -91.8451 -91.8442 -91.8432 -91.8410 -91.8402 -91.8374
   -91.8362 -91.8351 -91.8341 -91.8324 -91.8321 -91.8277 -91.8262 -91.8233
   -91.8209 -91.8196 -91.8143 -91.8133 -91.7970 -91.7944 -91.7909 -91.7856
   -58.2180 -58.2027 -58.1991 -58.1953 -58.1929 -58.1902 -58.1872 -58.1868
   -58.1838 -58.1827 -58.1817 -58.1795 -58.1788 -58.1770 -58.1757 -58.1740
   -58.1722 -58.1709 -58.1688 -58.1673 -58.1670 -58.1655 -58.1640 -58.1596
   -58.1580 -58.1533 -58.1516 -58.1467 -58.1441 -58.1398 -58.1323 -58.1302
   -58.1274 -58.1243 -58.1179 -58.1172 -58.1123 -58.1103 -58.1072 -58.1047
   -58.0982 -58.0956 -58.0939 -58.0935 -58.0900 -58.0806 -58.0651 -58.0625
   -58.0555 -58.0525 -58.0475 -58.0437 -58.0429 -58.0345 -58.0323 -58.0294
   -58.0266 -58.0266 -58.0257 -58.0227 -58.0213 -58.0176 -58.0164 -58.0147
   -58.0129 -58.0110 -58.0077 -58.0066 -58.0034 -58.0014 -57.9998 -57.9985
   -57.9975 -57.9953 -57.9939 -57.9922 -57.9894 -57.9794 -57.9790 -57.9743
   -57.9733 -57.9728 -57.9689 -57.9635 -57.9622 -57.9594 -57.9570 -57.9551
   -57.9489 -57.9452 -57.9448 -57.9438 -57.9418 -57.9395 -57.9355 -57.9336
   -57.9331 -57.9309 -57.9296 -57.9272 -57.9257 -57.9210 -57.9172 -57.9149
   -57.9113 -57.9100 -57.9094 -57.9082 -57.9064 -57.9058 -57.9039 -57.9033
   -57.9012 -57.8991 -57.8964 -57.8954 -57.8930 -57.8922 -57.8908 -57.8899
   -57.8851 -57.8838 -57.8760 -57.8752 -57.8736 -57.8726 -57.8708 -57.8683
   -57.8669 -57.8661 -57.8647 -57.8613 -57.8600 -57.8586 -57.8560 -57.8540
   -57.8516 -57.8483 -57.8473 -57.8452 -57.8444 -57.8425 -57.8372 -57.8326
   -57.8313 -57.8299 -57.8283 -57.8267 -57.8260 -57.8251 -57.8208 -57.8122
   -57.8106 -57.8091 -57.8069 -57.8061 -57.8031 -57.8025 -57.7991 -57.7977
   -57.7963 -57.7927 -57.7887 -57.7851 -57.7838 -57.7816 -57.7790 -57.7779
   -57.7767 -57.7744 -57.7713 -57.7700 -57.7675 -57.7645 -57.7626 -57.7604
   -57.7541 -57.7517 -57.7496 -57.7476 -57.7453 -57.7440 -57.7420 -57.7401
   -57.7388 -57.7372 -57.7365 -57.7347 -57.7341 -57.7327 -57.7295 -57.7264
   -22.7516 -12.9798 -12.9753 -11.6780 -10.7993 -10.4780 -10.2636 -10.0111
    -9.8133  -9.7259  -9.4964  -9.3720  -9.1969  -9.1569  -9.0362  -8.9400
    -8.8406  -8.7735  -8.6993  -8.6152  -8.5258  -8.4779  -8.4253  -8.4045
    -8.3964  -8.3806  -8.3497  -8.3476  -8.3313  -8.1943  -8.1164  -8.0849
    -8.0517  -8.0486  -8.0377  -8.0172  -8.0066  -8.0032  -7.9932  -7.9819
    -7.9724  -7.9504  -7.9440  -7.9365  -7.9130  -7.9098  -7.8836  -7.8728
    -7.8589  -7.8485  -7.8297  -7.8245  -7.8038  -7.7811  -7.7594  -7.7516
    -7.7290  -7.7268  -7.7210  -7.7152  -7.6926  -7.5999  -7.5706  -7.5565
    -7.5483  -7.5281  -7.5012  -7.4202  -7.3866  -7.3655  -7.3150  -7.2972
    -7.2534  -7.2467  -7.2053  -7.1610  -7.1508  -7.1431  -7.1345  -7.1230
    -7.1187  -7.1100  -7.0963  -7.0920  -7.0832  -7.0793  -7.0782  -7.0746
    -7.0594  -7.0465  -7.0426  -7.0377  -7.0332  -7.0192  -7.0149  -7.0063
    -7.0015  -6.9978  -6.9903  -6.9885  -6.9834  -6.9792  -6.9768  -6.9577
    -6.9402  -6.9154  -6.9016  -6.8949  -6.8833  -6.8803  -6.8596  -6.8433
    -6.8409  -6.8279  -6.8245  -6.8160  -6.7438  -6.7349  -6.7190  -6.6868
    -6.6582  -6.6559  -6.6472  -6.6290  -6.6123  -6.5526  -6.5448  -6.5378
    -6.5316  -6.5259  -6.5212  -6.5071  -6.5056  -6.4972  -6.4935  -6.4794
    -6.4761  -6.4611  -6.4428  -6.4388  -6.4319  -6.4213  -6.3996  -6.3866
    -6.3827  -6.3435  -6.3385  -6.3097  -6.3065  -6.2949  -6.2821  -6.2736
    -6.2630  -6.2514  -6.2435  -6.2413  -6.2278  -6.2217  -6.2162  -6.2073
    -6.1975  -6.1928  -6.1870  -6.1745  -6.1688  -6.1396  -6.1245  -6.1173
    -6.0872  -6.0708  -6.0687  -6.0456  -6.0368  -6.0311  -6.0049  -5.9947
    -5.9895  -5.9755  -5.9694  -5.9591  -5.9508  -5.9133  -5.8965  -5.8724
    -5.8579  -5.8446  -5.8200  -5.7907  -5.7773  -5.7726  -5.7340  -5.6892
    -5.5871  -5.5708  -5.5615  -5.5292  -5.5182  -5.4996  -5.4936  -5.4590
    -5.4471  -5.4333  -5.4307  -5.4133  -5.4104  -5.3980  -5.3813  -5.3763
    -5.3745  -5.3631  -5.3582  -5.3478  -5.3289  -5.3149  -5.2919  -5.2680
    -5.2529  -5.2420  -5.2342  -5.2284  -5.2236  -5.2120  -5.2066  -5.2010
    -5.1985  -5.1949  -5.1835  -5.1763  -5.1713  -5.1644  -5.1380  -5.1354
    -5.1204  -5.1137  -5.1037  -5.0928  -5.0849  -5.0787  -5.0739  -5.0686
    -5.0654  -5.0601  -5.0542  -5.0495  -5.0483  -5.0338  -5.0334  -5.0266
    -5.0209  -5.0131  -5.0042  -4.9998  -4.9965  -4.9868  -4.9819  -4.9751
    -4.9652  -4.9646  -4.9613  -4.9580  -4.9548  -4.9505  -4.9490  -4.9475
    -4.9296  -4.9249  -4.9198  -4.9132  -4.9068  -4.9047  -4.9004  -4.8965
    -4.8901  -4.8869  -4.8861  -4.8828  -4.8640  -4.8595  -4.8485  -4.8394
    -4.8340  -4.8311  -4.8085  -4.7876  -4.7791  -4.7571  -4.7508  -4.7389
    -4.7359  -4.7321  -4.7235  -4.7137  -4.7069  -4.7058  -4.7009  -4.6972
    -4.6899  -4.6858  -4.6610  -4.6291  -4.6213  -4.6172  -4.6113  -4.6110
    -4.6030  -4.5918  -4.5858  -4.5700  -4.5688  -4.5625  -4.5443  -4.5341
    -4.4978  -4.4377  -4.4307  -4.4204  -4.4007  -4.2129  -4.1970  -4.1885
    -4.1718  -4.1564  -4.1445  -4.1318  -4.1242  -4.1138  -4.0841  -4.0468
    -4.0354  -4.0183  -4.0085  -3.9999  -3.9902  -3.9855  -3.9725  -3.9496
    -3.9429  -3.9036  -3.8958  -3.8796  -3.8382  -3.8139  -3.7849  -3.7169
    -3.6854  -3.6078  -3.4470  -3.3037  -3.1588  -3.0019  -2.9920  -2.9091
    -2.7385  -2.7268  -2.5752  -2.5647  -2.4762  -2.4284  -2.3808  -2.2563
    -2.1806  -2.0067  -1.9085

          k = 0.0000-0.5303 0.0000 (128388 PWs)   bands (ev):

   -92.0204 -92.0202 -92.0079 -92.0054 -92.0052 -92.0038 -92.0012 -92.0011
   -91.9970 -91.9948 -91.9946 -91.9902 -91.9888 -91.9866 -91.9865 -91.9857
   -91.9832 -91.9832 -91.9806 -91.9801 -91.9798 -91.9796 -91.9779 -91.9688
   -91.9687 -91.9676 -91.9652 -91.9539 -91.9533 -91.9181 -91.9153 -91.8966
   -91.8822 -91.8817 -91.8673 -91.8646 -91.8593 -91.8582 -91.8512 -91.8499
   -91.8494 -91.8489 -91.8459 -91.8447 -91.8439 -91.8417 -91.8396 -91.8380
   -91.8357 -91.8345 -91.8333 -91.8316 -91.8313 -91.8283 -91.8263 -91.8241
   -91.8217 -91.8196 -91.8141 -91.8127 -91.7968 -91.7949 -91.7895 -91.7867
   -58.2121 -58.2109 -58.1981 -58.1956 -58.1950 -58.1893 -58.1860 -58.1858
   -58.1843 -58.1839 -58.1821 -58.1786 -58.1784 -58.1776 -58.1730 -58.1727
   -58.1720 -58.1704 -58.1694 -58.1671 -58.1669 -58.1663 -58.1652 -58.1556
   -58.1555 -58.1547 -58.1535 -58.1470 -58.1435 -58.1298 -58.1261 -58.1252
   -58.1241 -58.1241 -58.1186 -58.1164 -58.1092 -58.1065 -58.1017 -58.1004
   -58.0944 -58.0924 -58.0894 -58.0845 -58.0837 -58.0821 -58.0766 -58.0692
   -58.0665 -58.0663 -58.0553 -58.0525 -58.0514 -58.0498 -58.0437 -58.0362
   -58.0286 -58.0257 -58.0233 -58.0223 -58.0219 -58.0177 -58.0147 -58.0131
   -58.0126 -58.0052 -58.0044 -58.0042 -58.0022 -58.0018 -57.9982 -57.9962
   -57.9958 -57.9928 -57.9913 -57.9908 -57.9902 -57.9833 -57.9832 -57.9817
   -57.9790 -57.9787 -57.9769 -57.9743 -57.9723 -57.9682 -57.9664 -57.9632
   -57.9619 -57.9528 -57.9478 -57.9461 -57.9385 -57.9325 -57.9317 -57.9310
   -57.9275 -57.9230 -57.9230 -57.9199 -57.9166 -57.9132 -57.9123 -57.9086
   -57.9079 -57.9067 -57.9066 -57.9055 -57.9052 -57.9030 -57.9014 -57.9012
   -57.8989 -57.8964 -57.8956 -57.8929 -57.8913 -57.8901 -57.8893 -57.8883
   -57.8871 -57.8838 -57.8829 -57.8801 -57.8791 -57.8732 -57.8727 -57.8681
   -57.8669 -57.8648 -57.8633 -57.8619 -57.8562 -57.8551 -57.8527 -57.8507
   -57.8467 -57.8449 -57.8432 -57.8406 -57.8399 -57.8362 -57.8328 -57.8320
   -57.8312 -57.8300 -57.8284 -57.8283 -57.8259 -57.8235 -57.8215 -57.8169
   -57.8144 -57.8103 -57.8067 -57.8055 -57.8048 -57.8003 -57.7992 -57.7970
   -57.7946 -57.7917 -57.7821 -57.7795 -57.7779 -57.7772 -57.7768 -57.7728
   -57.7714 -57.7670 -57.7666 -57.7662 -57.7654 -57.7634 -57.7627 -57.7618
   -57.7569 -57.7567 -57.7558 -57.7540 -57.7528 -57.7525 -57.7486 -57.7484
   -57.7462 -57.7433 -57.7388 -57.7372 -57.7349 -57.7329 -57.7295 -57.7275
   -22.7516 -12.9800 -12.9753 -11.3407 -11.3337 -10.2512 -10.2157 -10.1785
   -10.1311  -9.5545  -9.3143  -9.2947  -9.1636  -9.0854  -8.8047  -8.8014
    -8.7771  -8.7345  -8.6723  -8.6554  -8.5351  -8.5312  -8.5073  -8.4621
    -8.3818  -8.3759  -8.2637  -8.2627  -8.2520  -8.2502  -8.2381  -8.2311
    -8.2063  -8.2048  -8.1974  -8.1924  -8.1055  -8.1024  -8.0463  -8.0326
    -8.0304  -8.0012  -7.8871  -7.8819  -7.8795  -7.8736  -7.8064  -7.8061
    -7.7990  -7.7909  -7.7836  -7.7766  -7.7742  -7.7642  -7.7523  -7.7482
    -7.7423  -7.7369  -7.6421  -7.6279  -7.6271  -7.6229  -7.6100  -7.6095
    -7.5980  -7.5885  -7.5081  -7.4952  -7.4435  -7.4335  -7.3970  -7.3941
    -7.3259  -7.3128  -7.1865  -7.1717  -7.1434  -7.1427  -7.1180  -7.1148
    -7.1068  -7.0985  -7.0940  -7.0876  -7.0795  -7.0740  -7.0687  -7.0570
    -7.0533  -7.0373  -7.0365  -7.0355  -7.0301  -7.0275  -7.0223  -7.0194
    -6.9823  -6.9725  -6.9358  -6.9321  -6.9025  -6.8925  -6.8896  -6.8862
    -6.8642  -6.8581  -6.8476  -6.8472  -6.8387  -6.8317  -6.8307  -6.8300
    -6.8241  -6.8194  -6.8156  -6.8053  -6.7747  -6.7705  -6.7688  -6.7658
    -6.7571  -6.7493  -6.6278  -6.6004  -6.5773  -6.5575  -6.5161  -6.5131
    -6.5119  -6.5116  -6.5012  -6.5008  -6.4986  -6.4886  -6.4835  -6.4809
    -6.4792  -6.4718  -6.4642  -6.4610  -6.4541  -6.4514  -6.4227  -6.4198
    -6.4195  -6.4159  -6.4091  -6.3610  -6.3607  -6.3488  -6.3446  -6.3363
    -6.3227  -6.3219  -6.2928  -6.2871  -6.2767  -6.2756  -6.2517  -6.2512
    -6.2355  -6.2192  -6.1962  -6.1793  -6.1655  -6.1635  -6.1319  -6.1273
    -6.0367  -6.0279  -6.0204  -6.0127  -6.0084  -5.9975  -5.9836  -5.9797
    -5.9750  -5.9631  -5.9494  -5.9284  -5.8380  -5.8364  -5.7109  -5.7081
    -5.7013  -5.6956  -5.6900  -5.6869  -5.6500  -5.6383  -5.6313  -5.6065
    -5.5648  -5.5483  -5.5413  -5.5406  -5.5198  -5.5188  -5.5114  -5.5105
    -5.5055  -5.5029  -5.4936  -5.4848  -5.4844  -5.4807  -5.4581  -5.4303
    -5.3721  -5.3689  -5.3563  -5.3424  -5.3407  -5.3357  -5.3292  -5.3047
    -5.3012  -5.2795  -5.2279  -5.2265  -5.2088  -5.2083  -5.2043  -5.1972
    -5.1963  -5.1915  -5.1914  -5.1890  -5.1817  -5.1773  -5.1766  -5.1694
    -5.1627  -5.1587  -5.1538  -5.1514  -5.1429  -5.1387  -5.1381  -5.1037
    -5.0690  -5.0443  -5.0426  -5.0298  -5.0286  -5.0245  -5.0225  -5.0131
    -5.0075  -5.0038  -4.9946  -4.9903  -4.9870  -4.9847  -4.9817  -4.9773
    -4.9661  -4.9656  -4.9617  -4.9534  -4.9519  -4.9447  -4.9361  -4.9198
    -4.9078  -4.8987  -4.8980  -4.8886  -4.8853  -4.8478  -4.8437  -4.8358
    -4.8344  -4.8301  -4.8232  -4.8193  -4.7951  -4.7852  -4.7797  -4.7706
    -4.7539  -4.7487  -4.7486  -4.7465  -4.7425  -4.7402  -4.7358  -4.7320
    -4.7250  -4.7243  -4.7226  -4.7194  -4.7154  -4.7142  -4.7108  -4.7094
    -4.7062  -4.6940  -4.6923  -4.6506  -4.6426  -4.6169  -4.6080  -4.5409
    -4.5374  -4.5366  -4.4980  -4.4916  -4.4494  -4.4480  -4.4404  -4.4365
    -4.3262  -4.3222  -4.3195  -4.3173  -4.2969  -4.2934  -4.2511  -4.2505
    -4.2393  -4.2335  -4.2238  -4.2066  -4.1864  -4.1661  -4.1652  -4.1518
    -4.1490  -4.1134  -4.0730  -4.0521  -4.0369  -4.0228  -3.9964  -3.9872
    -3.9622  -3.9546  -3.9482  -3.9377  -3.9239  -3.9222  -3.9131  -3.9092
    -3.9002  -3.7511  -3.5700  -3.5602  -3.4520  -3.3505  -2.9349  -2.9316
    -2.9047  -2.7609  -2.2953  -2.2875  -2.2753  -2.1575  -2.1149  -2.1127
    -2.0649  -2.0598  -2.0041

          k = 0.2500-0.0884 0.0000 (128371 PWs)   bands (ev):

   -92.0242 -92.0146 -92.0096 -92.0077 -92.0052 -92.0012 -92.0009 -92.0002
   -91.9972 -91.9958 -91.9917 -91.9917 -91.9895 -91.9884 -91.9874 -91.9862
   -91.9838 -91.9827 -91.9801 -91.9795 -91.9792 -91.9780 -91.9776 -91.9724
   -91.9681 -91.9662 -91.9654 -91.9539 -91.9532 -91.9181 -91.9153 -91.8966
   -91.8860 -91.8760 -91.8675 -91.8644 -91.8625 -91.8573 -91.8520 -91.8518
   -91.8492 -91.8467 -91.8451 -91.8442 -91.8432 -91.8410 -91.8402 -91.8374
   -91.8362 -91.8351 -91.8341 -91.8325 -91.8321 -91.8277 -91.8262 -91.8233
   -91.8209 -91.8196 -91.8143 -91.8133 -91.7970 -91.7944 -91.7909 -91.7856
   -58.2180 -58.2027 -58.1991 -58.1953 -58.1929 -58.1902 -58.1871 -58.1868
   -58.1839 -58.1827 -58.1818 -58.1795 -58.1788 -58.1770 -58.1758 -58.1738
   -58.1720 -58.1711 -58.1688 -58.1673 -58.1670 -58.1655 -58.1640 -58.1596
   -58.1580 -58.1533 -58.1516 -58.1467 -58.1441 -58.1398 -58.1323 -58.1302
   -58.1274 -58.1243 -58.1179 -58.1172 -58.1123 -58.1103 -58.1072 -58.1047
   -58.0982 -58.0956 -58.0939 -58.0935 -58.0899 -58.0806 -58.0651 -58.0625
   -58.0555 -58.0525 -58.0475 -58.0437 -58.0429 -58.0345 -58.0323 -58.0294
   -58.0267 -58.0266 -58.0257 -58.0227 -58.0213 -58.0176 -58.0164 -58.0147
   -58.0129 -58.0110 -58.0077 -58.0066 -58.0034 -58.0014 -57.9998 -57.9985
   -57.9975 -57.9953 -57.9939 -57.9922 -57.9894 -57.9794 -57.9790 -57.9743
   -57.9733 -57.9728 -57.9689 -57.9634 -57.9622 -57.9594 -57.9570 -57.9551
   -57.9489 -57.9451 -57.9448 -57.9438 -57.9418 -57.9395 -57.9355 -57.9336
   -57.9331 -57.9309 -57.9296 -57.9272 -57.9257 -57.9210 -57.9172 -57.9149
   -57.9113 -57.9100 -57.9094 -57.9082 -57.9064 -57.9058 -57.9039 -57.9033
   -57.9012 -57.8991 -57.8964 -57.8954 -57.8930 -57.8922 -57.8908 -57.8899
   -57.8851 -57.8838 -57.8760 -57.8752 -57.8736 -57.8726 -57.8708 -57.8683
   -57.8669 -57.8661 -57.8647 -57.8613 -57.8600 -57.8586 -57.8560 -57.8540
   -57.8516 -57.8483 -57.8473 -57.8452 -57.8444 -57.8425 -57.8372 -57.8326
   -57.8313 -57.8299 -57.8283 -57.8267 -57.8261 -57.8251 -57.8208 -57.8122
   -57.8106 -57.8091 -57.8069 -57.8061 -57.8030 -57.8026 -57.7991 -57.7977
   -57.7963 -57.7926 -57.7887 -57.7851 -57.7838 -57.7816 -57.7790 -57.7779
   -57.7767 -57.7744 -57.7713 -57.7700 -57.7675 -57.7645 -57.7626 -57.7604
   -57.7541 -57.7517 -57.7496 -57.7476 -57.7453 -57.7440 -57.7420 -57.7401
   -57.7388 -57.7372 -57.7365 -57.7347 -57.7341 -57.7327 -57.7295 -57.7263
   -22.7516 -12.9797 -12.9754 -11.6780 -10.7993 -10.4780 -10.2636 -10.0111
    -9.8133  -9.7259  -9.4964  -9.3720  -9.1969  -9.1569  -9.0362  -8.9400
    -8.8406  -8.7735  -8.6993  -8.6152  -8.5258  -8.4779  -8.4253  -8.4045
    -8.3964  -8.3806  -8.3497  -8.3476  -8.3313  -8.1943  -8.1164  -8.0849
    -8.0517  -8.0486  -8.0377  -8.0172  -8.0066  -8.0032  -7.9932  -7.9819
    -7.9724  -7.9504  -7.9440  -7.9365  -7.9130  -7.9098  -7.8836  -7.8728
    -7.8589  -7.8485  -7.8297  -7.8245  -7.8038  -7.7811  -7.7594  -7.7515
    -7.7290  -7.7268  -7.7210  -7.7152  -7.6926  -7.5999  -7.5706  -7.5565
    -7.5483  -7.5281  -7.5012  -7.4202  -7.3866  -7.3655  -7.3150  -7.2972
    -7.2534  -7.2467  -7.2053  -7.1610  -7.1508  -7.1431  -7.1345  -7.1230
    -7.1187  -7.1100  -7.0963  -7.0920  -7.0832  -7.0793  -7.0782  -7.0746
    -7.0594  -7.0465  -7.0426  -7.0377  -7.0332  -7.0193  -7.0149  -7.0063
    -7.0015  -6.9978  -6.9903  -6.9885  -6.9833  -6.9792  -6.9768  -6.9577
    -6.9402  -6.9154  -6.9016  -6.8949  -6.8833  -6.8803  -6.8596  -6.8433
    -6.8409  -6.8279  -6.8245  -6.8160  -6.7438  -6.7349  -6.7190  -6.6868
    -6.6582  -6.6559  -6.6472  -6.6290  -6.6123  -6.5526  -6.5448  -6.5378
    -6.5316  -6.5259  -6.5212  -6.5071  -6.5056  -6.4972  -6.4934  -6.4794
    -6.4760  -6.4611  -6.4428  -6.4388  -6.4319  -6.4213  -6.3997  -6.3866
    -6.3827  -6.3435  -6.3385  -6.3096  -6.3065  -6.2950  -6.2821  -6.2736
    -6.2630  -6.2514  -6.2435  -6.2413  -6.2278  -6.2217  -6.2162  -6.2073
    -6.1975  -6.1928  -6.1870  -6.1746  -6.1688  -6.1396  -6.1245  -6.1173
    -6.0873  -6.0708  -6.0687  -6.0456  -6.0368  -6.0311  -6.0049  -5.9947
    -5.9895  -5.9755  -5.9694  -5.9591  -5.9508  -5.9133  -5.8965  -5.8724
    -5.8579  -5.8446  -5.8200  -5.7907  -5.7773  -5.7726  -5.7340  -5.6891
    -5.5871  -5.5708  -5.5615  -5.5292  -5.5182  -5.4995  -5.4936  -5.4590
    -5.4471  -5.4333  -5.4307  -5.4132  -5.4104  -5.3980  -5.3813  -5.3763
    -5.3745  -5.3631  -5.3582  -5.3478  -5.3289  -5.3149  -5.2919  -5.2680
    -5.2529  -5.2420  -5.2342  -5.2284  -5.2236  -5.2119  -5.2065  -5.2010
    -5.1985  -5.1949  -5.1835  -5.1764  -5.1713  -5.1644  -5.1380  -5.1354
    -5.1204  -5.1137  -5.1037  -5.0928  -5.0849  -5.0787  -5.0739  -5.0686
    -5.0653  -5.0601  -5.0542  -5.0495  -5.0483  -5.0338  -5.0334  -5.0266
    -5.0209  -5.0131  -5.0042  -4.9998  -4.9965  -4.9868  -4.9819  -4.9751
    -4.9653  -4.9645  -4.9613  -4.9579  -4.9548  -4.9505  -4.9490  -4.9475
    -4.9296  -4.9249  -4.9198  -4.9132  -4.9068  -4.9047  -4.9004  -4.8965
    -4.8901  -4.8869  -4.8861  -4.8828  -4.8640  -4.8595  -4.8485  -4.8394
    -4.8340  -4.8311  -4.8085  -4.7876  -4.7791  -4.7571  -4.7508  -4.7389
    -4.7359  -4.7322  -4.7235  -4.7137  -4.7069  -4.7058  -4.7009  -4.6972
    -4.6899  -4.6857  -4.6610  -4.6290  -4.6213  -4.6172  -4.6113  -4.6110
    -4.6030  -4.5918  -4.5858  -4.5700  -4.5688  -4.5624  -4.5443  -4.5341
    -4.4978  -4.4377  -4.4307  -4.4204  -4.4007  -4.2129  -4.1970  -4.1885
    -4.1718  -4.1563  -4.1445  -4.1318  -4.1242  -4.1138  -4.0841  -4.0468
    -4.0354  -4.0183  -4.0086  -3.9999  -3.9902  -3.9855  -3.9725  -3.9496
    -3.9429  -3.9035  -3.8958  -3.8796  -3.8382  -3.8139  -3.7849  -3.7169
    -3.6854  -3.6078  -3.4470  -3.3037  -3.1588  -3.0020  -2.9920  -2.9092
    -2.7385  -2.7268  -2.5752  -2.5647  -2.4762  -2.4283  -2.3808  -2.2563
    -2.1805  -2.0067  -1.9084

          k = 0.2500 0.1768 0.0000 (128340 PWs)   bands (ev):

   -92.0232 -92.0135 -92.0108 -92.0089 -92.0070 -92.0020 -92.0013 -91.9992
   -91.9964 -91.9943 -91.9910 -91.9902 -91.9899 -91.9876 -91.9875 -91.9863
   -91.9856 -91.9834 -91.9830 -91.9796 -91.9784 -91.9781 -91.9740 -91.9714
   -91.9697 -91.9676 -91.9643 -91.9537 -91.9535 -91.9181 -91.9153 -91.8966
   -91.8853 -91.8738 -91.8710 -91.8682 -91.8605 -91.8581 -91.8505 -91.8482
   -91.8474 -91.8470 -91.8448 -91.8441 -91.8425 -91.8409 -91.8399 -91.8394
   -91.8376 -91.8368 -91.8344 -91.8327 -91.8307 -91.8292 -91.8274 -91.8213
   -91.8212 -91.8188 -91.8152 -91.8126 -91.7968 -91.7933 -91.7919 -91.7859
   -58.2177 -58.1997 -58.1992 -58.1984 -58.1962 -58.1890 -58.1867 -58.1859
   -58.1840 -58.1814 -58.1810 -58.1775 -58.1769 -58.1755 -58.1750 -58.1749
   -58.1739 -58.1733 -58.1710 -58.1708 -58.1663 -58.1644 -58.1611 -58.1594
   -58.1585 -58.1552 -58.1504 -58.1468 -58.1428 -58.1336 -58.1306 -58.1249
   -58.1239 -58.1214 -58.1125 -58.1120 -58.1038 -58.1031 -58.1028 -58.1022
   -58.0985 -58.0946 -58.0940 -58.0888 -58.0852 -58.0844 -58.0660 -58.0617
   -58.0593 -58.0569 -58.0553 -58.0532 -58.0491 -58.0473 -58.0454 -58.0443
   -58.0379 -58.0342 -58.0289 -58.0224 -58.0215 -58.0196 -58.0179 -58.0150
   -58.0135 -58.0118 -58.0093 -58.0066 -58.0049 -58.0048 -58.0035 -58.0004
   -57.9985 -57.9974 -57.9950 -57.9925 -57.9861 -57.9812 -57.9787 -57.9766
   -57.9765 -57.9659 -57.9651 -57.9623 -57.9603 -57.9595 -57.9586 -57.9559
   -57.9540 -57.9508 -57.9475 -57.9434 -57.9432 -57.9345 -57.9329 -57.9326
   -57.9315 -57.9265 -57.9245 -57.9232 -57.9213 -57.9192 -57.9186 -57.9179
   -57.9163 -57.9160 -57.9119 -57.9117 -57.9084 -57.9063 -57.9024 -57.9014
   -57.9013 -57.8996 -57.8950 -57.8927 -57.8916 -57.8897 -57.8863 -57.8846
   -57.8795 -57.8765 -57.8762 -57.8750 -57.8747 -57.8719 -57.8709 -57.8687
   -57.8670 -57.8606 -57.8593 -57.8586 -57.8570 -57.8566 -57.8560 -57.8558
   -57.8507 -57.8400 -57.8391 -57.8385 -57.8373 -57.8369 -57.8353 -57.8352
   -57.8333 -57.8326 -57.8310 -57.8265 -57.8240 -57.8213 -57.8208 -57.8152
   -57.8149 -57.8102 -57.8084 -57.8060 -57.8045 -57.7963 -57.7927 -57.7919
   -57.7906 -57.7893 -57.7861 -57.7828 -57.7822 -57.7818 -57.7808 -57.7771
   -57.7761 -57.7757 -57.7735 -57.7687 -57.7669 -57.7649 -57.7631 -57.7611
   -57.7549 -57.7522 -57.7512 -57.7502 -57.7500 -57.7453 -57.7443 -57.7419
   -57.7418 -57.7407 -57.7403 -57.7395 -57.7380 -57.7376 -57.7335 -57.7288
   -22.7516 -12.9798 -12.9755 -11.6388 -10.5096 -10.4860 -10.4799 -10.4327
    -9.6997  -9.5328  -9.5084  -9.3768  -9.3659  -9.2103  -8.9985  -8.8892
    -8.7671  -8.7245  -8.5972  -8.4515  -8.4430  -8.4421  -8.4081  -8.4038
    -8.3369  -8.3201  -8.3168  -8.3103  -8.2203  -8.2168  -8.2118  -8.1900
    -8.1177  -8.0990  -8.0827  -8.0747  -8.0017  -7.9936  -7.9869  -7.9679
    -7.9556  -7.9361  -7.9353  -7.9290  -7.9264  -7.9239  -7.9199  -7.9182
    -7.9115  -7.9068  -7.8925  -7.8457  -7.8364  -7.8254  -7.8226  -7.7545
    -7.7523  -7.7463  -7.7365  -7.6950  -7.5751  -7.5717  -7.5443  -7.5425
    -7.4835  -7.4591  -7.4528  -7.4470  -7.4263  -7.4184  -7.4182  -7.2802
    -7.2737  -7.2369  -7.2366  -7.1736  -7.1714  -7.1610  -7.1546  -7.1489
    -7.1464  -7.1460  -7.1336  -7.1315  -7.1276  -7.1249  -7.1135  -7.1127
    -7.1078  -7.0904  -7.0683  -7.0648  -7.0105  -7.0021  -7.0011  -6.9920
    -6.9917  -6.9485  -6.9459  -6.9384  -6.9331  -6.9312  -6.9239  -6.9155
    -6.9038  -6.8962  -6.8847  -6.8712  -6.8407  -6.8320  -6.7967  -6.7886
    -6.7851  -6.7662  -6.7556  -6.7494  -6.7326  -6.7318  -6.7297  -6.7166
    -6.7161  -6.7079  -6.7066  -6.6928  -6.6831  -6.6270  -6.6267  -6.6101
    -6.5996  -6.5397  -6.5314  -6.5210  -6.5205  -6.5157  -6.5116  -6.5026
    -6.4939  -6.4608  -6.4569  -6.4365  -6.4340  -6.4318  -6.4129  -6.4099
    -6.4032  -6.3780  -6.3746  -6.3636  -6.3548  -6.3497  -6.3286  -6.2917
    -6.2678  -6.2574  -6.2539  -6.2469  -6.2276  -6.2257  -6.2242  -6.2164
    -6.1765  -6.1453  -6.1342  -6.1302  -6.1194  -6.1159  -6.1121  -6.1055
    -6.1032  -6.0954  -6.0944  -6.0911  -6.0856  -6.0732  -6.0720  -6.0593
    -6.0390  -6.0275  -6.0131  -6.0114  -5.9492  -5.9464  -5.8223  -5.7913
    -5.7843  -5.7685  -5.7583  -5.7531  -5.7392  -5.6868  -5.6256  -5.6013
    -5.5932  -5.5694  -5.5274  -5.5269  -5.5224  -5.5110  -5.4987  -5.4919
    -5.4602  -5.4445  -5.4326  -5.4238  -5.4168  -5.4113  -5.3948  -5.3718
    -5.3435  -5.3430  -5.3337  -5.3181  -5.3177  -5.3018  -5.3016  -5.2946
    -5.2945  -5.2809  -5.2694  -5.2586  -5.2486  -5.2472  -5.2113  -5.1863
    -5.1820  -5.1767  -5.1645  -5.1599  -5.1576  -5.1533  -5.1490  -5.1449
    -5.1391  -5.1311  -5.1214  -5.0979  -5.0815  -5.0792  -5.0698  -5.0667
    -5.0640  -5.0586  -5.0524  -5.0488  -5.0421  -5.0359  -5.0134  -5.0038
    -4.9992  -4.9920  -4.9913  -4.9824  -4.9771  -4.9730  -4.9576  -4.9487
    -4.9383  -4.9374  -4.9254  -4.9249  -4.9176  -4.9097  -4.9001  -4.8969
    -4.8945  -4.8771  -4.8700  -4.8645  -4.8554  -4.8509  -4.8480  -4.8455
    -4.8426  -4.8422  -4.8371  -4.8366  -4.8219  -4.8141  -4.8071  -4.7991
    -4.7915  -4.7874  -4.7792  -4.7689  -4.7585  -4.7581  -4.7559  -4.7499
    -4.7495  -4.7368  -4.7361  -4.7275  -4.7251  -4.7092  -4.7068  -4.7065
    -4.6853  -4.6838  -4.6730  -4.6517  -4.6431  -4.6114  -4.6053  -4.5976
    -4.5775  -4.5737  -4.5555  -4.5429  -4.5217  -4.5139  -4.5136  -4.4830
    -4.4613  -4.4231  -4.4172  -4.4052  -4.3881  -4.2573  -4.2568  -4.2283
    -4.1688  -4.1559  -4.1454  -4.1025  -4.0753  -4.0741  -4.0313  -4.0136
    -3.9978  -3.9886  -3.9818  -3.9796  -3.9781  -3.9648  -3.9645  -3.9511
    -3.9011  -3.8825  -3.8765  -3.7918  -3.7818  -3.7620  -3.6711  -3.5906
    -3.5687  -3.5679  -3.4234  -3.3102  -3.1447  -3.1359  -3.0053  -2.9992
    -2.9963  -2.9012  -2.8835  -2.8711  -2.8524  -2.8137  -2.8010  -2.5748
    -2.5024  -2.3508  -2.2634

          k = 0.2500-0.6187 0.0000 (128424 PWs)   bands (ev):

   -92.0198 -92.0183 -92.0115 -92.0077 -92.0071 -92.0035 -91.9991 -91.9983
   -91.9951 -91.9944 -91.9928 -91.9927 -91.9894 -91.9875 -91.9870 -91.9869
   -91.9847 -91.9844 -91.9805 -91.9790 -91.9786 -91.9786 -91.9752 -91.9705
   -91.9689 -91.9688 -91.9641 -91.9541 -91.9533 -91.9182 -91.9153 -91.8966
   -91.8822 -91.8792 -91.8723 -91.8665 -91.8590 -91.8531 -91.8515 -91.8502
   -91.8485 -91.8474 -91.8458 -91.8452 -91.8440 -91.8427 -91.8390 -91.8373
   -91.8368 -91.8352 -91.8346 -91.8322 -91.8297 -91.8293 -91.8283 -91.8221
   -91.8214 -91.8197 -91.8147 -91.8120 -91.7964 -91.7943 -91.7903 -91.7868
   -58.2131 -58.2064 -58.2039 -58.1972 -58.1917 -58.1895 -58.1872 -58.1841
   -58.1833 -58.1825 -58.1806 -58.1793 -58.1773 -58.1764 -58.1757 -58.1738
   -58.1726 -58.1718 -58.1704 -58.1685 -58.1659 -58.1655 -58.1617 -58.1583
   -58.1573 -58.1550 -58.1510 -58.1463 -58.1430 -58.1295 -58.1197 -58.1172
   -58.1162 -58.1141 -58.1129 -58.1077 -58.1044 -58.1010 -58.0972 -58.0956
   -58.0942 -58.0916 -58.0911 -58.0893 -58.0825 -58.0798 -58.0779 -58.0763
   -58.0721 -58.0697 -58.0659 -58.0618 -58.0552 -58.0503 -58.0475 -58.0454
   -58.0430 -58.0398 -58.0303 -58.0292 -58.0257 -58.0181 -58.0181 -58.0143
   -58.0133 -58.0119 -58.0108 -58.0056 -57.9997 -57.9988 -57.9967 -57.9957
   -57.9949 -57.9941 -57.9928 -57.9905 -57.9904 -57.9874 -57.9853 -57.9840
   -57.9798 -57.9772 -57.9763 -57.9725 -57.9650 -57.9633 -57.9621 -57.9615
   -57.9588 -57.9578 -57.9533 -57.9511 -57.9436 -57.9401 -57.9317 -57.9302
   -57.9261 -57.9248 -57.9206 -57.9172 -57.9170 -57.9146 -57.9108 -57.9102
   -57.9096 -57.9088 -57.9067 -57.9046 -57.9025 -57.9017 -57.9012 -57.8993
   -57.8962 -57.8933 -57.8918 -57.8903 -57.8881 -57.8877 -57.8854 -57.8840
   -57.8836 -57.8824 -57.8808 -57.8793 -57.8772 -57.8736 -57.8721 -57.8681
   -57.8654 -57.8643 -57.8584 -57.8571 -57.8511 -57.8503 -57.8483 -57.8477
   -57.8461 -57.8442 -57.8435 -57.8413 -57.8382 -57.8371 -57.8348 -57.8342
   -57.8313 -57.8305 -57.8284 -57.8229 -57.8223 -57.8209 -57.8171 -57.8158
   -57.8137 -57.8091 -57.8084 -57.8057 -57.8027 -57.8011 -57.7959 -57.7891
   -57.7871 -57.7843 -57.7806 -57.7793 -57.7774 -57.7770 -57.7763 -57.7732
   -57.7716 -57.7692 -57.7674 -57.7663 -57.7654 -57.7642 -57.7637 -57.7629
   -57.7590 -57.7583 -57.7561 -57.7552 -57.7545 -57.7537 -57.7514 -57.7504
   -57.7473 -57.7458 -57.7427 -57.7418 -57.7410 -57.7395 -57.7355 -57.7314
   -22.7516 -12.9799 -12.9755 -11.3728 -11.0798 -10.7909 -10.2065 -10.0117
    -9.9320  -9.6979  -9.5444  -9.3804  -8.9264  -8.8704  -8.8007  -8.7497
    -8.7174  -8.6778  -8.6212  -8.6009  -8.5266  -8.5009  -8.4333  -8.4244
    -8.4155  -8.3726  -8.3643  -8.2846  -8.2742  -8.2656  -8.2338  -8.2277
    -8.2213  -8.2134  -8.1881  -8.1142  -8.1066  -8.0967  -8.0883  -8.0667
    -8.0367  -8.0163  -7.9923  -7.9824  -7.9711  -7.9512  -7.9398  -7.8581
    -7.8434  -7.8183  -7.8094  -7.7872  -7.7453  -7.7321  -7.7150  -7.7008
    -7.6565  -7.6520  -7.6299  -7.6232  -7.6131  -7.5863  -7.5739  -7.5580
    -7.5487  -7.5188  -7.4906  -7.4693  -7.4524  -7.4472  -7.4386  -7.4238
    -7.3515  -7.3331  -7.3189  -7.2585  -7.1833  -7.1729  -7.1575  -7.1538
    -7.1430  -7.1376  -7.1338  -7.1239  -7.1167  -7.0953  -7.0526  -7.0435
    -7.0126  -7.0080  -7.0023  -6.9803  -6.9748  -6.9717  -6.9430  -6.9400
    -6.9394  -6.9304  -6.9235  -6.9209  -6.9173  -6.9121  -6.9049  -6.9017
    -6.8858  -6.8676  -6.8489  -6.8472  -6.8436  -6.8290  -6.8091  -6.8035
    -6.7945  -6.7882  -6.7792  -6.7707  -6.7570  -6.7391  -6.7170  -6.7006
    -6.6908  -6.6880  -6.6770  -6.6675  -6.6621  -6.6581  -6.6527  -6.6420
    -6.6256  -6.6215  -6.6164  -6.6075  -6.6000  -6.5956  -6.5677  -6.5512
    -6.5487  -6.5415  -6.5245  -6.5010  -6.4915  -6.4039  -6.3779  -6.3739
    -6.3634  -6.3627  -6.3515  -6.3312  -6.3277  -6.3242  -6.3226  -6.3087
    -6.3036  -6.2971  -6.2893  -6.2793  -6.2778  -6.2719  -6.2592  -6.2337
    -6.2248  -6.2120  -6.2070  -6.2022  -6.1955  -6.1638  -6.1296  -6.1073
    -6.0767  -6.0529  -6.0420  -6.0224  -6.0113  -5.9681  -5.9533  -5.9401
    -5.9276  -5.9113  -5.8551  -5.8340  -5.8114  -5.7917  -5.7781  -5.7716
    -5.7391  -5.6927  -5.6854  -5.6687  -5.6578  -5.6303  -5.6229  -5.6149
    -5.5999  -5.5859  -5.5772  -5.5725  -5.5657  -5.5464  -5.5439  -5.5303
    -5.4851  -5.4706  -5.4620  -5.4380  -5.4295  -5.4086  -5.4058  -5.3833
    -5.3760  -5.3674  -5.3505  -5.3434  -5.3338  -5.3216  -5.3143  -5.3118
    -5.3046  -5.2901  -5.2748  -5.2643  -5.2442  -5.2339  -5.2267  -5.2183
    -5.1982  -5.1928  -5.1874  -5.1813  -5.1793  -5.1778  -5.1715  -5.1616
    -5.1515  -5.1439  -5.1371  -5.1221  -5.1060  -5.0935  -5.0744  -5.0685
    -5.0618  -5.0576  -5.0421  -5.0399  -5.0323  -5.0273  -5.0232  -5.0118
    -5.0083  -5.0026  -4.9903  -4.9708  -4.9668  -4.9608  -4.9564  -4.9526
    -4.9455  -4.9362  -4.9301  -4.9112  -4.9071  -4.9022  -4.8952  -4.8931
    -4.8890  -4.8791  -4.8646  -4.8613  -4.8598  -4.8562  -4.8441  -4.8382
    -4.8245  -4.8213  -4.8150  -4.8106  -4.8001  -4.7949  -4.7882  -4.7867
    -4.7779  -4.7724  -4.7641  -4.7573  -4.7557  -4.7483  -4.7477  -4.7404
    -4.7360  -4.7134  -4.6919  -4.6859  -4.6739  -4.6721  -4.6622  -4.6517
    -4.6279  -4.6199  -4.6066  -4.5970  -4.5865  -4.5453  -4.5358  -4.4966
    -4.4933  -4.4787  -4.4758  -4.4478  -4.4326  -4.4032  -4.3904  -4.3727
    -4.3420  -4.3331  -4.3270  -4.3132  -4.2909  -4.2548  -4.2505  -4.2409
    -4.2309  -4.2079  -4.1852  -4.1647  -4.1620  -4.1471  -4.1117  -4.1071
    -4.0984  -4.0739  -4.0466  -4.0319  -4.0217  -4.0206  -4.0042  -3.9867
    -3.9834  -3.9768  -3.9462  -3.9372  -3.9132  -3.9082  -3.8749  -3.8646
    -3.7365  -3.7228  -3.5909  -3.5049  -3.4049  -3.3424  -3.2432  -3.1027
    -3.0636  -3.0485  -2.9774  -2.8410  -2.6027  -2.5838  -2.4014  -2.3458
    -2.2376  -2.1923  -2.0886

          k = 0.2500-0.3536 0.0000 (128397 PWs)   bands (ev):

   -92.0224 -92.0151 -92.0135 -92.0083 -92.0020 -92.0020 -91.9994 -91.9993
   -91.9977 -91.9961 -91.9942 -91.9903 -91.9901 -91.9893 -91.9881 -91.9845
   -91.9833 -91.9818 -91.9814 -91.9795 -91.9789 -91.9785 -91.9755 -91.9738
   -91.9674 -91.9667 -91.9654 -91.9541 -91.9531 -91.9181 -91.9153 -91.8966
   -91.8839 -91.8782 -91.8726 -91.8596 -91.8584 -91.8576 -91.8534 -91.8521
   -91.8493 -91.8480 -91.8470 -91.8438 -91.8437 -91.8429 -91.8384 -91.8369
   -91.8367 -91.8342 -91.8333 -91.8328 -91.8302 -91.8274 -91.8269 -91.8239
   -91.8221 -91.8201 -91.8141 -91.8126 -91.7965 -91.7949 -91.7899 -91.7865
   -58.2139 -58.2056 -58.2041 -58.1981 -58.1887 -58.1869 -58.1865 -58.1858
   -58.1847 -58.1842 -58.1819 -58.1811 -58.1810 -58.1759 -58.1746 -58.1719
   -58.1714 -58.1709 -58.1692 -58.1684 -58.1654 -58.1645 -58.1630 -58.1611
   -58.1548 -58.1536 -58.1529 -58.1460 -58.1445 -58.1329 -58.1289 -58.1246
   -58.1209 -58.1199 -58.1131 -58.1127 -58.1071 -58.1064 -58.1044 -58.1035
   -58.1011 -58.0999 -58.0940 -58.0915 -58.0867 -58.0845 -58.0704 -58.0682
   -58.0557 -58.0525 -58.0522 -58.0503 -58.0407 -58.0389 -58.0377 -58.0364
   -58.0327 -58.0308 -58.0292 -58.0276 -58.0259 -58.0204 -58.0200 -58.0184
   -58.0160 -58.0157 -58.0114 -58.0097 -58.0088 -58.0069 -58.0052 -58.0005
   -57.9966 -57.9949 -57.9937 -57.9872 -57.9869 -57.9820 -57.9791 -57.9753
   -57.9715 -57.9696 -57.9690 -57.9649 -57.9643 -57.9606 -57.9600 -57.9584
   -57.9533 -57.9504 -57.9439 -57.9438 -57.9406 -57.9406 -57.9385 -57.9371
   -57.9323 -57.9298 -57.9283 -57.9255 -57.9219 -57.9162 -57.9157 -57.9096
   -57.9083 -57.9072 -57.9070 -57.9063 -57.9058 -57.9032 -57.9026 -57.9008
   -57.8981 -57.8978 -57.8968 -57.8944 -57.8939 -57.8894 -57.8888 -57.8881
   -57.8851 -57.8825 -57.8796 -57.8793 -57.8729 -57.8726 -57.8696 -57.8693
   -57.8662 -57.8660 -57.8650 -57.8581 -57.8563 -57.8523 -57.8505 -57.8499
   -57.8475 -57.8451 -57.8404 -57.8392 -57.8367 -57.8335 -57.8332 -57.8324
   -57.8322 -57.8295 -57.8290 -57.8285 -57.8258 -57.8215 -57.8188 -57.8176
   -57.8127 -57.8108 -57.8090 -57.8079 -57.8053 -57.8036 -57.8017 -57.7978
   -57.7898 -57.7897 -57.7843 -57.7819 -57.7812 -57.7789 -57.7785 -57.7781
   -57.7763 -57.7722 -57.7681 -57.7675 -57.7666 -57.7631 -57.7626 -57.7611
   -57.7578 -57.7550 -57.7508 -57.7504 -57.7499 -57.7459 -57.7435 -57.7428
   -57.7413 -57.7405 -57.7391 -57.7387 -57.7381 -57.7368 -57.7345 -57.7306
   -22.7516 -12.9799 -12.9755 -11.4872 -10.9062 -10.8943 -10.3017  -9.8558
    -9.7407  -9.5008  -9.3986  -9.3901  -9.3011  -9.1039  -9.0868  -8.8640
    -8.5534  -8.5496  -8.5493  -8.5280  -8.4968  -8.4963  -8.4737  -8.4675
    -8.4628  -8.4385  -8.4306  -8.3853  -8.3114  -8.2984  -8.2667  -8.2589
    -8.2441  -8.1258  -8.1214  -8.0757  -8.0749  -8.0444  -8.0410  -8.0162
    -8.0144  -8.0032  -7.9921  -7.9633  -7.9584  -7.9161  -7.9025  -7.8887
    -7.8863  -7.8475  -7.8321  -7.7874  -7.7740  -7.7656  -7.6937  -7.6416
    -7.6317  -7.6224  -7.6204  -7.5900  -7.5865  -7.5850  -7.5769  -7.5731
    -7.5721  -7.5552  -7.5078  -7.5074  -7.4457  -7.3973  -7.3953  -7.3538
    -7.2903  -7.2701  -7.2480  -7.2075  -7.1702  -7.1676  -7.1454  -7.1288
    -7.1076  -7.1043  -7.1020  -7.1014  -7.0853  -7.0778  -7.0731  -7.0620
    -7.0591  -7.0526  -7.0374  -7.0340  -7.0321  -7.0243  -7.0024  -6.9939
    -6.9905  -6.9593  -6.9542  -6.9322  -6.9313  -6.9232  -6.9163  -6.8997
    -6.8933  -6.8909  -6.8825  -6.8653  -6.8646  -6.8339  -6.8271  -6.7771
[...]
   -88.9806 -88.9770 -88.9756 -88.9723 -88.9682 -88.9647 -88.9638 -88.9638
   -88.9623 -88.9534 -88.9534 -88.9528 -88.9505 -88.9480 -88.9465 -88.9457
   -88.9445 -88.9424 -88.9406 -88.9397 -88.9380 -88.9258 -88.9200 -88.9198
   -88.9174 -88.9091 -88.9090 -88.9073 -88.9058 -88.9021 -88.9003 -88.8997
   -88.8996 -88.8992 -88.8878 -88.8877 -88.8858 -88.8801 -88.8799 -88.8790
   -88.8786 -88.8781 -88.8777 -88.8775 -88.8764 -88.8763 -88.8753 -88.8747
   -88.8702 -88.8601 -88.8582 -88.8578 -88.8572 -88.8557 -88.8553 -88.8552
   -55.4310 -55.3359 -55.2839 -55.2691 -55.2660 -55.2625 -55.2566 -55.2536
   -55.2525 -55.2504 -55.2487 -55.2464 -55.2463 -55.2433 -55.2427 -55.2425
   -55.2414 -55.2390 -55.2367 -55.2346 -55.2321 -55.2304 -55.2230 -55.2221
   -55.2207 -55.2139 -55.2076 -55.2052 -55.2016 -55.2007 -55.1993 -55.1939
   -55.1938 -55.1843 -55.1837 -55.1802 -55.1737 -55.1724 -55.1676 -55.1668
   -55.1667 -55.1653 -55.1635 -55.1607 -55.1600 -55.1561 -55.1558 -55.1553
   -55.1539 -55.1533 -55.1520 -55.1519 -55.1507 -55.1478 -55.1453 -55.1429
   -55.1427 -55.1417 -55.1412 -55.1391 -55.1384 -55.1382 -55.1380 -55.1101
   -55.1080 -55.1026 -55.1012 -55.0998 -55.0925 -55.0907 -55.0895 -55.0894
   -55.0827 -55.0812 -55.0797 -55.0691 -55.0676 -55.0627 -55.0614 -55.0588
   -55.0529 -55.0520 -55.0469 -55.0450 -55.0447 -55.0422 -55.0382 -55.0374
   -55.0372 -55.0360 -55.0351 -55.0343 -55.0308 -55.0307 -55.0235 -55.0214
   -55.0147 -55.0134 -55.0128 -55.0114 -55.0078 -55.0068 -55.0051 -55.0049
   -55.0017 -55.0015 -54.9976 -54.9969 -54.9937 -54.9936 -54.9927 -54.9924
   -54.9876 -54.9857 -54.9845 -54.9799 -54.9791 -54.9743 -54.9724 -54.9674
   -54.9674 -54.9668 -54.9661 -54.9648 -54.9634 -54.9632 -54.9622 -54.9549
   -54.9537 -54.9489 -54.9471 -54.9453 -54.9417 -54.9408 -54.9395 -54.9366
   -54.9365 -54.9358 -54.9336 -54.9334 -54.9331 -54.9314 -54.9307 -54.9302
   -54.9299 -54.9291 -54.9269 -54.9267 -54.9245 -54.9240 -54.9189 -54.9185
   -54.9177 -54.9144 -54.9141 -54.9135 -54.9132 -54.9130 -54.9124 -54.9111
   -54.9107 -54.9093 -54.9090 -54.9077 -54.9075 -54.9070 -54.9054 -54.9050
   -54.9045 -54.9023 -54.9007 -54.8990 -54.8986 -54.8979 -54.8977 -54.8974
   -54.8963 -54.8951 -54.8924 -54.8908 -54.8908 -54.8889 -54.8860 -54.8857
   -54.8845 -54.8830 -54.8821 -54.8819 -54.8807 -54.8763 -54.8749 -54.8727
   -22.7678 -12.9350 -12.9216 -10.9675 -10.9568 -10.3853 -10.3737  -9.7852
    -9.6605  -9.3595  -9.1189  -8.9694  -8.3761  -8.3675  -8.3663  -8.3489
    -7.9595  -7.9182  -7.5241  -7.5207  -7.5205  -7.5193  -7.5163  -7.4915
    -7.4247  -7.4005  -7.3895  -7.3870  -7.3855  -7.3599  -6.9634  -6.9626
    -6.9613  -6.9582  -6.9558  -6.9421  -6.7434  -6.7403  -6.4955  -6.4925
    -6.4628  -6.4569  -6.4518  -6.4385  -6.4003  -6.3957  -6.3562  -6.3541
    -6.3535  -6.3430  -6.2063  -6.1942  -6.1939  -6.1844  -6.1701  -6.1671
    -5.9266  -5.9235  -5.9082  -5.9049  -5.9022  -5.8987  -5.6853  -5.6827
    -5.6355  -5.6286  -5.5882  -5.5787  -5.4818  -5.4807  -5.4111  -5.4071
    -5.4019  -5.3933  -5.3867  -5.3820  -5.3766  -5.3758  -5.3658  -5.3636
    -5.2773  -5.2773  -5.2746  -5.2645  -5.2637  -5.2623  -5.2594  -5.2588
    -5.2520  -5.2491  -5.2489  -5.2461  -5.0457  -5.0380  -5.0301  -5.0269
    -4.9078  -4.9060  -4.9055  -4.9026  -4.8870  -4.8768  -4.8548  -4.8492
    -4.8434  -4.8414  -4.8360  -4.8287  -4.8254  -4.8233  -4.8124  -4.8108
    -4.8039  -4.7941  -4.7852  -4.7734  -4.7714  -4.7680  -4.7666  -4.7628
    -4.7570  -4.7557  -4.7543  -4.7494  -4.7360  -4.7164  -4.7126  -4.6955
    -4.6711  -4.6616  -4.6603  -4.6570  -4.6549  -4.6506  -4.6462  -4.6439
    -4.6426  -4.6422  -4.6348  -4.6171  -4.5835  -4.5675  -4.4449  -4.4385
    -4.3949  -4.3843  -4.3810  -4.3799  -4.3544  -4.3501  -4.3299  -4.3253
    -4.3168  -4.3137  -4.2388  -4.2180  -4.2114  -4.2045  -4.1992  -4.1971
    -4.1809  -4.1753  -4.1535  -4.1395  -4.1335  -4.1297  -4.0999  -4.0974
    -3.9641  -3.9542  -3.9475  -3.9329  -3.9307  -3.9242  -3.8660  -3.8644
    -3.8624  -3.8572  -3.8440  -3.8260  -3.8189  -3.8180  -3.8024  -3.7791
    -3.7533  -3.7469  -3.7396  -3.7349  -3.7101  -3.7056  -3.4853  -3.4438
    -3.4306  -3.3850  -3.3616  -3.3422  -3.2937  -3.2804  -3.1154  -3.1107
    -3.0929  -3.0781  -3.0490  -3.0284  -2.9853  -2.9479  -2.9450  -2.9410
    -2.9267  -2.9127  -2.8614  -2.8495  -2.8425  -2.8387  -2.8057  -2.8022
    -2.8011  -2.7891  -2.7474  -2.7108  -2.7077  -2.6846  -2.6775  -2.6468
    -2.6080  -2.6058  -2.5977  -2.5853  -2.5840  -2.5836  -2.5821  -2.5702
    -2.5563  -2.5561  -2.5511  -2.5427  -2.4948  -2.4848  -2.4824  -2.4596
    -2.4311  -2.4159  -2.4142  -2.3876  -2.3788  -2.3702  -2.3322  -2.3114
    -2.2982  -2.2781  -2.2462  -2.2259  -2.1747  -2.1698  -2.1526  -2.1482
    -2.1465  -2.1439  -2.1413  -2.1350  -2.1327  -2.1144  -2.1099  -2.1031
    -2.0895  -2.0872  -2.0841  -2.0829  -2.0823  -2.0777  -2.0760  -2.0598
    -2.0545  -2.0356  -2.0194  -2.0188  -2.0041  -2.0006  -1.9948  -1.9938
    -1.9847  -1.9785  -1.9774  -1.9751  -1.9749  -1.9606  -1.9526  -1.9371
    -1.9347  -1.9266  -1.9143  -1.9116  -1.9113  -1.9081  -1.9036  -1.9028
    -1.9021  -1.8948  -1.8915  -1.8593  -1.8580  -1.8507  -1.7909  -1.7897
    -1.7812  -1.7718  -1.7498  -1.7448  -1.7442  -1.7433  -1.7200  -1.7187
    -1.7145  -1.7095  -1.7078  -1.7050  -1.6984  -1.6980  -1.6923  -1.6904
    -1.6896  -1.6879  -1.6855  -1.6822  -1.6794  -1.6753  -1.6406  -1.6379
    -1.6338  -1.6281  -1.6277  -1.6178  -1.6148  -1.6107  -1.6040  -1.6033
    -1.5992  -1.5972  -1.5273  -1.5141  -1.5119  -1.5114  -1.5024  -1.5002
    -1.3720  -1.3622  -1.3110  -1.2906  -1.0956  -1.0886  -1.0836  -1.0806
    -1.0446  -1.0365  -1.0250  -1.0190  -0.9951  -0.9935  -0.9914  -0.9852
    -0.9697  -0.9225  -0.8874

     the Fermi energy is    -3.8438 ev

!    total energy              =  -21096.06706010 Ry
     estimated scf accuracy    <          8.9E-11 Ry
     smearing contrib. (-TS)   =       0.00027343 Ry
     internal energy E=F+TS    =  -21096.06733353 Ry

     The total energy is F=E-TS. E is the sum of the following terms:
     one-electron contribution = -744422.42345634 Ry
     hartree contribution      =  372061.23913388 Ry
     xc contribution           =   -2235.77022111 Ry
     ewald contribution        =  358375.71674689 Ry
     Dispersion Correction     =      -1.39637640 Ry
     one-center paw contrib.   =   -4873.43316045 Ry

     total magnetization       =   161.86 Bohr mag/cell
     absolute magnetization    =   168.33 Bohr mag/cell

     convergence has been achieved in  14 iterations

     negative rho (up, down):  1.136E-02 1.552E-02

     Forces acting on atoms (cartesian axes, Ry/au):

     atom    1 type  1   force =    -0.00005763   -0.00003320    0.00939410
     atom    2 type  1   force =    -0.00001821   -0.00003294   -0.01101913
     atom    3 type  1   force =     0.00057841    0.00040122    0.00946670
     atom    4 type  1   force =     0.00012778    0.00009121   -0.00887310
     atom    5 type  1   force =     0.00000778    0.00000723    0.00002374
     atom    6 type  1   force =    -0.00000349   -0.00000170    0.00004279
     atom    7 type  1   force =     0.00004460    0.00003081    0.00006302
     atom    8 type  1   force =     0.00000901    0.00000462    0.00000067
     atom    9 type  1   force =    -0.00002909   -0.00002516    0.00930975
     atom   10 type  1   force =    -0.00002233   -0.00003866    0.00932124
     atom   11 type  1   force =     0.00006861   -0.00047416   -0.01002312
     atom   12 type  1   force =    -0.00042212    0.00022983   -0.01006383
     atom   13 type  1   force =    -0.00004168   -0.00000426    0.00002935
     atom   14 type  1   force =    -0.00001875   -0.00004019    0.00002740
     atom   15 type  1   force =     0.00002109    0.00002016    0.00002200
     atom   16 type  1   force =     0.00002576    0.00001175    0.00002093
     atom   17 type  1   force =    -0.00036037    0.00021239    0.01009446
     atom   18 type  1   force =    -0.00003774    0.00005653   -0.00997432
     atom   19 type  1   force =    -0.00004727    0.00043197    0.01006990
     atom   20 type  1   force =    -0.00085060    0.00116052   -0.00768667
     atom   21 type  1   force =     0.00000814   -0.00001034   -0.00000354
     atom   22 type  1   force =     0.00000314   -0.00000263    0.00002340
     atom   23 type  1   force =     0.00000679   -0.00000793    0.00000213
     atom   24 type  1   force =    -0.00001733    0.00001901   -0.00010274
     atom   25 type  1   force =    -0.00001926    0.00005817    0.00963425
     atom   26 type  1   force =    -0.00018637    0.00026559    0.00954450
     atom   27 type  1   force =     0.00034544    0.00010400   -0.01061007
     atom   28 type  1   force =     0.00041342   -0.00025505   -0.01014917
     atom   29 type  1   force =    -0.00001434    0.00001628    0.00003168
     atom   30 type  1   force =     0.00002779   -0.00003353    0.00000179
     atom   31 type  1   force =     0.00000408   -0.00000004   -0.00004933
     atom   32 type  1   force =    -0.00001989   -0.00000551    0.00002229
     atom   33 type  1   force =     0.00007805   -0.00041875    0.01009606
     atom   34 type  1   force =     0.00004491   -0.00003892   -0.00997344
     atom   35 type  1   force =     0.00038036   -0.00020433    0.01006494
     atom   36 type  1   force =     0.00082302   -0.00119756   -0.00766509
     atom   37 type  1   force =    -0.00000773    0.00001052   -0.00000340
     atom   38 type  1   force =     0.00000060    0.00000140    0.00002543
     atom   39 type  1   force =    -0.00000676    0.00000854    0.00000134
     atom   40 type  1   force =     0.00001025   -0.00002140   -0.00010238
     atom   41 type  1   force =     0.00019030   -0.00026401    0.00955789
     atom   42 type  1   force =     0.00004813   -0.00003361    0.00963376
     atom   43 type  1   force =    -0.00011662    0.00046513   -0.01018918
     atom   44 type  1   force =     0.00019661    0.00027633   -0.01063166
     atom   45 type  1   force =    -0.00002432    0.00003882    0.00000437
     atom   46 type  1   force =     0.00001001   -0.00001893    0.00003300
     atom   47 type  1   force =    -0.00001020   -0.00001859    0.00001935
     atom   48 type  1   force =     0.00000094    0.00000393   -0.00005123
     atom   49 type  1   force =    -0.00058997   -0.00041382    0.00950596
     atom   50 type  1   force =     0.00000395    0.00000958   -0.00711590
     atom   51 type  1   force =     0.00002674    0.00003005    0.00940939
     atom   52 type  1   force =    -0.00008793   -0.00005564   -0.00901074
     atom   53 type  1   force =    -0.00004338   -0.00002950    0.00006103
     atom   54 type  1   force =     0.00000155    0.00000402    0.00004643
     atom   55 type  1   force =    -0.00000592   -0.00000288    0.00001894
     atom   56 type  1   force =    -0.00000815   -0.00000861    0.00000854
     atom   57 type  1   force =     0.00004573    0.00002667    0.00932609
     atom   58 type  1   force =     0.00004122    0.00003639    0.00932977
     atom   59 type  1   force =    -0.00035194   -0.00019233   -0.01056426
     atom   60 type  1   force =    -0.00030490   -0.00028313   -0.01054834
     atom   61 type  1   force =     0.00002076    0.00003431    0.00003416
     atom   62 type  1   force =     0.00004192    0.00000683    0.00003551
     atom   63 type  1   force =    -0.00000682   -0.00001359   -0.00004425
     atom   64 type  1   force =    -0.00001439   -0.00000073   -0.00004298
     atom   65 type  2   force =     0.00002933    0.00003754    0.00000376
     atom   66 type  3   force =    -0.00001533    0.00002027   -0.00001470
     atom   67 type  3   force =     0.00003327   -0.00001029   -0.00000447
     atom   68 type  3   force =     0.00004129    0.00006030   -0.00000480

     Total force =     0.000291     Total SCF correction =     0.000036
     SCF correction compared to forces is large: reduce conv_thr to get better values
     Energy error            =      2.5E-07
     Gradient error          =      1.0E-04

     bfgs converged in  24 scf cycles and  23 bfgs steps
     (criteria: energy <  7.3E-07 Ry, force <  3.9E-04 Ry/Bohr)

     End of BFGS Geometry Optimization

     Final energy   =  -21096.0670600996 Ry

     File ./Fe_NH3_paper_480c_ESM_std.bfgs deleted, as requested
Begin final coordinates

ATOMIC_POSITIONS (angstrom)
Fe            1.6549129530        1.1702001330        0.0000000000    0   0   0
Fe            0.0000000000        0.0000000000        2.0269842320    0   0   0
Fe            4.9647388580        3.5106003990        0.0000000000    0   0   0
Fe            3.3098259060        2.3404002660        2.0269842320    0   0   0
Fe            1.6562884735        1.1710965620        4.0275957267
Fe            3.3102661010        9.3618721436        5.9991208952
Fe            4.9694415508        3.5139052333        4.0211847270
Fe            3.3101528924        2.3407254529        6.0011617457
Fe            2.4823638580        3.5106003990        0.0000000000    0   0   0
Fe            4.1372879530        1.1702001330        0.0000000000    0   0   0
Fe            0.8274509060        2.3404002660        2.0269842320    0   0   0
Fe            2.4823750000        0.0000000000        2.0269842320    0   0   0
Fe            2.4826333860        3.5118790682        4.0282441127
Fe            4.1386604552        1.1701140790        4.0283513331
Fe            0.8271803450        2.3445843682        6.0128952471
Fe            2.4862975836       -0.0017827086        6.0129775828
Fe            6.6196629530        1.1702001330        0.0000000000    0   0   0
Fe            4.9647500000        0.0000000000        2.0269842320    0   0   0
Fe            9.9294888580        3.5106003990        0.0000000000    0   0   0
Fe            8.2745759060        2.3404002660        2.0269842320    0   0   0
Fe            6.6218806460        1.1672976937        4.0176029068
Fe            4.9642682875       -0.0018407878        6.0243855102
Fe            9.9307722778        3.5072621078        4.0179420209
Fe            8.2815388087        2.3300298297        5.9551863614
Fe            7.4471138580        3.5106003990        0.0000000000    0   0   0
Fe            9.1020379530        1.1702001330        0.0000000000    0   0   0
Fe            5.7922009060        2.3404002660        2.0269842320    0   0   0
Fe            7.4471250000        0.0000000000        2.0269842320    0   0   0
Fe            7.4347485632        3.5269655965        4.0363553134
Fe            9.1056732113        1.1650172490        4.0131805005
Fe            5.7948693962        2.3308434498        5.9724966981
Fe           10.7527770805        9.3616232904        6.0114468725
Fe            3.3098147640        5.8510006640        0.0000000000    0   0   0
Fe            1.6549018110        4.6808005310        2.0269842320    0   0   0
Fe            6.6196406700        8.1914009300        0.0000000000    0   0   0
Fe            4.9647277170        7.0212007970        2.0269842320    0   0   0
Fe            3.3077768537        5.8542992416        4.0174719067
Fe           11.5827519768        4.6806943738        6.0243701564
Fe            6.6168068846        8.1938939448        4.0178325035
Fe            4.9577871724        7.0307612761        5.9563589152
Fe            4.1372656700        8.1914009300        0.0000000000    0   0   0
Fe            5.7921897640        5.8510006640        0.0000000000    0   0   0
Fe            2.4823527170        7.0212007970        2.0269842320    0   0   0
Fe            4.1372768110        4.6808005310        2.0269842320    0   0   0
Fe            4.1336335040        8.1965850163        4.0133320818
Fe            5.8034257747        5.8340812837        4.0361366869
Fe           12.4107690111        7.0172123498        6.0115188808
Fe            4.1286321462        4.6865350085        5.9716246439
Fe            8.2745647640        5.8510006640        0.0000000000    0   0   0
Fe            6.6196518110        4.6808005310        2.0269842320    0   0   0
Fe           11.5843906700        8.1914009300        0.0000000000    0   0   0
Fe            9.9294777170        7.0212007970        2.0269842320    0   0   0
Fe            8.2694591458        5.8472942591        4.0220364995
Fe            6.6170204342        4.6805848461        6.1533734435
Fe           11.5828697171        8.1902244542        4.0267561888
Fe            9.9292545465        7.0210352894        5.9988373385
Fe            9.1020156700        8.1914009300        0.0000000000    0   0   0
Fe           10.7569397640        5.8510006640        0.0000000000    0   0   0
Fe            7.4471027170        7.0212007970        2.0269842320    0   0   0
Fe            9.1020268110        4.6808005310        2.0269842320    0   0   0
Fe            9.1000210883        8.1910455857        4.0276887101
Fe           10.7558695238        5.8491385039        4.0277852492
Fe            7.4430519038        7.0293217546        5.9738746106
Fe            9.1078333352        4.6739835597        5.9747920927
N             6.6276961840        4.6841721834        8.2302630746
H             6.5999175634        5.6416080435        8.5895588330
H             5.8031762078        4.1827477633        8.5719140695
H             7.4653515781        4.2175363859        8.5868071263
End final coordinates



     Writing output data file ./Fe_NH3_paper_480c_ESM_std.save/

     init_run     :     30.47s CPU     31.44s WALL (       1 calls)
     electrons    :  45661.28s CPU  46490.42s WALL (      24 calls)
     update_pot   :    132.34s CPU    133.15s WALL (      23 calls)
     forces       :    431.75s CPU    439.61s WALL (      24 calls)

     Called by init_run:
     wfcinit      :     20.29s CPU     21.02s WALL (       1 calls)
     potinit      :      2.85s CPU      2.94s WALL (       1 calls)
     hinit0       :      5.14s CPU      5.19s WALL (       1 calls)

     Called by electrons:
     c_bands      :  40724.51s CPU  41395.99s WALL (     497 calls)
     sum_band     :   2407.97s CPU   2506.11s WALL (     497 calls)
     v_of_rho     :    419.81s CPU    424.76s WALL (     498 calls)
     newd         :     87.22s CPU     88.11s WALL (     498 calls)
     PAW_pot      :     96.56s CPU     97.45s WALL (     521 calls)
     mix_rho      :   1807.19s CPU   1838.51s WALL (     497 calls)

     Called by c_bands:
     init_us_2    :    222.88s CPU    237.37s WALL (    3126 calls)
     cegterg      :  36098.46s CPU  36565.04s WALL (    1491 calls)

     Called by *egterg:
     cdiaghg      :   9405.30s CPU   9468.16s WALL (   11302 calls)
     h_psi        :  11254.01s CPU  11427.51s WALL (   11443 calls)
     s_psi        :   2935.25s CPU   2954.00s WALL (   11443 calls)
     g_psi        :     50.31s CPU     51.03s WALL (    9949 calls)

     Called by h_psi:
     h_psi:calbec :   3278.83s CPU   3300.16s WALL (   11443 calls)
     vloc_psi     :   4955.15s CPU   5008.49s WALL (   11443 calls)
     add_vuspsi   :   2924.79s CPU   2943.56s WALL (   11443 calls)

     General routines
     calbec       :   4706.38s CPU   4736.83s WALL (   13291 calls)
     fft          :    285.16s CPU    288.17s WALL (   12831 calls)
     ffts         :    808.07s CPU    814.92s WALL (  308488 calls)
     fftw         :   5389.40s CPU   5448.50s WALL ( 6014453 calls)
     interpolate  :     33.01s CPU     33.36s WALL (     996 calls)
     davcio       :      1.90s CPU    236.33s WALL (   12732 calls)

     Parallel routines
     fft_scatt_xy :    740.36s CPU    748.02s WALL ( 6335772 calls)
     fft_scatt_yz :   3051.57s CPU   3085.51s WALL ( 6335772 calls)

     PWSCF        :     12h53m CPU     13h 7m WALL


   This run was terminated on:   6:43:35   9Jul2022            

=------------------------------------------------------------------------------=
   JOB DONE.
=------------------------------------------------------------------------------=
