
     Program PHONON v.6.7MaX starts on 29Sep2022 at  0:52:31 

     This program is part of the open-source Quantum ESPRESSO suite
     for quantum simulation of materials; please cite
         "P. Giannozzi et al., J. Phys.:Condens. Matter 21 395502 (2009);
         "P. Giannozzi et al., J. Phys.:Condens. Matter 29 465901 (2017);
          URL http://www.quantum-espresso.org", 
     in publications or presentations arising from this work. More details at
     http://www.quantum-espresso.org/quote

     Parallel version (MPI), running on   120 processors

     MPI processes distributed on     1 nodes
     K-points division:     npool     =       8
     R & G space division:  proc/nbgrp/npool/nimage =      15
     Waiting for input...
     Reading input from standard input

     Reading xml data from directory:

     ./N2_ESM_VA8.save/

     IMPORTANT: XC functional enforced from input :
     Exchange-correlation= PBE
                           (   1   4   3   4   0   0   0)
     Any further DFT definition will be discarded
     Please, verify this is what you really want


     Parallelization info
     --------------------
     sticks:   dense  smooth     PW     G-vecs:    dense   smooth      PW
     Min        3636    1818    468               639190   225950   29545
     Max        3637    1819    470               639197   225953   29547
     Sum       54553   27281   7033              9587919  3389267  443191


     Adding external electric field
        E field amplitude [Ha a.u.]: -1.5762E-02
        Potential amp.       -1.0723 Ry
        Total length         34.0151 bohr


     negative rho (up, down):  3.015E-04 3.015E-04
     Reading collected, re-writing distributed wavefunctions

     Calculation of q =    0.0000000   0.0000000   0.0000000

     phonons (vibrational modes) for N2                                         

     bravais-lattice index     =            0
     lattice parameter (alat)  =      37.7945  a.u.
     unit-cell volume          =   53986.6760 (a.u.)^3
     number of atoms/cell      =            2
     number of atomic types    =            1
     kinetic-energy cut-off    =      60.0000  Ry
     charge density cut-off    =     480.0000  Ry
     convergence threshold     =      1.0E-12
     beta                      =       0.7000
     number of iterations used =            4
     Exchange-correlation= PBE
                           (   1   4   3   4   0   0   0)


     celldm(1)=   37.79452  celldm(2)=    0.00000  celldm(3)=    0.00000
     celldm(4)=    0.00000  celldm(5)=    0.00000  celldm(6)=    0.00000

     crystal axes: (cart. coord. in units of alat)
               a(1) = (  1.0000  0.0000  0.0000 )  
               a(2) = (  0.0000  1.0000  0.0000 )  
               a(3) = (  0.0000  0.0000  1.0000 )  

     reciprocal axes: (cart. coord. in units 2 pi/alat)
               b(1) = (  1.0000  0.0000  0.0000 )  
               b(2) = (  0.0000  1.0000  0.0000 )  
               b(3) = (  0.0000  0.0000  1.0000 )  


     Atoms inside the unit cell: 

     Cartesian axes

     site n.  atom      mass           positions (alat units)
        1     N   14.0067   tau(    1) = (    0.50000    0.50000    0.00000  )
        2     N   14.0067   tau(    2) = (    0.50000    0.50000   -0.05528  )

     Computing dynamical matrix for 
                    q = (   0.0000000   0.0000000   0.0000000 )

      2 Sym.Ops. (with q -> -q+G )


     G cutoff =17367.5767  ( 639197 G-vectors)     FFT grid: (270,270,270)
     G cutoff = 8683.7884  ( 225950 G-vectors)  smooth grid: (192,192,192)

     number of k points=    20  Methfessel-Paxton smearing, width (Ry)=  0.0100
                       cart. coord. in units 2pi/alat
        k(    1) = (   0.0000000   0.0000000   0.0000000), wk =   0.0625000
        k(    2) = (   0.0000000   0.2500000   0.0000000), wk =   0.1250000
        k(    3) = (   0.0000000  -0.5000000   0.0000000), wk =   0.0625000
        k(    4) = (   0.2500000   0.0000000   0.0000000), wk =   0.1250000
        k(    5) = (   0.2500000   0.2500000   0.0000000), wk =   0.1250000
        k(    6) = (   0.2500000  -0.5000000   0.0000000), wk =   0.1250000
        k(    7) = (   0.2500000  -0.2500000   0.0000000), wk =   0.1250000
        k(    8) = (  -0.5000000   0.0000000   0.0000000), wk =   0.0625000
        k(    9) = (  -0.5000000   0.2500000   0.0000000), wk =   0.1250000
        k(   10) = (  -0.5000000  -0.5000000   0.0000000), wk =   0.0625000
        k(   11) = (   0.0000000   0.0000000   0.0000000), wk =   0.0625000
        k(   12) = (   0.0000000   0.2500000   0.0000000), wk =   0.1250000
        k(   13) = (   0.0000000  -0.5000000   0.0000000), wk =   0.0625000
        k(   14) = (   0.2500000   0.0000000   0.0000000), wk =   0.1250000
        k(   15) = (   0.2500000   0.2500000   0.0000000), wk =   0.1250000
        k(   16) = (   0.2500000  -0.5000000   0.0000000), wk =   0.1250000
        k(   17) = (   0.2500000  -0.2500000   0.0000000), wk =   0.1250000
        k(   18) = (  -0.5000000   0.0000000   0.0000000), wk =   0.0625000
        k(   19) = (  -0.5000000   0.2500000   0.0000000), wk =   0.1250000
        k(   20) = (  -0.5000000  -0.5000000   0.0000000), wk =   0.0625000

     PseudoPot. # 1 for N  read from file:
     ../../SSSP/N.pbe-n-radius_5.UPF
     MD5 check sum: 16739722b17309cd8fe442a2ace49922
     Pseudo is Ultrasoft + core correction, Zval =  5.0
     Generated using "atomic" code by A. Dal Corso  v.5.1
     Using radial grid of 1085 points,  4 beta functions with: 
                l(1) =   0
                l(2) =   0
                l(3) =   1
                l(4) =   1
     Q(r) pseudized with 0 coefficients 


     Mode symmetry, C_1 (1)     point group:


     Atomic displacements:
     There are    6 irreducible representations

     Representation     1      1 modes -  To be done

     Representation     2      1 modes -  To be done

     Representation     3      1 modes -  To be done

     Representation     4      1 modes -  To be done

     Representation     5      1 modes -  To be done

     Representation     6      1 modes -  To be done



     Alpha used in Ewald sum =   2.8000

     -------------------------------------------------
     Parameters for Dispersion (Grimme-D2) Correction:
     -------------------------------------------------
       atom      VdW radius       C_6     

        N          2.640         42.670

     Calculating the D2 contribution to the dynamical matrix.
     D2 energy =       -0.00000235 Ry
     Done.


     negative rho (up, down):  3.015E-04 3.015E-04
     PHONON       :   3m 6.44s CPU   3m13.77s WALL



     Representation #   1 mode #   1

     Self-consistent Calculation

     Pert. #  1: Fermi energy shift (Ry) =     0.0000E+00     0.0000E+00

      iter #   1 total cpu time :   239.9 secs   av.it.:   7.4
      thresh= 1.000E-02 alpha_mix =  0.700 |ddv_scf|^2 =  1.571E-09

     Pert. #  1: Fermi energy shift (Ry) =     0.0000E+00     0.0000E+00

      iter #   2 total cpu time :   292.8 secs   av.it.:  16.2
      thresh= 3.964E-06 alpha_mix =  0.700 |ddv_scf|^2 =  3.078E-10

     Pert. #  1: Fermi energy shift (Ry) =     0.0000E+00     0.0000E+00

      iter #   3 total cpu time :   343.2 secs   av.it.:  16.1
      thresh= 1.754E-06 alpha_mix =  0.700 |ddv_scf|^2 =  1.524E-11

     Pert. #  1: Fermi energy shift (Ry) =     0.0000E+00     0.0000E+00

      iter #   4 total cpu time :   393.9 secs   av.it.:  16.9
      thresh= 3.904E-07 alpha_mix =  0.700 |ddv_scf|^2 =  5.791E-14

     End of self-consistent calculation

     Convergence has been achieved 


     Representation #   2 mode #   2

     Self-consistent Calculation

     Pert. #  1: Fermi energy shift (Ry) =     0.0000E+00     0.0000E+00

      iter #   1 total cpu time :   454.4 secs   av.it.:   7.4
      thresh= 1.000E-02 alpha_mix =  0.700 |ddv_scf|^2 =  1.571E-09

     Pert. #  1: Fermi energy shift (Ry) =     0.0000E+00     0.0000E+00

      iter #   2 total cpu time :   502.9 secs   av.it.:  16.2
      thresh= 3.964E-06 alpha_mix =  0.700 |ddv_scf|^2 =  3.078E-10

     Pert. #  1: Fermi energy shift (Ry) =     0.0000E+00     0.0000E+00

      iter #   3 total cpu time :   551.6 secs   av.it.:  16.1
      thresh= 1.754E-06 alpha_mix =  0.700 |ddv_scf|^2 =  1.524E-11

     Pert. #  1: Fermi energy shift (Ry) =     0.0000E+00     0.0000E+00

      iter #   4 total cpu time :   601.2 secs   av.it.:  16.9
      thresh= 3.904E-07 alpha_mix =  0.700 |ddv_scf|^2 =  5.791E-14

     End of self-consistent calculation

     Convergence has been achieved 


     Representation #   3 mode #   3

     Self-consistent Calculation

     Pert. #  1: Fermi energy shift (Ry) =     0.0000E+00     0.0000E+00

      iter #   1 total cpu time :   661.9 secs   av.it.:   8.0
      thresh= 1.000E-02 alpha_mix =  0.700 |ddv_scf|^2 =  7.527E-09

     Pert. #  1: Fermi energy shift (Ry) =     0.0000E+00     0.0000E+00

      iter #   2 total cpu time :   711.2 secs   av.it.:  16.9
      thresh= 8.676E-06 alpha_mix =  0.700 |ddv_scf|^2 =  2.390E-09

     Pert. #  1: Fermi energy shift (Ry) =     0.0000E+00     0.0000E+00

      iter #   3 total cpu time :   761.9 secs   av.it.:  17.6
      thresh= 4.889E-06 alpha_mix =  0.700 |ddv_scf|^2 =  3.575E-09

     Pert. #  1: Fermi energy shift (Ry) =     0.0000E+00     0.0000E+00

      iter #   4 total cpu time :   814.9 secs   av.it.:  17.0
      thresh= 5.979E-06 alpha_mix =  0.700 |ddv_scf|^2 =  1.568E-10

     Pert. #  1: Fermi energy shift (Ry) =     0.0000E+00     0.0000E+00

      iter #   5 total cpu time :   867.5 secs   av.it.:  16.6
      thresh= 1.252E-06 alpha_mix =  0.700 |ddv_scf|^2 =  2.568E-12

     Pert. #  1: Fermi energy shift (Ry) =     0.0000E+00     0.0000E+00

      iter #   6 total cpu time :   917.6 secs   av.it.:  16.4
      thresh= 1.603E-07 alpha_mix =  0.700 |ddv_scf|^2 =  2.385E-14

     End of self-consistent calculation

     Convergence has been achieved 


     Representation #   4 mode #   4

     Self-consistent Calculation

     Pert. #  1: Fermi energy shift (Ry) =     0.0000E+00     0.0000E+00

      iter #   1 total cpu time :   977.0 secs   av.it.:   7.2
      thresh= 1.000E-02 alpha_mix =  0.700 |ddv_scf|^2 =  1.780E-09

     Pert. #  1: Fermi energy shift (Ry) =     0.0000E+00     0.0000E+00

      iter #   2 total cpu time :  1026.0 secs   av.it.:  16.0
      thresh= 4.218E-06 alpha_mix =  0.700 |ddv_scf|^2 =  3.635E-10

     Pert. #  1: Fermi energy shift (Ry) =     0.0000E+00     0.0000E+00

      iter #   3 total cpu time :  1074.6 secs   av.it.:  16.0
      thresh= 1.906E-06 alpha_mix =  0.700 |ddv_scf|^2 =  1.865E-11

     Pert. #  1: Fermi energy shift (Ry) =     0.0000E+00     0.0000E+00

      iter #   4 total cpu time :  1124.9 secs   av.it.:  16.9
      thresh= 4.318E-07 alpha_mix =  0.700 |ddv_scf|^2 =  6.499E-14

     End of self-consistent calculation

     Convergence has been achieved 


     Representation #   5 mode #   5

     Self-consistent Calculation

     Pert. #  1: Fermi energy shift (Ry) =     0.0000E+00     0.0000E+00

      iter #   1 total cpu time :  1188.7 secs   av.it.:   7.2
      thresh= 1.000E-02 alpha_mix =  0.700 |ddv_scf|^2 =  1.780E-09

     Pert. #  1: Fermi energy shift (Ry) =     0.0000E+00     0.0000E+00

      iter #   2 total cpu time :  1238.2 secs   av.it.:  16.0
      thresh= 4.218E-06 alpha_mix =  0.700 |ddv_scf|^2 =  3.635E-10

     Pert. #  1: Fermi energy shift (Ry) =     0.0000E+00     0.0000E+00

      iter #   3 total cpu time :  1287.4 secs   av.it.:  16.0
      thresh= 1.906E-06 alpha_mix =  0.700 |ddv_scf|^2 =  1.865E-11

     Pert. #  1: Fermi energy shift (Ry) =     0.0000E+00     0.0000E+00

      iter #   4 total cpu time :  1337.4 secs   av.it.:  16.9
      thresh= 4.318E-07 alpha_mix =  0.700 |ddv_scf|^2 =  6.499E-14

     End of self-consistent calculation

     Convergence has been achieved 


     Representation #   6 mode #   6

     Self-consistent Calculation

     Pert. #  1: Fermi energy shift (Ry) =     0.0000E+00     0.0000E+00

      iter #   1 total cpu time :  1398.3 secs   av.it.:   8.0
      thresh= 1.000E-02 alpha_mix =  0.700 |ddv_scf|^2 =  6.445E-09

     Pert. #  1: Fermi energy shift (Ry) =     0.0000E+00     0.0000E+00

      iter #   2 total cpu time :  1447.2 secs   av.it.:  16.6
      thresh= 8.028E-06 alpha_mix =  0.700 |ddv_scf|^2 =  2.264E-09

     Pert. #  1: Fermi energy shift (Ry) =     0.0000E+00     0.0000E+00

      iter #   3 total cpu time :  1499.0 secs   av.it.:  17.0
      thresh= 4.758E-06 alpha_mix =  0.700 |ddv_scf|^2 =  2.448E-09

     Pert. #  1: Fermi energy shift (Ry) =     0.0000E+00     0.0000E+00

      iter #   4 total cpu time :  1551.5 secs   av.it.:  17.0
      thresh= 4.948E-06 alpha_mix =  0.700 |ddv_scf|^2 =  1.961E-10

     Pert. #  1: Fermi energy shift (Ry) =     0.0000E+00     0.0000E+00

      iter #   5 total cpu time :  1606.1 secs   av.it.:  16.6
      thresh= 1.400E-06 alpha_mix =  0.700 |ddv_scf|^2 =  1.487E-12

     Pert. #  1: Fermi energy shift (Ry) =     0.0000E+00     0.0000E+00

      iter #   6 total cpu time :  1657.8 secs   av.it.:  16.6
      thresh= 1.219E-07 alpha_mix =  0.700 |ddv_scf|^2 =  2.543E-14

     End of self-consistent calculation

     Convergence has been achieved 

     Number of q in the star =    1
     List of q in the star:
          1   0.000000000   0.000000000   0.000000000

     Diagonalizing the dynamical matrix

     q = (    0.000000000   0.000000000   0.000000000 ) 

 **************************************************************************
     freq (    1) =      -6.944171 [THz] =    -231.632607 [cm-1]
     freq (    2) =      -6.944170 [THz] =    -231.632586 [cm-1]
     freq (    3) =      -3.430613 [THz] =    -114.432920 [cm-1]
     freq (    4) =       9.964551 [THz] =     332.381641 [cm-1]
     freq (    5) =       9.964555 [THz] =     332.381790 [cm-1]
     freq (    6) =      71.747081 [THz] =    2393.225025 [cm-1]
 **************************************************************************

     Mode symmetry, C_1 (1)     point group:

     freq (   1-   1) =       -231.6  [cm-1]   --> A               I+R
     freq (   2-   2) =       -231.6  [cm-1]   --> A               I+R
     freq (   3-   3) =       -114.4  [cm-1]   --> A               I+R
     freq (   4-   4) =        332.4  [cm-1]   --> A               I+R
     freq (   5-   5) =        332.4  [cm-1]   --> A               I+R
     freq (   6-   6) =       2393.2  [cm-1]   --> A               I+R

     PHONON       :  25m16.33s CPU  27m57.77s WALL

     INITIALIZATION: 
     phq_setup    :     12.86s CPU     14.47s WALL (       1 calls)
     phq_init     :    156.20s CPU    159.51s WALL (       1 calls)

     phq_init     :    156.20s CPU    159.51s WALL (       1 calls)
     set_drhoc    :     23.92s CPU     24.01s WALL (       3 calls)
     init_vloc    :      0.17s CPU      0.17s WALL (       1 calls)
     init_us_1    :      0.02s CPU      0.02s WALL (       1 calls)
     newd         :      0.98s CPU      1.01s WALL (       1 calls)
     dvanqq       :     78.54s CPU     79.34s WALL (       1 calls)
     drho         :     38.74s CPU     40.45s WALL (       1 calls)

     DYNAMICAL MATRIX:
     dynmat0      :     23.04s CPU     23.76s WALL (       1 calls)
     phqscf       :   1329.83s CPU   1478.54s WALL (       1 calls)
     dynmatrix    :      0.06s CPU      0.13s WALL (       1 calls)

     phqscf       :   1329.83s CPU   1478.54s WALL (       1 calls)
     solve_linter :   1325.16s CPU   1459.65s WALL (       6 calls)
     drhodv       :      4.66s CPU      4.81s WALL (       6 calls)

     dynmat0      :     23.04s CPU     23.76s WALL (       1 calls)
     dynmat_us    :      1.06s CPU      1.11s WALL (       1 calls)
     d2ionq       :      0.20s CPU      0.20s WALL (       1 calls)
     dynmatcc     :     21.72s CPU     22.35s WALL (       1 calls)

     dynmat_us    :      1.06s CPU      1.11s WALL (       1 calls)
     addusdynmat  :      0.00s CPU      0.00s WALL (       1 calls)

     phqscf       :   1329.83s CPU   1478.54s WALL (       1 calls)
     solve_linter :   1325.16s CPU   1459.65s WALL (       6 calls)

     solve_linter :   1325.16s CPU   1459.65s WALL (       6 calls)
     dvqpsi_us    :     13.61s CPU     13.83s WALL (      18 calls)
     ortho        :      2.72s CPU      2.77s WALL (      84 calls)
     cgsolve      :    512.03s CPU    517.13s WALL (      84 calls)
     incdrhoscf   :     29.43s CPU     29.88s WALL (      84 calls)
     addusddens   :     86.44s CPU     91.71s WALL (      34 calls)
     vpsifft      :     24.74s CPU     25.14s WALL (      66 calls)
     dv_of_drho   :    188.38s CPU    196.13s WALL (      28 calls)
     mix_pot      :     15.69s CPU     33.03s WALL (      28 calls)
     ef_shift     :     26.73s CPU     27.50s WALL (      34 calls)
     localdos     :     38.23s CPU     39.41s WALL (       6 calls)
     psymdvscf    :    130.84s CPU    180.15s WALL (      28 calls)
     newdq        :    112.47s CPU    116.83s WALL (      28 calls)
     adddvscf     :      0.76s CPU      0.77s WALL (      66 calls)
     drhodvus     :      6.39s CPU     19.63s WALL (       6 calls)

     dvqpsi_us    :     13.61s CPU     13.83s WALL (      18 calls)
     dvqpsi_us_on :      0.32s CPU      0.32s WALL (      18 calls)

     cgsolve      :    512.03s CPU    517.13s WALL (      84 calls)
     ch_psi       :    492.18s CPU    497.10s WALL (    1466 calls)

     ch_psi       :    492.18s CPU    497.10s WALL (    1466 calls)
     h_psi        :    440.89s CPU    445.34s WALL (    1466 calls)
     last         :     38.23s CPU     38.57s WALL (    1466 calls)

     h_psi        :    440.89s CPU    445.34s WALL (    1466 calls)
     add_vuspsi   :      8.36s CPU      8.44s WALL (    1466 calls)

     incdrhoscf   :     29.43s CPU     29.88s WALL (      84 calls)
     addusdbec    :      1.34s CPU      1.35s WALL (     102 calls)

     drhodvus     :      6.39s CPU     19.63s WALL (       6 calls)

      General routines
     calbec       :     22.10s CPU     22.36s WALL (    3238 calls)
     fft          :    326.75s CPU    332.69s WALL (    1185 calls)
     ffts         :     22.00s CPU     22.47s WALL (     288 calls)
     fftw         :    416.44s CPU    420.65s WALL (   14443 calls)
     davcio       :      0.14s CPU     39.83s WALL (     630 calls)
     write_rec    :      0.00s CPU     27.51s WALL (      34 calls)


     PHONON       :  25m16.33s CPU  27m57.77s WALL


   This run was terminated on:   1:20:28  29Sep2022            

=------------------------------------------------------------------------------=
   JOB DONE.
=------------------------------------------------------------------------------=
