
     Program PHONON v.6.7MaX starts on 20Sep2022 at 22:24: 2 

     This program is part of the open-source Quantum ESPRESSO suite
     for quantum simulation of materials; please cite
         "P. Giannozzi et al., J. Phys.:Condens. Matter 21 395502 (2009);
         "P. Giannozzi et al., J. Phys.:Condens. Matter 29 465901 (2017);
          URL http://www.quantum-espresso.org", 
     in publications or presentations arising from this work. More details at
     http://www.quantum-espresso.org/quote

     Parallel version (MPI), running on   120 processors

     MPI processes distributed on     1 nodes
     K-points division:     npool     =       8
     R & G space division:  proc/nbgrp/npool/nimage =      15
     Waiting for input...
     Reading input from standard input

     Reading xml data from directory:

     ./N2_ESM_p5.save/

     IMPORTANT: XC functional enforced from input :
     Exchange-correlation= PBE
                           (   1   4   3   4   0   0   0)
     Any further DFT definition will be discarded
     Please, verify this is what you really want


     Parallelization info
     --------------------
     sticks:   dense  smooth     PW     G-vecs:    dense   smooth      PW
     Min        3636    1818    468               639190   225950   29545
     Max        3637    1819    470               639197   225953   29547
     Sum       54553   27281   7033              9587919  3389267  443191


     negative rho (up, down):  2.962E-04 2.962E-04
     Reading collected, re-writing distributed wavefunctions

     Calculation of q =    0.0000000   0.0000000   0.0000000

     phonons (vibrational modes) for N2                                         

     bravais-lattice index     =            0
     lattice parameter (alat)  =      37.7945  a.u.
     unit-cell volume          =   53986.6760 (a.u.)^3
     number of atoms/cell      =            2
     number of atomic types    =            1
     kinetic-energy cut-off    =      60.0000  Ry
     charge density cut-off    =     480.0000  Ry
     convergence threshold     =      1.0E-12
     beta                      =       0.7000
     number of iterations used =            4
     Exchange-correlation= PBE
                           (   1   4   3   4   0   0   0)


     celldm(1)=   37.79452  celldm(2)=    0.00000  celldm(3)=    0.00000
     celldm(4)=    0.00000  celldm(5)=    0.00000  celldm(6)=    0.00000

     crystal axes: (cart. coord. in units of alat)
               a(1) = (  1.0000  0.0000  0.0000 )  
               a(2) = (  0.0000  1.0000  0.0000 )  
               a(3) = (  0.0000  0.0000  1.0000 )  

     reciprocal axes: (cart. coord. in units 2 pi/alat)
               b(1) = (  1.0000  0.0000  0.0000 )  
               b(2) = (  0.0000  1.0000  0.0000 )  
               b(3) = (  0.0000  0.0000  1.0000 )  


     Atoms inside the unit cell: 

     Cartesian axes

     site n.  atom      mass           positions (alat units)
        1     N   14.0067   tau(    1) = (    0.50000    0.50000    0.00000  )
        2     N   14.0067   tau(    2) = (    0.50000    0.50000   -0.05529  )

     Computing dynamical matrix for 
                    q = (   0.0000000   0.0000000   0.0000000 )

      2 Sym.Ops. (with q -> -q+G )


     G cutoff =17367.5767  ( 639197 G-vectors)     FFT grid: (270,270,270)
     G cutoff = 8683.7884  ( 225950 G-vectors)  smooth grid: (192,192,192)

     number of k points=    20  Methfessel-Paxton smearing, width (Ry)=  0.0100
                       cart. coord. in units 2pi/alat
        k(    1) = (   0.0000000   0.0000000   0.0000000), wk =   0.0625000
        k(    2) = (   0.0000000   0.2500000   0.0000000), wk =   0.1250000
        k(    3) = (   0.0000000  -0.5000000   0.0000000), wk =   0.0625000
        k(    4) = (   0.2500000   0.0000000   0.0000000), wk =   0.1250000
        k(    5) = (   0.2500000   0.2500000   0.0000000), wk =   0.1250000
        k(    6) = (   0.2500000  -0.5000000   0.0000000), wk =   0.1250000
        k(    7) = (   0.2500000  -0.2500000   0.0000000), wk =   0.1250000
        k(    8) = (  -0.5000000   0.0000000   0.0000000), wk =   0.0625000
        k(    9) = (  -0.5000000   0.2500000   0.0000000), wk =   0.1250000
        k(   10) = (  -0.5000000  -0.5000000   0.0000000), wk =   0.0625000
        k(   11) = (   0.0000000   0.0000000   0.0000000), wk =   0.0625000
        k(   12) = (   0.0000000   0.2500000   0.0000000), wk =   0.1250000
        k(   13) = (   0.0000000  -0.5000000   0.0000000), wk =   0.0625000
        k(   14) = (   0.2500000   0.0000000   0.0000000), wk =   0.1250000
        k(   15) = (   0.2500000   0.2500000   0.0000000), wk =   0.1250000
        k(   16) = (   0.2500000  -0.5000000   0.0000000), wk =   0.1250000
        k(   17) = (   0.2500000  -0.2500000   0.0000000), wk =   0.1250000
        k(   18) = (  -0.5000000   0.0000000   0.0000000), wk =   0.0625000
        k(   19) = (  -0.5000000   0.2500000   0.0000000), wk =   0.1250000
        k(   20) = (  -0.5000000  -0.5000000   0.0000000), wk =   0.0625000

     PseudoPot. # 1 for N  read from file:
     ../../SSSP/N.pbe-n-radius_5.UPF
     MD5 check sum: 16739722b17309cd8fe442a2ace49922
     Pseudo is Ultrasoft + core correction, Zval =  5.0
     Generated using "atomic" code by A. Dal Corso  v.5.1
     Using radial grid of 1085 points,  4 beta functions with: 
                l(1) =   0
                l(2) =   0
                l(3) =   1
                l(4) =   1
     Q(r) pseudized with 0 coefficients 


     Mode symmetry, C_1 (1)     point group:


     Atomic displacements:
     There are    6 irreducible representations

     Representation     1      1 modes -  To be done

     Representation     2      1 modes -  To be done

     Representation     3      1 modes -  To be done

     Representation     4      1 modes -  To be done

     Representation     5      1 modes -  To be done

     Representation     6      1 modes -  To be done



     Alpha used in Ewald sum =   2.8000

     -------------------------------------------------
     Parameters for Dispersion (Grimme-D2) Correction:
     -------------------------------------------------
       atom      VdW radius       C_6     

        N          2.640         42.670

     Calculating the D2 contribution to the dynamical matrix.
     D2 energy =       -0.00000235 Ry
     Done.


     negative rho (up, down):  2.962E-04 2.962E-04
     PHONON       :   3m 6.09s CPU   3m13.47s WALL



     Representation #   1 mode #   1

     Self-consistent Calculation

     Pert. #  1: Fermi energy shift (Ry) =     0.0000E+00     0.0000E+00

      iter #   1 total cpu time :   246.0 secs   av.it.:  13.1
      thresh= 1.000E-02 alpha_mix =  0.700 |ddv_scf|^2 =  9.001E-07

     Pert. #  1: Fermi energy shift (Ry) =     0.0000E+00     0.0000E+00

      iter #   2 total cpu time :   308.4 secs   av.it.:  24.1
      thresh= 9.487E-05 alpha_mix =  0.700 |ddv_scf|^2 =  2.187E-06

     Pert. #  1: Fermi energy shift (Ry) =     0.0000E+00     0.0000E+00

      iter #   3 total cpu time :   366.9 secs   av.it.:  21.1
      thresh= 1.479E-04 alpha_mix =  0.700 |ddv_scf|^2 =  8.201E-07

     Pert. #  1: Fermi energy shift (Ry) =     0.0000E+00     0.0000E+00

      iter #   4 total cpu time :   432.3 secs   av.it.:  26.1
      thresh= 9.056E-05 alpha_mix =  0.700 |ddv_scf|^2 =  7.573E-07

     Pert. #  1: Fermi energy shift (Ry) =     0.0000E+00     0.0000E+00

      iter #   5 total cpu time :   498.9 secs   av.it.:  25.6
      thresh= 8.702E-05 alpha_mix =  0.700 |ddv_scf|^2 =  1.193E-09

     Pert. #  1: Fermi energy shift (Ry) =     0.0000E+00     0.0000E+00

      iter #   6 total cpu time :   569.8 secs   av.it.:  28.1
      thresh= 3.454E-06 alpha_mix =  0.700 |ddv_scf|^2 =  1.846E-11

     Pert. #  1: Fermi energy shift (Ry) =     0.0000E+00     0.0000E+00

      iter #   7 total cpu time :   639.2 secs   av.it.:  29.0
      thresh= 4.297E-07 alpha_mix =  0.700 |ddv_scf|^2 =  7.823E-12

     Pert. #  1: Fermi energy shift (Ry) =     0.0000E+00     0.0000E+00

      iter #   8 total cpu time :   704.6 secs   av.it.:  26.0
      thresh= 2.797E-07 alpha_mix =  0.700 |ddv_scf|^2 =  2.817E-13

     End of self-consistent calculation

     Convergence has been achieved 


     Representation #   2 mode #   2

     Self-consistent Calculation

     Pert. #  1: Fermi energy shift (Ry) =     0.0000E+00     0.0000E+00

      iter #   1 total cpu time :   770.8 secs   av.it.:  13.1
      thresh= 1.000E-02 alpha_mix =  0.700 |ddv_scf|^2 =  9.001E-07

     Pert. #  1: Fermi energy shift (Ry) =     0.0000E+00     0.0000E+00

      iter #   2 total cpu time :   829.6 secs   av.it.:  24.1
      thresh= 9.487E-05 alpha_mix =  0.700 |ddv_scf|^2 =  2.187E-06

     Pert. #  1: Fermi energy shift (Ry) =     0.0000E+00     0.0000E+00

      iter #   3 total cpu time :   885.1 secs   av.it.:  21.1
      thresh= 1.479E-04 alpha_mix =  0.700 |ddv_scf|^2 =  8.200E-07

     Pert. #  1: Fermi energy shift (Ry) =     0.0000E+00     0.0000E+00

      iter #   4 total cpu time :   949.7 secs   av.it.:  26.1
      thresh= 9.055E-05 alpha_mix =  0.700 |ddv_scf|^2 =  7.575E-07

     Pert. #  1: Fermi energy shift (Ry) =     0.0000E+00     0.0000E+00

      iter #   5 total cpu time :  1017.0 secs   av.it.:  25.6
      thresh= 8.703E-05 alpha_mix =  0.700 |ddv_scf|^2 =  1.195E-09

     Pert. #  1: Fermi energy shift (Ry) =     0.0000E+00     0.0000E+00

      iter #   6 total cpu time :  1088.4 secs   av.it.:  28.2
      thresh= 3.456E-06 alpha_mix =  0.700 |ddv_scf|^2 =  1.851E-11

     Pert. #  1: Fermi energy shift (Ry) =     0.0000E+00     0.0000E+00

      iter #   7 total cpu time :  1157.2 secs   av.it.:  29.2
      thresh= 4.303E-07 alpha_mix =  0.700 |ddv_scf|^2 =  2.550E-11

     Pert. #  1: Fermi energy shift (Ry) =     0.0000E+00     0.0000E+00

      iter #   8 total cpu time :  1216.5 secs   av.it.:  26.0
      thresh= 5.050E-07 alpha_mix =  0.700 |ddv_scf|^2 =  2.129E-13

     End of self-consistent calculation

     Convergence has been achieved 


     Representation #   3 mode #   3

     Self-consistent Calculation

     Pert. #  1: Fermi energy shift (Ry) =     0.0000E+00     0.0000E+00

      iter #   1 total cpu time :  1284.4 secs   av.it.:  13.3
      thresh= 1.000E-02 alpha_mix =  0.700 |ddv_scf|^2 =  1.420E-06

     Pert. #  1: Fermi energy shift (Ry) =     0.0000E+00     0.0000E+00

      iter #   2 total cpu time :  1347.0 secs   av.it.:  27.6
      thresh= 1.192E-04 alpha_mix =  0.700 |ddv_scf|^2 =  3.734E-04

     Pert. #  1: Fermi energy shift (Ry) =     0.0000E+00     0.0000E+00

      iter #   3 total cpu time :  1406.9 secs   av.it.:  22.6
      thresh= 1.932E-03 alpha_mix =  0.700 |ddv_scf|^2 =  1.456E-05

     Pert. #  1: Fermi energy shift (Ry) =     0.0000E+00     0.0000E+00

      iter #   4 total cpu time :  1468.1 secs   av.it.:  22.8
      thresh= 3.816E-04 alpha_mix =  0.700 |ddv_scf|^2 =  4.349E-06

     Pert. #  1: Fermi energy shift (Ry) =     0.0000E+00     0.0000E+00

      iter #   5 total cpu time :  1531.6 secs   av.it.:  23.1
      thresh= 2.086E-04 alpha_mix =  0.700 |ddv_scf|^2 =  3.338E-08

     Pert. #  1: Fermi energy shift (Ry) =     0.0000E+00     0.0000E+00

      iter #   6 total cpu time :  1598.3 secs   av.it.:  24.0
      thresh= 1.827E-05 alpha_mix =  0.700 |ddv_scf|^2 =  2.072E-08

     Pert. #  1: Fermi energy shift (Ry) =     0.0000E+00     0.0000E+00

      iter #   7 total cpu time :  1664.4 secs   av.it.:  24.9
      thresh= 1.439E-05 alpha_mix =  0.700 |ddv_scf|^2 =  2.983E-10

     Pert. #  1: Fermi energy shift (Ry) =     0.0000E+00     0.0000E+00

      iter #   8 total cpu time :  1729.9 secs   av.it.:  24.9
      thresh= 1.727E-06 alpha_mix =  0.700 |ddv_scf|^2 =  1.594E-12

     Pert. #  1: Fermi energy shift (Ry) =     0.0000E+00     0.0000E+00

      iter #   9 total cpu time :  1829.6 secs   av.it.:  27.6
      thresh= 1.262E-07 alpha_mix =  0.700 |ddv_scf|^2 =  3.867E-11

     Pert. #  1: Fermi energy shift (Ry) =     0.0000E+00     0.0000E+00

      iter #  10 total cpu time :  1895.8 secs   av.it.:  24.9
      thresh= 6.218E-07 alpha_mix =  0.700 |ddv_scf|^2 =  1.014E-12

     Pert. #  1: Fermi energy shift (Ry) =     0.0000E+00     0.0000E+00

      iter #  11 total cpu time :  1958.7 secs   av.it.:  26.5
      thresh= 1.007E-07 alpha_mix =  0.700 |ddv_scf|^2 =  6.984E-14

     End of self-consistent calculation

     Convergence has been achieved 


     Representation #   4 mode #   4

     Self-consistent Calculation

     Pert. #  1: Fermi energy shift (Ry) =     0.0000E+00     0.0000E+00

      iter #   1 total cpu time :  2024.9 secs   av.it.:  13.2
      thresh= 1.000E-02 alpha_mix =  0.700 |ddv_scf|^2 =  6.467E-07

     Pert. #  1: Fermi energy shift (Ry) =     0.0000E+00     0.0000E+00

      iter #   2 total cpu time :  2083.3 secs   av.it.:  24.0
      thresh= 8.042E-05 alpha_mix =  0.700 |ddv_scf|^2 =  2.788E-06

     Pert. #  1: Fermi energy shift (Ry) =     0.0000E+00     0.0000E+00

      iter #   3 total cpu time :  2139.8 secs   av.it.:  22.3
      thresh= 1.670E-04 alpha_mix =  0.700 |ddv_scf|^2 =  8.376E-08

     Pert. #  1: Fermi energy shift (Ry) =     0.0000E+00     0.0000E+00

      iter #   4 total cpu time :  2206.1 secs   av.it.:  27.2
      thresh= 2.894E-05 alpha_mix =  0.700 |ddv_scf|^2 =  1.042E-07

     Pert. #  1: Fermi energy shift (Ry) =     0.0000E+00     0.0000E+00

      iter #   5 total cpu time :  2271.5 secs   av.it.:  25.6
      thresh= 3.228E-05 alpha_mix =  0.700 |ddv_scf|^2 =  9.099E-10

     Pert. #  1: Fermi energy shift (Ry) =     0.0000E+00     0.0000E+00

      iter #   6 total cpu time :  2339.0 secs   av.it.:  26.2
      thresh= 3.016E-06 alpha_mix =  0.700 |ddv_scf|^2 =  2.202E-12

     Pert. #  1: Fermi energy shift (Ry) =     0.0000E+00     0.0000E+00

      iter #   7 total cpu time :  2403.6 secs   av.it.:  28.9
      thresh= 1.484E-07 alpha_mix =  0.700 |ddv_scf|^2 =  8.909E-14

     End of self-consistent calculation

     Convergence has been achieved 


     Representation #   5 mode #   5

     Self-consistent Calculation

     Pert. #  1: Fermi energy shift (Ry) =     0.0000E+00     0.0000E+00

      iter #   1 total cpu time :  2469.5 secs   av.it.:  13.2
      thresh= 1.000E-02 alpha_mix =  0.700 |ddv_scf|^2 =  6.467E-07

     Pert. #  1: Fermi energy shift (Ry) =     0.0000E+00     0.0000E+00

      iter #   2 total cpu time :  2528.6 secs   av.it.:  23.9
      thresh= 8.042E-05 alpha_mix =  0.700 |ddv_scf|^2 =  2.788E-06

     Pert. #  1: Fermi energy shift (Ry) =     0.0000E+00     0.0000E+00

      iter #   3 total cpu time :  2585.0 secs   av.it.:  22.2
      thresh= 1.670E-04 alpha_mix =  0.700 |ddv_scf|^2 =  8.368E-08

     Pert. #  1: Fermi energy shift (Ry) =     0.0000E+00     0.0000E+00

      iter #   4 total cpu time :  2651.1 secs   av.it.:  27.1
      thresh= 2.893E-05 alpha_mix =  0.700 |ddv_scf|^2 =  1.042E-07

     Pert. #  1: Fermi energy shift (Ry) =     0.0000E+00     0.0000E+00

      iter #   5 total cpu time :  2721.5 secs   av.it.:  25.6
      thresh= 3.228E-05 alpha_mix =  0.700 |ddv_scf|^2 =  9.073E-10

     Pert. #  1: Fermi energy shift (Ry) =     0.0000E+00     0.0000E+00

      iter #   6 total cpu time :  2790.5 secs   av.it.:  28.2
      thresh= 3.012E-06 alpha_mix =  0.700 |ddv_scf|^2 =  2.300E-12

     Pert. #  1: Fermi energy shift (Ry) =     0.0000E+00     0.0000E+00

      iter #   7 total cpu time :  2861.2 secs   av.it.:  30.1
      thresh= 1.517E-07 alpha_mix =  0.700 |ddv_scf|^2 =  3.403E-11

     Pert. #  1: Fermi energy shift (Ry) =     0.0000E+00     0.0000E+00

      iter #   8 total cpu time :  2924.9 secs   av.it.:  25.3
      thresh= 5.833E-07 alpha_mix =  0.700 |ddv_scf|^2 =  7.192E-14

     End of self-consistent calculation

     Convergence has been achieved 


     Representation #   6 mode #   6

     Self-consistent Calculation

     Pert. #  1: Fermi energy shift (Ry) =     0.0000E+00     0.0000E+00

      iter #   1 total cpu time :  2991.9 secs   av.it.:  14.1
      thresh= 1.000E-02 alpha_mix =  0.700 |ddv_scf|^2 =  3.282E-06

     Pert. #  1: Fermi energy shift (Ry) =     0.0000E+00     0.0000E+00

      iter #   2 total cpu time :  3053.0 secs   av.it.:  26.2
      thresh= 1.812E-04 alpha_mix =  0.700 |ddv_scf|^2 =  3.389E-04

     Pert. #  1: Fermi energy shift (Ry) =     0.0000E+00     0.0000E+00

      iter #   3 total cpu time :  3112.0 secs   av.it.:  23.2
      thresh= 1.841E-03 alpha_mix =  0.700 |ddv_scf|^2 =  2.715E-04

     Pert. #  1: Fermi energy shift (Ry) =     0.0000E+00     0.0000E+00

      iter #   4 total cpu time :  3168.7 secs   av.it.:  22.0
      thresh= 1.648E-03 alpha_mix =  0.700 |ddv_scf|^2 =  6.673E-05

     Pert. #  1: Fermi energy shift (Ry) =     0.0000E+00     0.0000E+00

      iter #   5 total cpu time :  3230.1 secs   av.it.:  23.2
      thresh= 8.169E-04 alpha_mix =  0.700 |ddv_scf|^2 =  6.093E-08

     Pert. #  1: Fermi energy shift (Ry) =     0.0000E+00     0.0000E+00

      iter #   6 total cpu time :  3298.8 secs   av.it.:  26.0
      thresh= 2.468E-05 alpha_mix =  0.700 |ddv_scf|^2 =  8.811E-08

     Pert. #  1: Fermi energy shift (Ry) =     0.0000E+00     0.0000E+00

      iter #   7 total cpu time :  3360.3 secs   av.it.:  24.0
      thresh= 2.968E-05 alpha_mix =  0.700 |ddv_scf|^2 =  1.063E-09

     Pert. #  1: Fermi energy shift (Ry) =     0.0000E+00     0.0000E+00

      iter #   8 total cpu time :  3425.9 secs   av.it.:  25.1
      thresh= 3.260E-06 alpha_mix =  0.700 |ddv_scf|^2 =  2.114E-12

     Pert. #  1: Fermi energy shift (Ry) =     0.0000E+00     0.0000E+00

      iter #   9 total cpu time :  3492.4 secs   av.it.:  27.9
      thresh= 1.454E-07 alpha_mix =  0.700 |ddv_scf|^2 =  1.282E-11

     Pert. #  1: Fermi energy shift (Ry) =     0.0000E+00     0.0000E+00

      iter #  10 total cpu time :  3555.4 secs   av.it.:  27.2
      thresh= 3.580E-07 alpha_mix =  0.700 |ddv_scf|^2 =  2.025E-13

     End of self-consistent calculation

     Convergence has been achieved 

     Number of q in the star =    1
     List of q in the star:
          1   0.000000000   0.000000000   0.000000000

     Diagonalizing the dynamical matrix

     q = (    0.000000000   0.000000000   0.000000000 ) 

 **************************************************************************
     freq (    1) =    -115.530588 [THz] =   -3853.685609 [cm-1]
     freq (    2) =    -115.350918 [THz] =   -3847.692460 [cm-1]
     freq (    3) =     -78.702279 [THz] =   -2625.225457 [cm-1]
     freq (    4) =     -78.586705 [THz] =   -2621.370309 [cm-1]
     freq (    5) =     -78.414876 [THz] =   -2615.638706 [cm-1]
     freq (    6) =     -42.886168 [THz] =   -1430.528571 [cm-1]
 **************************************************************************

     Mode symmetry, C_1 (1)     point group:

     freq (   1-   1) =      -3853.7  [cm-1]   --> A               I+R
     freq (   2-   2) =      -3847.7  [cm-1]   --> A               I+R
     freq (   3-   3) =      -2625.2  [cm-1]   --> A               I+R
     freq (   4-   4) =      -2621.4  [cm-1]   --> A               I+R
     freq (   5-   5) =      -2615.6  [cm-1]   --> A               I+R
     freq (   6-   6) =      -1430.5  [cm-1]   --> A               I+R

     PHONON       :  53m58.08s CPU  59m35.70s WALL

     INITIALIZATION: 
     phq_setup    :     12.79s CPU     14.27s WALL (       1 calls)
     phq_init     :    156.04s CPU    159.32s WALL (       1 calls)

     phq_init     :    156.04s CPU    159.32s WALL (       1 calls)
     set_drhoc    :     23.91s CPU     24.01s WALL (       3 calls)
     init_vloc    :      0.17s CPU      0.17s WALL (       1 calls)
     init_us_1    :      0.03s CPU      0.03s WALL (       1 calls)
     newd         :      1.34s CPU      1.40s WALL (       1 calls)
     dvanqq       :     78.19s CPU     78.99s WALL (       1 calls)
     drho         :     38.82s CPU     40.49s WALL (       1 calls)

     DYNAMICAL MATRIX:
     dynmat0      :     23.10s CPU     23.82s WALL (       1 calls)
     phqscf       :   3051.95s CPU   3376.71s WALL (       1 calls)
     dynmatrix    :      0.04s CPU      0.10s WALL (       1 calls)

     phqscf       :   3051.95s CPU   3376.71s WALL (       1 calls)
     solve_linter :   3046.39s CPU   3356.91s WALL (       6 calls)
     drhodv       :      5.56s CPU      5.73s WALL (       6 calls)

     dynmat0      :     23.10s CPU     23.82s WALL (       1 calls)
     dynmat_us    :      1.10s CPU      1.14s WALL (       1 calls)
     d2ionq       :      0.20s CPU      0.20s WALL (       1 calls)
     dynmatcc     :     21.40s CPU     21.99s WALL (       1 calls)

     dynmat_us    :      1.10s CPU      1.14s WALL (       1 calls)
     addusdynmat  :      0.00s CPU      0.00s WALL (       1 calls)

     phqscf       :   3051.95s CPU   3376.71s WALL (       1 calls)
     solve_linter :   3046.39s CPU   3356.91s WALL (       6 calls)

     solve_linter :   3046.39s CPU   3356.91s WALL (       6 calls)
     dvqpsi_us    :     13.74s CPU     14.02s WALL (      18 calls)
     ortho        :      4.96s CPU      5.04s WALL (     156 calls)
     cgsolve      :   1521.46s CPU   1537.67s WALL (     156 calls)
     incdrhoscf   :     52.47s CPU     53.43s WALL (     156 calls)
     addusddens   :    133.00s CPU    141.35s WALL (      58 calls)
     vpsifft      :     53.30s CPU     54.24s WALL (     138 calls)
     dv_of_drho   :    345.73s CPU    358.08s WALL (      52 calls)
     mix_pot      :     52.92s CPU    131.52s WALL (      52 calls)
     ef_shift     :     49.26s CPU     50.09s WALL (      58 calls)
     localdos     :     38.47s CPU     39.70s WALL (       6 calls)
     psymdvscf    :    258.51s CPU    373.87s WALL (      52 calls)
     newdq        :    208.65s CPU    216.65s WALL (      52 calls)
     adddvscf     :      1.73s CPU      1.75s WALL (     138 calls)
     drhodvus     :      0.95s CPU     14.32s WALL (       6 calls)

     dvqpsi_us    :     13.74s CPU     14.02s WALL (      18 calls)
     dvqpsi_us_on :      0.34s CPU      0.37s WALL (      18 calls)

     cgsolve      :   1521.46s CPU   1537.67s WALL (     156 calls)
     ch_psi       :   1469.85s CPU   1485.53s WALL (    5735 calls)

     ch_psi       :   1469.85s CPU   1485.53s WALL (    5735 calls)
     h_psi        :   1306.88s CPU   1320.94s WALL (    5735 calls)
     last         :    117.75s CPU    118.91s WALL (    5735 calls)

     h_psi        :   1306.88s CPU   1320.94s WALL (    5735 calls)
     add_vuspsi   :     32.27s CPU     32.58s WALL (    5735 calls)

     incdrhoscf   :     52.47s CPU     53.43s WALL (     156 calls)
     addusdbec    :      1.50s CPU      1.52s WALL (     174 calls)

     drhodvus     :      0.95s CPU     14.32s WALL (       6 calls)

      General routines
     calbec       :     65.59s CPU     66.39s WALL (   11920 calls)
     fft          :    557.99s CPU    569.04s WALL (    2001 calls)
     ffts         :     27.66s CPU     28.13s WALL (     384 calls)
     fftw         :   1130.92s CPU   1143.25s WALL (   41171 calls)
     davcio       :      0.28s CPU     99.52s WALL (    1222 calls)
     write_rec    :      0.00s CPU     46.75s WALL (      58 calls)


     PHONON       :  53m58.08s CPU  59m35.70s WALL


   This run was terminated on:  23:23:37  20Sep2022            

=------------------------------------------------------------------------------=
   JOB DONE.
=------------------------------------------------------------------------------=
