
     Program PHONON v.6.7MaX starts on 21Sep2022 at 20: 9: 0 

     This program is part of the open-source Quantum ESPRESSO suite
     for quantum simulation of materials; please cite
         "P. Giannozzi et al., J. Phys.:Condens. Matter 21 395502 (2009);
         "P. Giannozzi et al., J. Phys.:Condens. Matter 29 465901 (2017);
          URL http://www.quantum-espresso.org", 
     in publications or presentations arising from this work. More details at
     http://www.quantum-espresso.org/quote

     Parallel version (MPI), running on   120 processors

     MPI processes distributed on     1 nodes
     K-points division:     npool     =       8
     R & G space division:  proc/nbgrp/npool/nimage =      15
     Waiting for input...
     Reading input from standard input

     Reading xml data from directory:

     ./NH3_ESM_pn25.save/

     IMPORTANT: XC functional enforced from input :
     Exchange-correlation= PBE
                           (   1   4   3   4   0   0   0)
     Any further DFT definition will be discarded
     Please, verify this is what you really want


     Parallelization info
     --------------------
     sticks:   dense  smooth     PW     G-vecs:    dense   smooth      PW
     Min        3636    1818    468               639190   225950   29545
     Max        3637    1819    470               639197   225953   29547
     Sum       54553   27281   7033              9587919  3389267  443191


     negative rho (up, down):  2.013E-04 2.013E-04
     Reading collected, re-writing distributed wavefunctions

     Calculation of q =    0.0000000   0.0000000   0.0000000

     phonons (vibrational modes) for NH3                                        

     bravais-lattice index     =            0
     lattice parameter (alat)  =      37.7945  a.u.
     unit-cell volume          =   53986.6760 (a.u.)^3
     number of atoms/cell      =            4
     number of atomic types    =            2
     kinetic-energy cut-off    =      60.0000  Ry
     charge density cut-off    =     480.0000  Ry
     convergence threshold     =      1.0E-12
     beta                      =       0.7000
     number of iterations used =            4
     Exchange-correlation= PBE
                           (   1   4   3   4   0   0   0)


     celldm(1)=   37.79452  celldm(2)=    0.00000  celldm(3)=    0.00000
     celldm(4)=    0.00000  celldm(5)=    0.00000  celldm(6)=    0.00000

     crystal axes: (cart. coord. in units of alat)
               a(1) = (  1.0000  0.0000  0.0000 )  
               a(2) = (  0.0000  1.0000  0.0000 )  
               a(3) = (  0.0000  0.0000  1.0000 )  

     reciprocal axes: (cart. coord. in units 2 pi/alat)
               b(1) = (  1.0000  0.0000  0.0000 )  
               b(2) = (  0.0000  1.0000  0.0000 )  
               b(3) = (  0.0000  0.0000  1.0000 )  


     Atoms inside the unit cell: 

     Cartesian axes

     site n.  atom      mass           positions (alat units)
        1     N   14.0067   tau(    1) = (    0.50000    0.50000    0.00000  )
        2     H    1.0078   tau(    2) = (    0.50000    0.54691    0.02029  )
        3     H    1.0078   tau(    3) = (    0.54063    0.47654    0.02030  )
        4     H    1.0078   tau(    4) = (    0.45937    0.47654    0.02030  )

     Computing dynamical matrix for 
                    q = (   0.0000000   0.0000000   0.0000000 )

      2 Sym.Ops. (with q -> -q+G )


     G cutoff =17367.5767  ( 639197 G-vectors)     FFT grid: (270,270,270)
     G cutoff = 8683.7884  ( 225950 G-vectors)  smooth grid: (192,192,192)

     number of k points=    20  Methfessel-Paxton smearing, width (Ry)=  0.0100
                       cart. coord. in units 2pi/alat
        k(    1) = (   0.0000000   0.0000000   0.0000000), wk =   0.0625000
        k(    2) = (   0.0000000   0.2500000   0.0000000), wk =   0.1250000
        k(    3) = (   0.0000000  -0.5000000   0.0000000), wk =   0.0625000
        k(    4) = (   0.2500000   0.0000000   0.0000000), wk =   0.1250000
        k(    5) = (   0.2500000   0.2500000   0.0000000), wk =   0.1250000
        k(    6) = (   0.2500000  -0.5000000   0.0000000), wk =   0.1250000
        k(    7) = (   0.2500000  -0.2500000   0.0000000), wk =   0.1250000
        k(    8) = (  -0.5000000   0.0000000   0.0000000), wk =   0.0625000
        k(    9) = (  -0.5000000   0.2500000   0.0000000), wk =   0.1250000
        k(   10) = (  -0.5000000  -0.5000000   0.0000000), wk =   0.0625000
        k(   11) = (   0.0000000   0.0000000   0.0000000), wk =   0.0625000
        k(   12) = (   0.0000000   0.2500000   0.0000000), wk =   0.1250000
        k(   13) = (   0.0000000  -0.5000000   0.0000000), wk =   0.0625000
        k(   14) = (   0.2500000   0.0000000   0.0000000), wk =   0.1250000
        k(   15) = (   0.2500000   0.2500000   0.0000000), wk =   0.1250000
        k(   16) = (   0.2500000  -0.5000000   0.0000000), wk =   0.1250000
        k(   17) = (   0.2500000  -0.2500000   0.0000000), wk =   0.1250000
        k(   18) = (  -0.5000000   0.0000000   0.0000000), wk =   0.0625000
        k(   19) = (  -0.5000000   0.2500000   0.0000000), wk =   0.1250000
        k(   20) = (  -0.5000000  -0.5000000   0.0000000), wk =   0.0625000

     PseudoPot. # 1 for N  read from file:
     ../../SSSP/N.pbe-n-radius_5.UPF
     MD5 check sum: 16739722b17309cd8fe442a2ace49922
     Pseudo is Ultrasoft + core correction, Zval =  5.0
     Generated using "atomic" code by A. Dal Corso  v.5.1
     Using radial grid of 1085 points,  4 beta functions with: 
                l(1) =   0
                l(2) =   0
                l(3) =   1
                l(4) =   1
     Q(r) pseudized with 0 coefficients 


     PseudoPot. # 2 for H  read from file:
     ../../SSSP/H.pbe-rrkjus_psl.1.0.0.UPF
     MD5 check sum: f52b6d4d1c606e5624b1dc7b2218f220
     Pseudo is Ultrasoft, Zval =  1.0
     Generated using "atomic" code by A. Dal Corso  v.5.1
     Using radial grid of  929 points,  2 beta functions with: 
                l(1) =   0
                l(2) =   0
     Q(r) pseudized with 0 coefficients 


     Mode symmetry, C_1 (1)     point group:


     Atomic displacements:
     There are   12 irreducible representations

     Representation     1      1 modes -  To be done

     Representation     2      1 modes -  To be done

     Representation     3      1 modes -  To be done

     Representation     4      1 modes -  To be done

     Representation     5      1 modes -  To be done

     Representation     6      1 modes -  To be done

     Representation     7      1 modes -  To be done

     Representation     8      1 modes -  To be done

     Representation     9      1 modes -  To be done

     Representation    10      1 modes -  To be done

     Representation    11      1 modes -  To be done

     Representation    12      1 modes -  To be done



     Alpha used in Ewald sum =   2.8000

     -------------------------------------------------
     Parameters for Dispersion (Grimme-D2) Correction:
     -------------------------------------------------
       atom      VdW radius       C_6     

        N          2.640         42.670
        H          1.892          4.857

     Calculating the D2 contribution to the dynamical matrix.
     D2 energy =       -0.00030072 Ry
     Done.


     negative rho (up, down):  2.013E-04 2.013E-04
     PHONON       :   3m30.56s CPU   3m39.24s WALL



     Representation #   1 mode #   1

     Self-consistent Calculation

     Pert. #  1: Fermi energy shift (Ry) =     0.0000E+00     0.0000E+00

      iter #   1 total cpu time :   260.5 secs   av.it.:   7.0
      thresh= 1.000E-02 alpha_mix =  0.700 |ddv_scf|^2 =  3.700E-07

     Pert. #  1: Fermi energy shift (Ry) =     0.0000E+00     0.0000E+00

      iter #   2 total cpu time :   299.5 secs   av.it.:  11.7
      thresh= 6.082E-05 alpha_mix =  0.700 |ddv_scf|^2 =  4.468E-08

     Pert. #  1: Fermi energy shift (Ry) =     0.0000E+00     0.0000E+00

      iter #   3 total cpu time :   342.0 secs   av.it.:  11.0
      thresh= 2.114E-05 alpha_mix =  0.700 |ddv_scf|^2 =  3.642E-10

     Pert. #  1: Fermi energy shift (Ry) =     0.0000E+00     0.0000E+00

      iter #   4 total cpu time :   382.1 secs   av.it.:  13.0
      thresh= 1.908E-06 alpha_mix =  0.700 |ddv_scf|^2 =  1.458E-13

     End of self-consistent calculation

     Convergence has been achieved 


     Representation #   2 mode #   2

     Self-consistent Calculation

     Pert. #  1: Fermi energy shift (Ry) =     0.0000E+00     0.0000E+00

      iter #   1 total cpu time :   446.2 secs   av.it.:   7.0
      thresh= 1.000E-02 alpha_mix =  0.700 |ddv_scf|^2 =  2.503E-07

     Pert. #  1: Fermi energy shift (Ry) =     0.0000E+00     0.0000E+00

      iter #   2 total cpu time :   485.4 secs   av.it.:  12.0
      thresh= 5.003E-05 alpha_mix =  0.700 |ddv_scf|^2 =  2.921E-08

     Pert. #  1: Fermi energy shift (Ry) =     0.0000E+00     0.0000E+00

      iter #   3 total cpu time :   525.6 secs   av.it.:  11.0
      thresh= 1.709E-05 alpha_mix =  0.700 |ddv_scf|^2 =  1.449E-10

     Pert. #  1: Fermi energy shift (Ry) =     0.0000E+00     0.0000E+00

      iter #   4 total cpu time :   566.9 secs   av.it.:  13.7
      thresh= 1.204E-06 alpha_mix =  0.700 |ddv_scf|^2 =  1.222E-13

     End of self-consistent calculation

     Convergence has been achieved 


     Representation #   3 mode #   3

     Self-consistent Calculation

     Pert. #  1: Fermi energy shift (Ry) =     0.0000E+00     0.0000E+00

      iter #   1 total cpu time :   630.7 secs   av.it.:   6.0
      thresh= 1.000E-02 alpha_mix =  0.700 |ddv_scf|^2 =  1.038E-06

     Pert. #  1: Fermi energy shift (Ry) =     0.0000E+00     0.0000E+00

      iter #   2 total cpu time :   668.6 secs   av.it.:  11.0
      thresh= 1.019E-04 alpha_mix =  0.700 |ddv_scf|^2 =  1.271E-07

     Pert. #  1: Fermi energy shift (Ry) =     0.0000E+00     0.0000E+00

      iter #   3 total cpu time :   707.4 secs   av.it.:   9.8
      thresh= 3.565E-05 alpha_mix =  0.700 |ddv_scf|^2 =  1.101E-09

     Pert. #  1: Fermi energy shift (Ry) =     0.0000E+00     0.0000E+00

      iter #   4 total cpu time :   752.4 secs   av.it.:  12.0
      thresh= 3.319E-06 alpha_mix =  0.700 |ddv_scf|^2 =  1.624E-11

     Pert. #  1: Fermi energy shift (Ry) =     0.0000E+00     0.0000E+00

      iter #   5 total cpu time :   792.4 secs   av.it.:  13.0
      thresh= 4.030E-07 alpha_mix =  0.700 |ddv_scf|^2 =  3.743E-13

     End of self-consistent calculation

     Convergence has been achieved 


     Representation #   4 mode #   4

     Self-consistent Calculation

     Pert. #  1: Fermi energy shift (Ry) =     0.0000E+00     0.0000E+00

      iter #   1 total cpu time :   853.4 secs   av.it.:   4.9
      thresh= 1.000E-02 alpha_mix =  0.700 |ddv_scf|^2 =  2.570E-09

     Pert. #  1: Fermi energy shift (Ry) =     0.0000E+00     0.0000E+00

      iter #   2 total cpu time :   893.6 secs   av.it.:  11.1
      thresh= 5.069E-06 alpha_mix =  0.700 |ddv_scf|^2 =  2.784E-10

     Pert. #  1: Fermi energy shift (Ry) =     0.0000E+00     0.0000E+00

      iter #   3 total cpu time :   933.2 secs   av.it.:  11.0
      thresh= 1.669E-06 alpha_mix =  0.700 |ddv_scf|^2 =  1.150E-12

     Pert. #  1: Fermi energy shift (Ry) =     0.0000E+00     0.0000E+00

      iter #   4 total cpu time :   973.6 secs   av.it.:  13.2
      thresh= 1.072E-07 alpha_mix =  0.700 |ddv_scf|^2 =  1.109E-15

     End of self-consistent calculation

     Convergence has been achieved 


     Representation #   5 mode #   5

     Self-consistent Calculation

     Pert. #  1: Fermi energy shift (Ry) =     0.0000E+00     0.0000E+00

      iter #   1 total cpu time :  1035.6 secs   av.it.:   5.1
      thresh= 1.000E-02 alpha_mix =  0.700 |ddv_scf|^2 =  7.286E-09

     Pert. #  1: Fermi energy shift (Ry) =     0.0000E+00     0.0000E+00

      iter #   2 total cpu time :  1076.7 secs   av.it.:  13.0
      thresh= 8.536E-06 alpha_mix =  0.700 |ddv_scf|^2 =  5.911E-10

     Pert. #  1: Fermi energy shift (Ry) =     0.0000E+00     0.0000E+00

      iter #   3 total cpu time :  1119.0 secs   av.it.:  14.0
      thresh= 2.431E-06 alpha_mix =  0.700 |ddv_scf|^2 =  1.389E-10

     Pert. #  1: Fermi energy shift (Ry) =     0.0000E+00     0.0000E+00

      iter #   4 total cpu time :  1159.4 secs   av.it.:  13.0
      thresh= 1.179E-06 alpha_mix =  0.700 |ddv_scf|^2 =  1.280E-13

     End of self-consistent calculation

     Convergence has been achieved 


     Representation #   6 mode #   6

     Self-consistent Calculation

     Pert. #  1: Fermi energy shift (Ry) =     0.0000E+00     0.0000E+00

      iter #   1 total cpu time :  1222.5 secs   av.it.:   5.0
      thresh= 1.000E-02 alpha_mix =  0.700 |ddv_scf|^2 =  1.303E-08

     Pert. #  1: Fermi energy shift (Ry) =     0.0000E+00     0.0000E+00

      iter #   2 total cpu time :  1261.9 secs   av.it.:  12.0
      thresh= 1.141E-05 alpha_mix =  0.700 |ddv_scf|^2 =  9.263E-10

     Pert. #  1: Fermi energy shift (Ry) =     0.0000E+00     0.0000E+00

      iter #   3 total cpu time :  1303.3 secs   av.it.:  13.1
      thresh= 3.043E-06 alpha_mix =  0.700 |ddv_scf|^2 =  5.878E-11

     Pert. #  1: Fermi energy shift (Ry) =     0.0000E+00     0.0000E+00

      iter #   4 total cpu time :  1347.8 secs   av.it.:  13.1
      thresh= 7.667E-07 alpha_mix =  0.700 |ddv_scf|^2 =  2.792E-13

     End of self-consistent calculation

     Convergence has been achieved 


     Representation #   7 mode #   7

     Self-consistent Calculation

     Pert. #  1: Fermi energy shift (Ry) =     0.0000E+00     0.0000E+00

      iter #   1 total cpu time :  1410.9 secs   av.it.:   5.1
      thresh= 1.000E-02 alpha_mix =  0.700 |ddv_scf|^2 =  1.952E-08

     Pert. #  1: Fermi energy shift (Ry) =     0.0000E+00     0.0000E+00

      iter #   2 total cpu time :  1449.6 secs   av.it.:  12.1
      thresh= 1.397E-05 alpha_mix =  0.700 |ddv_scf|^2 =  1.908E-09

     Pert. #  1: Fermi energy shift (Ry) =     0.0000E+00     0.0000E+00

      iter #   3 total cpu time :  1492.9 secs   av.it.:  13.5
      thresh= 4.368E-06 alpha_mix =  0.700 |ddv_scf|^2 =  1.334E-10

     Pert. #  1: Fermi energy shift (Ry) =     0.0000E+00     0.0000E+00

      iter #   4 total cpu time :  1533.5 secs   av.it.:  14.0
      thresh= 1.155E-06 alpha_mix =  0.700 |ddv_scf|^2 =  3.347E-13

     End of self-consistent calculation

     Convergence has been achieved 


     Representation #   8 mode #   8

     Self-consistent Calculation

     Pert. #  1: Fermi energy shift (Ry) =     0.0000E+00     0.0000E+00

      iter #   1 total cpu time :  1595.9 secs   av.it.:   5.0
      thresh= 1.000E-02 alpha_mix =  0.700 |ddv_scf|^2 =  9.995E-09

     Pert. #  1: Fermi energy shift (Ry) =     0.0000E+00     0.0000E+00

      iter #   2 total cpu time :  1634.8 secs   av.it.:  12.2
      thresh= 9.998E-06 alpha_mix =  0.700 |ddv_scf|^2 =  8.126E-10

     Pert. #  1: Fermi energy shift (Ry) =     0.0000E+00     0.0000E+00

      iter #   3 total cpu time :  1675.7 secs   av.it.:  13.2
      thresh= 2.851E-06 alpha_mix =  0.700 |ddv_scf|^2 =  4.004E-11

     Pert. #  1: Fermi energy shift (Ry) =     0.0000E+00     0.0000E+00

      iter #   4 total cpu time :  1719.7 secs   av.it.:  14.0
      thresh= 6.328E-07 alpha_mix =  0.700 |ddv_scf|^2 =  8.855E-14

     End of self-consistent calculation

     Convergence has been achieved 


     Representation #   9 mode #   9

     Self-consistent Calculation

     Pert. #  1: Fermi energy shift (Ry) =     0.0000E+00     0.0000E+00

      iter #   1 total cpu time :  1782.6 secs   av.it.:   5.0
      thresh= 1.000E-02 alpha_mix =  0.700 |ddv_scf|^2 =  5.183E-09

     Pert. #  1: Fermi energy shift (Ry) =     0.0000E+00     0.0000E+00

      iter #   2 total cpu time :  1823.4 secs   av.it.:  12.1
      thresh= 7.199E-06 alpha_mix =  0.700 |ddv_scf|^2 =  6.742E-10

     Pert. #  1: Fermi energy shift (Ry) =     0.0000E+00     0.0000E+00

      iter #   3 total cpu time :  1864.2 secs   av.it.:  13.5
      thresh= 2.596E-06 alpha_mix =  0.700 |ddv_scf|^2 =  7.083E-11

     Pert. #  1: Fermi energy shift (Ry) =     0.0000E+00     0.0000E+00

      iter #   4 total cpu time :  1906.2 secs   av.it.:  13.8
      thresh= 8.416E-07 alpha_mix =  0.700 |ddv_scf|^2 =  3.477E-13

     End of self-consistent calculation

     Convergence has been achieved 


     Representation #  10 mode #  10

     Self-consistent Calculation

     Pert. #  1: Fermi energy shift (Ry) =     0.0000E+00     0.0000E+00

      iter #   1 total cpu time :  1968.4 secs   av.it.:   6.0
      thresh= 1.000E-02 alpha_mix =  0.700 |ddv_scf|^2 =  1.447E-09

     Pert. #  1: Fermi energy shift (Ry) =     0.0000E+00     0.0000E+00

      iter #   2 total cpu time :  2008.9 secs   av.it.:  14.0
      thresh= 3.803E-06 alpha_mix =  0.700 |ddv_scf|^2 =  2.005E-10

     Pert. #  1: Fermi energy shift (Ry) =     0.0000E+00     0.0000E+00

      iter #   3 total cpu time :  2050.3 secs   av.it.:  14.7
      thresh= 1.416E-06 alpha_mix =  0.700 |ddv_scf|^2 =  6.332E-11

     Pert. #  1: Fermi energy shift (Ry) =     0.0000E+00     0.0000E+00

      iter #   4 total cpu time :  2092.3 secs   av.it.:  14.0
      thresh= 7.957E-07 alpha_mix =  0.700 |ddv_scf|^2 =  4.677E-13

     End of self-consistent calculation

     Convergence has been achieved 


     Representation #  11 mode #  11

     Self-consistent Calculation

     Pert. #  1: Fermi energy shift (Ry) =     0.0000E+00     0.0000E+00

      iter #   1 total cpu time :  2153.3 secs   av.it.:   5.0
      thresh= 1.000E-02 alpha_mix =  0.700 |ddv_scf|^2 =  8.499E-09

     Pert. #  1: Fermi energy shift (Ry) =     0.0000E+00     0.0000E+00

      iter #   2 total cpu time :  2193.2 secs   av.it.:  12.2
      thresh= 9.219E-06 alpha_mix =  0.700 |ddv_scf|^2 =  8.539E-10

     Pert. #  1: Fermi energy shift (Ry) =     0.0000E+00     0.0000E+00

      iter #   3 total cpu time :  2233.8 secs   av.it.:  13.0
      thresh= 2.922E-06 alpha_mix =  0.700 |ddv_scf|^2 =  4.258E-11

     Pert. #  1: Fermi energy shift (Ry) =     0.0000E+00     0.0000E+00

      iter #   4 total cpu time :  2277.1 secs   av.it.:  14.0
      thresh= 6.525E-07 alpha_mix =  0.700 |ddv_scf|^2 =  1.840E-13

     End of self-consistent calculation

     Convergence has been achieved 


     Representation #  12 mode #  12

     Self-consistent Calculation

     Pert. #  1: Fermi energy shift (Ry) =     0.0000E+00     0.0000E+00

      iter #   1 total cpu time :  2338.6 secs   av.it.:   5.0
      thresh= 1.000E-02 alpha_mix =  0.700 |ddv_scf|^2 =  1.090E-08

     Pert. #  1: Fermi energy shift (Ry) =     0.0000E+00     0.0000E+00

      iter #   2 total cpu time :  2378.0 secs   av.it.:  12.0
      thresh= 1.044E-05 alpha_mix =  0.700 |ddv_scf|^2 =  1.157E-09

     Pert. #  1: Fermi energy shift (Ry) =     0.0000E+00     0.0000E+00

      iter #   3 total cpu time :  2419.0 secs   av.it.:  13.0
      thresh= 3.402E-06 alpha_mix =  0.700 |ddv_scf|^2 =  6.258E-11

     Pert. #  1: Fermi energy shift (Ry) =     0.0000E+00     0.0000E+00

      iter #   4 total cpu time :  2459.4 secs   av.it.:  14.0
      thresh= 7.911E-07 alpha_mix =  0.700 |ddv_scf|^2 =  2.529E-13

     End of self-consistent calculation

     Convergence has been achieved 

     Number of q in the star =    1
     List of q in the star:
          1   0.000000000   0.000000000   0.000000000

     Diagonalizing the dynamical matrix

     q = (    0.000000000   0.000000000   0.000000000 ) 

 **************************************************************************
     freq (    1) =      30.076504 [THz] =    1003.244175 [cm-1]
     freq (    2) =      30.195469 [THz] =    1007.212415 [cm-1]
     freq (    3) =      33.902896 [THz] =    1130.878892 [cm-1]
     freq (    4) =      38.067350 [THz] =    1269.790112 [cm-1]
     freq (    5) =      38.902738 [THz] =    1297.655676 [cm-1]
     freq (    6) =      39.233452 [THz] =    1308.687088 [cm-1]
     freq (    7) =      47.399791 [THz] =    1581.086851 [cm-1]
     freq (    8) =      58.440669 [THz] =    1949.370891 [cm-1]
     freq (    9) =      58.578349 [THz] =    1953.963387 [cm-1]
     freq (   10) =     112.023342 [THz] =    3736.696466 [cm-1]
     freq (   11) =     114.145811 [THz] =    3807.494407 [cm-1]
     freq (   12) =     114.166275 [THz] =    3808.177035 [cm-1]
 **************************************************************************

     Mode symmetry, C_1 (1)     point group:

     freq (   1-   1) =       1003.2  [cm-1]   --> A               I+R
     freq (   2-   2) =       1007.2  [cm-1]   --> A               I+R
     freq (   3-   3) =       1130.9  [cm-1]   --> A               I+R
     freq (   4-   4) =       1269.8  [cm-1]   --> A               I+R
     freq (   5-   5) =       1297.7  [cm-1]   --> A               I+R
     freq (   6-   6) =       1308.7  [cm-1]   --> A               I+R
     freq (   7-   7) =       1581.1  [cm-1]   --> A               I+R
     freq (   8-   8) =       1949.4  [cm-1]   --> A               I+R
     freq (   9-   9) =       1954.0  [cm-1]   --> A               I+R
     freq (  10-  10) =       3736.7  [cm-1]   --> A               I+R
     freq (  11-  11) =       3807.5  [cm-1]   --> A               I+R
     freq (  12-  12) =       3808.2  [cm-1]   --> A               I+R

     PHONON       :  35m37.03s CPU  41m28.71s WALL

     INITIALIZATION: 
     phq_setup    :     12.94s CPU     14.55s WALL (       1 calls)
     phq_init     :    180.05s CPU    184.98s WALL (       1 calls)

     phq_init     :    180.05s CPU    184.98s WALL (       1 calls)
     set_drhoc    :     23.94s CPU     24.05s WALL (       3 calls)
     init_vloc    :      0.31s CPU      0.32s WALL (       1 calls)
     init_us_1    :      0.04s CPU      0.04s WALL (       1 calls)
     newd         :      1.30s CPU      1.35s WALL (       1 calls)
     dvanqq       :     73.74s CPU     74.53s WALL (       1 calls)
     drho         :     59.00s CPU     62.33s WALL (       1 calls)

     DYNAMICAL MATRIX:
     dynmat0      :     24.96s CPU     25.68s WALL (       1 calls)
     phqscf       :   1926.47s CPU   2259.35s WALL (       1 calls)
     dynmatrix    :      0.00s CPU      0.06s WALL (       1 calls)

     phqscf       :   1926.47s CPU   2259.35s WALL (       1 calls)
     solve_linter :   1908.91s CPU   2212.99s WALL (      12 calls)
     drhodv       :     17.55s CPU     17.97s WALL (      12 calls)

     dynmat0      :     24.96s CPU     25.68s WALL (       1 calls)
     dynmat_us    :      1.88s CPU      1.94s WALL (       1 calls)
     d2ionq       :      0.99s CPU      0.99s WALL (       1 calls)
     dynmatcc     :     22.05s CPU     22.70s WALL (       1 calls)

     dynmat_us    :      1.88s CPU      1.94s WALL (       1 calls)
     addusdynmat  :      0.00s CPU      0.00s WALL (       1 calls)

     phqscf       :   1926.47s CPU   2259.35s WALL (       1 calls)
     solve_linter :   1908.91s CPU   2212.99s WALL (      12 calls)

     solve_linter :   1908.91s CPU   2212.99s WALL (      12 calls)
     dvqpsi_us    :     24.26s CPU     24.70s WALL (      36 calls)
     ortho        :      3.86s CPU      3.97s WALL (     147 calls)
     cgsolve      :    552.84s CPU    559.44s WALL (     147 calls)
     incdrhoscf   :     42.11s CPU     42.98s WALL (     147 calls)
     addusddens   :    126.44s CPU    133.29s WALL (      61 calls)
     vpsifft      :     31.76s CPU     32.49s WALL (     111 calls)
     dv_of_drho   :    324.93s CPU    339.01s WALL (      49 calls)
     mix_pot      :     21.50s CPU     51.35s WALL (      49 calls)
     ef_shift     :     47.30s CPU     48.13s WALL (      61 calls)
     localdos     :     63.51s CPU     65.86s WALL (      12 calls)
     psymdvscf    :    227.74s CPU    368.92s WALL (      49 calls)
     newdq        :    155.70s CPU    162.83s WALL (      49 calls)
     adddvscf     :      1.20s CPU      1.21s WALL (     111 calls)
     drhodvus     :      4.57s CPU     57.96s WALL (      12 calls)

     dvqpsi_us    :     24.26s CPU     24.70s WALL (      36 calls)
     dvqpsi_us_on :      0.46s CPU      0.46s WALL (      36 calls)

     cgsolve      :    552.84s CPU    559.44s WALL (     147 calls)
     ch_psi       :    535.47s CPU    541.89s WALL (    1943 calls)

     ch_psi       :    535.47s CPU    541.89s WALL (    1943 calls)
     h_psi        :    482.92s CPU    488.74s WALL (    1943 calls)
     last         :     36.56s CPU     36.95s WALL (    1943 calls)

     h_psi        :    482.92s CPU    488.74s WALL (    1943 calls)
     add_vuspsi   :     10.04s CPU     10.17s WALL (    1943 calls)

     incdrhoscf   :     42.11s CPU     42.98s WALL (     147 calls)
     addusdbec    :      1.91s CPU      1.92s WALL (     183 calls)

     drhodvus     :      4.57s CPU     57.96s WALL (      12 calls)

      General routines
     calbec       :     26.23s CPU     26.70s WALL (    4426 calls)
     fft          :    583.89s CPU    596.13s WALL (    2157 calls)
     ffts         :     43.87s CPU     44.85s WALL (     582 calls)
     fftw         :    457.39s CPU    463.20s WALL (   16108 calls)
     davcio       :      0.29s CPU     87.54s WALL (    1151 calls)
     write_rec    :      0.00s CPU     49.12s WALL (      61 calls)


     PHONON       :  35m37.03s CPU  41m28.71s WALL


   This run was terminated on:  20:50:29  21Sep2022            

=------------------------------------------------------------------------------=
   JOB DONE.
=------------------------------------------------------------------------------=
