
     Program PWSCF v.6.4.1 starts on  8Jun2022 at 19:29:55 

     This program is part of the open-source Quantum ESPRESSO suite
     for quantum simulation of materials; please cite
         "P. Giannozzi et al., J. Phys.:Condens. Matter 21 395502 (2009);
         "P. Giannozzi et al., J. Phys.:Condens. Matter 29 465901 (2017);
          URL http://www.quantum-espresso.org", 
     in publications or presentations arising from this work. More details at
     http://www.quantum-espresso.org/quote

     Parallel version (MPI), running on   160 processors

     MPI processes distributed on     8 nodes
     K-points division:     npool     =       8
     R & G space division:  proc/nbgrp/npool/nimage =      20
     Waiting for input...
     Reading input from standard input
Warning: card &CELL ignored
Warning: card / ignored

     Current dimensions of program PWSCF are:
     Max number of different atomic species (ntypx) = 10
     Max number of k-points (npk) =  40000
     Max angular momentum in pseudopotentials (lmaxx) =  3

     IMPORTANT: XC functional enforced from input :
     Exchange-correlation      = PBE ( 1  4  3  4 0 0)
     Any further DFT definition will be discarded
     Please, verify this is what you really want

               file Fe.pbe-spn-kjpaw_psl.0.2.1.UPF: wavefunction(s)  3D renormalized

     -------------------------------------------------
     Parameters for Dispersion (Grimme-D2) Correction:
     -------------------------------------------------
       atom      VdW radius       C_6     

        Fe         2.952        374.666
        N          2.640         42.670
        H          1.892          4.857

     Subspace diagonalization in iterative solution of the eigenvalue problem:
     one sub-group per band group will be used
     scalapack distributed-memory algorithm (size of sub-group:  3*  3 procs)


     Parallelization info
     --------------------
     sticks:   dense  smooth     PW     G-vecs:    dense   smooth      PW
     Min         634     317     83               145278    51361    6989
     Max         635     318     84               145287    51370    7000
     Sum       12685    6351   1677              2905599  1027285  139897



     bravais-lattice index     =            0
     lattice parameter (alat)  =      18.7640  a.u.
     unit-cell volume          =   16360.3163 (a.u.)^3
     number of atoms/cell      =           67
     number of atomic types    =            3
     number of electrons       =      1031.00
     number of Kohn-Sham states=          619
     kinetic-energy cutoff     =      60.0000  Ry
     charge density cutoff     =     480.0000  Ry
     convergence threshold     =      1.0E-08
     mixing beta               =       0.2000
     number of iterations used =           10  local-TF  mixing
     Exchange-correlation      = PBE ( 1  4  3  4 0 0)
     nstep                     =           50


     Effective Screening Medium Method
     =================================
     Boundary Conditions: Metal-Slab-Metal
     field strength                   =     0.01 Ry/a.u.
     grid points for fit at edges     =        4 


     celldm(1)=  18.764036  celldm(2)=   0.000000  celldm(3)=   0.000000
     celldm(4)=   0.000000  celldm(5)=   0.000000  celldm(6)=   0.000000

     crystal axes: (cart. coord. in units of alat)
               a(1) = (   1.000000   0.000000   0.000000 )  
               a(2) = (   0.333330   0.942807   0.000000 )  
               a(3) = (   0.000000   0.000000   2.626577 )  

     reciprocal axes: (cart. coord. in units 2 pi/alat)
               b(1) = (  1.000000 -0.353551  0.000000 )  
               b(2) = (  0.000000  1.060663  0.000000 )  
               b(3) = (  0.000000  0.000000  0.380724 )  


     PseudoPot. # 1 for Fe read from file:
     ../../SSSP/Fe.pbe-spn-kjpaw_psl.0.2.1.UPF
     MD5 check sum: e86618425769142926afa95317d90200
     Pseudo is Projector augmented-wave + core cor, Zval = 16.0
     Generated using "atomic" code by A. Dal Corso v.5.0.99 svn rev. 10869
     Shape of augmentation charge: PSQ
     Using radial grid of 1191 points,  6 beta functions with: 
                l(1) =   0
                l(2) =   0
                l(3) =   1
                l(4) =   1
                l(5) =   2
                l(6) =   2
     Q(r) pseudized with 0 coefficients 


     PseudoPot. # 2 for N  read from file:
     ../../SSSP/N.pbe-n-radius_5.UPF
     MD5 check sum: 16739722b17309cd8fe442a2ace49922
     Pseudo is Ultrasoft + core correction, Zval =  5.0
     Generated using "atomic" code by A. Dal Corso v.5.1
     Using radial grid of 1085 points,  4 beta functions with: 
                l(1) =   0
                l(2) =   0
                l(3) =   1
                l(4) =   1
     Q(r) pseudized with 0 coefficients 


     PseudoPot. # 3 for H  read from file:
     ../../SSSP/H.pbe-rrkjus_psl.1.0.0.UPF
     MD5 check sum: f52b6d4d1c606e5624b1dc7b2218f220
     Pseudo is Ultrasoft, Zval =  1.0
     Generated using "atomic" code by A. Dal Corso v.5.1
     Using radial grid of  929 points,  2 beta functions with: 
                l(1) =   0
                l(2) =   0
     Q(r) pseudized with 0 coefficients 


     atomic species   valence    mass     pseudopotential
        Fe            16.00    55.84500     Fe( 1.00)
        N              5.00    14.00700     N ( 1.00)
        H              1.00     1.00800     H ( 1.00)

     Starting magnetic structure 
     atomic species   magnetization
        Fe           0.100
        N            0.100
        H            0.100

     No symmetry found



   Cartesian axes

     site n.     atom                  positions (alat units)
         1           Fe  tau(   1) = (   0.1666663   0.1178509   0.0000000  )
         2           Fe  tau(   2) = (   0.0000000   0.0000000   0.2041376  )
         3           Fe  tau(   3) = (   0.4999989   0.3535526   0.0000000  )
         4           Fe  tau(   4) = (   0.3333326   0.2357017   0.2041376  )
         5           Fe  tau(   5) = (   0.1659469   0.1176111   0.4051778  )
         6           Fe  tau(   6) = (   0.3326774   0.9437552   0.6041133  )
         7           Fe  tau(   7) = (   0.4995314   0.3539857   0.4039182  )
         8           Fe  tau(   8) = (   0.3327696   0.2348883   0.6042468  )
         9           Fe  tau(   9) = (   0.2499989   0.3535526   0.0000000  )
        10           Fe  tau(  10) = (   0.4166663   0.1178509   0.0000000  )
        11           Fe  tau(  11) = (   0.0833326   0.2357017   0.2041376  )
        12           Fe  tau(  12) = (   0.2500000   0.0000000   0.2041376  )
        13           Fe  tau(  13) = (   0.2500040   0.3535498   0.4054794  )
        14           Fe  tau(  14) = (   0.4158894   0.1173033   0.4045494  )
        15           Fe  tau(  15) = (   0.0820556   0.2361265   0.6031108  )
        16           Fe  tau(  16) = (   0.2495625  -0.0002917   0.6052245  )
        17           Fe  tau(  17) = (   0.6666663   0.1178509   0.0000000  )
        18           Fe  tau(  18) = (   0.5000000   0.0000000   0.2041376  )
        19           Fe  tau(  19) = (   0.9999989   0.3535526   0.0000000  )
        20           Fe  tau(  20) = (   0.8333326   0.2357017   0.2041376  )
        21           Fe  tau(  21) = (   0.6669204   0.1172533   0.4039212  )
        22           Fe  tau(  22) = (   0.4990531  -0.0002644   0.6042086  )
        23           Fe  tau(  23) = (   1.0004862   0.3531177   0.4039164  )
        24           Fe  tau(  24) = (   0.8337778   0.2351175   0.6127879  )
        25           Fe  tau(  25) = (   0.7499989   0.3535526   0.0000000  )
        26           Fe  tau(  26) = (   0.9166663   0.1178509   0.0000000  )
        27           Fe  tau(  27) = (   0.5833326   0.2357017   0.2041376  )
        28           Fe  tau(  28) = (   0.7500000   0.0000000   0.2041376  )
        29           Fe  tau(  29) = (   0.7500131   0.3535440   0.4072842  )
        30           Fe  tau(  30) = (   0.9155831   0.1193857   0.4075395  )
        31           Fe  tau(  31) = (   0.5783441   0.2321719   0.5970314  )
        32           Fe  tau(  32) = (   1.0833832   0.9441686   0.6031127  )
        33           Fe  tau(  33) = (   0.3333315   0.5892543   0.0000000  )
        34           Fe  tau(  34) = (   0.1666652   0.4714034   0.2041376  )
        35           Fe  tau(  35) = (   0.6666640   0.8249560   0.0000000  )
        36           Fe  tau(  36) = (   0.4999978   0.7071052   0.2041376  )
        37           Fe  tau(  37) = (   0.3340416   0.5895146   0.4051839  )
        38           Fe  tau(  38) = (   1.1672537   0.4722186   0.6042084  )
        39           Fe  tau(  39) = (   0.6661837   0.8243868   0.4051812  )
        40           Fe  tau(  40) = (   0.5006285   0.7062097   0.6040795  )
        41           Fe  tau(  41) = (   0.4166640   0.8249560   0.0000000  )
        42           Fe  tau(  42) = (   0.5833315   0.5892543   0.0000000  )
        43           Fe  tau(  43) = (   0.2499978   0.7071052   0.2041376  )
        44           Fe  tau(  44) = (   0.4166652   0.4714034   0.2041376  )
        45           Fe  tau(  45) = (   0.4166452   0.8249897   0.4057805  )
        46           Fe  tau(  46) = (   0.5844057   0.5877497   0.4075311  )
        47           Fe  tau(  47) = (   1.2504327   0.7074244   0.6052235  )
        48           Fe  tau(  48) = (   0.4179751   0.4709968   0.6031410  )
        49           Fe  tau(  49) = (   0.8333315   0.5892543   0.0000000  )
        50           Fe  tau(  50) = (   0.6666652   0.4714034   0.2041376  )
        51           Fe  tau(  51) = (   1.1666640   0.8249560   0.0000000  )
        52           Fe  tau(  52) = (   0.9999978   0.7071052   0.2041376  )
        53           Fe  tau(  53) = (   0.8330940   0.5898506   0.4039165  )
        54           Fe  tau(  54) = (   0.6663009   0.4719620   0.6127536  )
        55           Fe  tau(  55) = (   1.1671405   0.8255567   0.4051807  )
        56           Fe  tau(  56) = (   1.0009605   0.7073708   0.6042382  )
        57           Fe  tau(  57) = (   0.9166640   0.8249560   0.0000000  )
        58           Fe  tau(  58) = (   1.0833315   0.5892543   0.0000000  )
        59           Fe  tau(  59) = (   0.7499978   0.7071052   0.2041376  )
        60           Fe  tau(  60) = (   0.9166652   0.4714034   0.2041376  )
        61           Fe  tau(  61) = (   0.9166718   0.8249618   0.4054780  )
        62           Fe  tau(  62) = (   1.0841179   0.5898081   0.4045489  )
        63           Fe  tau(  63) = (   0.7499449   0.7057654   0.6031249  )
        64           Fe  tau(  64) = (   0.9216800   0.4749338   0.5970275  )
        65           N   tau(  65) = (   0.7501346   0.3536354   0.7529466  )
        66           H   tau(  66) = (   0.8168477   0.4009022   0.8166592  )
        67           H   tau(  67) = (   0.6834358   0.3064220   0.8167099  )

     number of k points=    10  Methfessel-Paxton smearing, width (Ry)=  0.0100
                       cart. coord. in units 2pi/alat
        k(    1) = (   0.0000000   0.0000000   0.0000000), wk =   0.0625000
        k(    2) = (   0.0000000   0.2651656   0.0000000), wk =   0.1250000
        k(    3) = (   0.0000000  -0.5303313   0.0000000), wk =   0.0625000
        k(    4) = (   0.2500000  -0.0883878   0.0000000), wk =   0.1250000
        k(    5) = (   0.2500000   0.1767779   0.0000000), wk =   0.1250000
        k(    6) = (   0.2500000  -0.6187190   0.0000000), wk =   0.1250000
        k(    7) = (   0.2500000  -0.3535534   0.0000000), wk =   0.1250000
        k(    8) = (  -0.5000000   0.1767755   0.0000000), wk =   0.0625000
        k(    9) = (  -0.5000000   0.4419412   0.0000000), wk =   0.1250000
        k(   10) = (  -0.5000000  -0.3535558   0.0000000), wk =   0.0625000

     Dense  grid:  2905599 G-vectors     FFT dimensions: ( 135, 135, 360)

     Smooth grid:  1027285 G-vectors     FFT dimensions: (  96,  96, 243)

     Estimated max dynamical RAM per process >       1.01 GB

     Estimated total dynamical RAM >     162.06 GB
     Generating pointlists ...
     new r_m :   0.0832 (alat units)  1.5612 (a.u.) for type    1
     new r_m :   0.0428 (alat units)  0.8023 (a.u.) for type    2
     new r_m :   0.0428 (alat units)  0.8023 (a.u.) for type    3

     Check: negative core charge=   -0.000039

     Initial potential from superposition of free atoms

     starting charge 1030.97192, renormalised to 1031.00000

     negative rho (up, down):  2.438E-02 2.557E-03
     Starting wfcs are  838 randomized atomic wfcs
     Checking if some PAW data can be deallocated... 

     total cpu time spent up to now is       87.4 secs

     Self-consistent Calculation

     iteration #  1     ecut=    60.00 Ry     beta= 0.20
     Davidson diagonalization with overlap
     c_bands:  1 eigenvalues not converged
     ethr =  1.00E-04,  avg # of iterations = 18.6

     negative rho (up, down):  1.218E-02 3.261E-03

     total cpu time spent up to now is     1100.6 secs

     total energy              =  -21088.79045937 Ry
     Harris-Foulkes estimate   =  -21097.17543762 Ry
     estimated scf accuracy    <     421.27954154 Ry

     total magnetization       =   103.30 Bohr mag/cell
     absolute magnetization    =   104.27 Bohr mag/cell

     iteration #  2     ecut=    60.00 Ry     beta= 0.20
     Davidson diagonalization with overlap
     ethr =  1.00E-02,  avg # of iterations =  1.0

     negative rho (up, down):  9.840E-03 4.404E-02

     total cpu time spent up to now is     1244.2 secs

     total energy              =  -21093.10942322 Ry
     Harris-Foulkes estimate   =  -21096.63758121 Ry
     estimated scf accuracy    <     190.20074464 Ry

     total magnetization       =   102.43 Bohr mag/cell
     absolute magnetization    =   103.68 Bohr mag/cell

     iteration #  3     ecut=    60.00 Ry     beta= 0.20
     Davidson diagonalization with overlap
     ethr =  1.00E-02,  avg # of iterations =  1.0

     negative rho (up, down):  5.298E-03 2.283E-02

     total cpu time spent up to now is     1378.1 secs

     total energy              =  -21094.84725250 Ry
     Harris-Foulkes estimate   =  -21094.97253455 Ry
     estimated scf accuracy    <      10.57078091 Ry

     total magnetization       =   132.37 Bohr mag/cell
     absolute magnetization    =   132.80 Bohr mag/cell

     iteration #  4     ecut=    60.00 Ry     beta= 0.20
     Davidson diagonalization with overlap
     ethr =  1.03E-03,  avg # of iterations =  1.0

     negative rho (up, down):  3.453E-03 1.425E-02

     total cpu time spent up to now is     1515.9 secs

     total energy              =  -21094.88408173 Ry
     Harris-Foulkes estimate   =  -21094.93794644 Ry
     estimated scf accuracy    <      15.72278974 Ry

     total magnetization       =   138.58 Bohr mag/cell
     absolute magnetization    =   139.07 Bohr mag/cell

     iteration #  5     ecut=    60.00 Ry     beta= 0.20
     Davidson diagonalization with overlap
     ethr =  1.03E-03,  avg # of iterations =  1.0

     negative rho (up, down):  1.575E-02 1.958E-01

     total cpu time spent up to now is     1648.8 secs

     total energy              =  -21093.08525425 Ry
     Harris-Foulkes estimate   =  -21094.91466285 Ry
     estimated scf accuracy    <      16.68509047 Ry

     total magnetization       =   141.62 Bohr mag/cell
     absolute magnetization    =   142.19 Bohr mag/cell

     iteration #  6     ecut=    60.00 Ry     beta= 0.20
     Davidson diagonalization with overlap
     ethr =  1.03E-03,  avg # of iterations =  7.0

     negative rho (up, down):  4.406E-03 1.182E-01

     total cpu time spent up to now is     1849.9 secs

     total energy              =  -21094.18663699 Ry
     Harris-Foulkes estimate   =  -21094.14486703 Ry
     estimated scf accuracy    <       4.75273085 Ry

     total magnetization       =   156.15 Bohr mag/cell
     absolute magnetization    =   158.74 Bohr mag/cell

     iteration #  7     ecut=    60.00 Ry     beta= 0.20
     Davidson diagonalization with overlap
     ethr =  4.61E-04,  avg # of iterations =  6.2

     negative rho (up, down):  1.415E-03 5.327E-02

     total cpu time spent up to now is     2044.9 secs

     total energy              =  -21094.41811491 Ry
     Harris-Foulkes estimate   =  -21094.48011808 Ry
     estimated scf accuracy    <       0.92105954 Ry

     total magnetization       =   151.10 Bohr mag/cell
     absolute magnetization    =   153.97 Bohr mag/cell

     iteration #  8     ecut=    60.00 Ry     beta= 0.20
     Davidson diagonalization with overlap
     c_bands:  2 eigenvalues not converged
     ethr =  8.93E-05,  avg # of iterations = 19.2

     negative rho (up, down):  3.488E-04 2.998E-02

     total cpu time spent up to now is     2994.3 secs

     total energy              =  -21094.84859431 Ry
     Harris-Foulkes estimate   =  -21095.10985023 Ry
     estimated scf accuracy    <       4.29692499 Ry

     total magnetization       =   150.19 Bohr mag/cell
     absolute magnetization    =   156.12 Bohr mag/cell

     iteration #  9     ecut=    60.00 Ry     beta= 0.20
     Davidson diagonalization with overlap
     ethr =  8.93E-05,  avg # of iterations =  3.7

     negative rho (up, down):  1.407E-04 1.292E-02

     total cpu time spent up to now is     3192.0 secs

     total energy              =  -21094.91155630 Ry
     Harris-Foulkes estimate   =  -21094.94216839 Ry
     estimated scf accuracy    <       0.38456688 Ry

     total magnetization       =   150.72 Bohr mag/cell
     absolute magnetization    =   155.66 Bohr mag/cell

     iteration # 10     ecut=    60.00 Ry     beta= 0.20
     Davidson diagonalization with overlap
     ethr =  3.73E-05,  avg # of iterations =  7.8

     negative rho (up, down):  2.019E-04 2.021E-02

     total cpu time spent up to now is     3456.8 secs

     total energy              =  -21094.92945461 Ry
     Harris-Foulkes estimate   =  -21094.93787933 Ry
     estimated scf accuracy    <       0.42657571 Ry

     total magnetization       =   151.31 Bohr mag/cell
     absolute magnetization    =   155.94 Bohr mag/cell

     iteration # 11     ecut=    60.00 Ry     beta= 0.20
     Davidson diagonalization with overlap
     ethr =  3.73E-05,  avg # of iterations =  3.7

     negative rho (up, down):  1.679E-04 2.352E-02

     total cpu time spent up to now is     3657.6 secs

     total energy              =  -21094.94880855 Ry
     Harris-Foulkes estimate   =  -21094.96261338 Ry
     estimated scf accuracy    <       0.25477371 Ry

     total magnetization       =   156.20 Bohr mag/cell
     absolute magnetization    =   160.87 Bohr mag/cell

     iteration # 12     ecut=    60.00 Ry     beta= 0.20
     Davidson diagonalization with overlap
     ethr =  2.47E-05,  avg # of iterations =  5.8

     negative rho (up, down):  9.438E-05 1.602E-02

     total cpu time spent up to now is     3859.2 secs

     total energy              =  -21094.95663195 Ry
     Harris-Foulkes estimate   =  -21094.97730845 Ry
     estimated scf accuracy    <       0.32042179 Ry

     total magnetization       =   159.10 Bohr mag/cell
     absolute magnetization    =   164.11 Bohr mag/cell

     iteration # 13     ecut=    60.00 Ry     beta= 0.20
     Davidson diagonalization with overlap
     ethr =  2.47E-05,  avg # of iterations =  3.6

     negative rho (up, down):  5.625E-05 1.760E-02

     total cpu time spent up to now is     4032.1 secs

     total energy              =  -21094.94721119 Ry
     Harris-Foulkes estimate   =  -21094.96711427 Ry
     estimated scf accuracy    <       0.34187208 Ry

     total magnetization       =   160.41 Bohr mag/cell
     absolute magnetization    =   165.43 Bohr mag/cell

     iteration # 14     ecut=    60.00 Ry     beta= 0.20
     Davidson diagonalization with overlap
     ethr =  2.47E-05,  avg # of iterations =  5.8

     negative rho (up, down):  9.349E-03 4.005E-02

     total cpu time spent up to now is     4208.7 secs

     total energy              =  -21094.94009240 Ry
     Harris-Foulkes estimate   =  -21094.95625637 Ry
     estimated scf accuracy    <       0.27771327 Ry

     total magnetization       =   160.42 Bohr mag/cell
     absolute magnetization    =   165.44 Bohr mag/cell

     iteration # 15     ecut=    60.00 Ry     beta= 0.20
     Davidson diagonalization with overlap
     ethr =  2.47E-05,  avg # of iterations =  1.0

     negative rho (up, down):  2.822E-02 4.020E-02

     total cpu time spent up to now is     4340.1 secs

     total energy              =  -21094.93254009 Ry
     Harris-Foulkes estimate   =  -21094.94579996 Ry
     estimated scf accuracy    <       0.25803329 Ry

     total magnetization       =   161.85 Bohr mag/cell
     absolute magnetization    =   166.88 Bohr mag/cell

     iteration # 16     ecut=    60.00 Ry     beta= 0.20
     Davidson diagonalization with overlap
     ethr =  2.47E-05,  avg # of iterations =  1.9

     negative rho (up, down):  1.321E-01 3.097E-02

     total cpu time spent up to now is     4500.4 secs

     total energy              =  -21094.91335473 Ry
     Harris-Foulkes estimate   =  -21094.93729883 Ry
     estimated scf accuracy    <       0.12064695 Ry

     total magnetization       =   161.91 Bohr mag/cell
     absolute magnetization    =   167.00 Bohr mag/cell

     iteration # 17     ecut=    60.00 Ry     beta= 0.20
     Davidson diagonalization with overlap
     c_bands:  3 eigenvalues not converged
     c_bands:  2 eigenvalues not converged
     ethr =  1.17E-05,  avg # of iterations = 17.5

     negative rho (up, down):  1.574E-01 1.773E-02

     total cpu time spent up to now is     5044.7 secs

     total energy              =  -21094.92205765 Ry
     Harris-Foulkes estimate   =  -21094.93302663 Ry
     estimated scf accuracy    <       0.04071055 Ry

     total magnetization       =   161.66 Bohr mag/cell
     absolute magnetization    =   167.11 Bohr mag/cell

     iteration # 18     ecut=    60.00 Ry     beta= 0.20
     Davidson diagonalization with overlap
     c_bands:  5 eigenvalues not converged
     c_bands:  5 eigenvalues not converged
     c_bands:  5 eigenvalues not converged
     ethr =  3.95E-06,  avg # of iterations = 21.3

     negative rho (up, down):  1.350E-01 1.940E-02

     total cpu time spent up to now is     6031.4 secs

     total energy              =  -21094.92836682 Ry
     Harris-Foulkes estimate   =  -21094.93495513 Ry
     estimated scf accuracy    <       0.05972545 Ry

     total magnetization       =   160.51 Bohr mag/cell
     absolute magnetization    =   166.33 Bohr mag/cell

     iteration # 19     ecut=    60.00 Ry     beta= 0.20
     Davidson diagonalization with overlap
     c_bands:  1 eigenvalues not converged
     c_bands:  1 eigenvalues not converged
     ethr =  3.95E-06,  avg # of iterations = 10.1

     negative rho (up, down):  1.585E-01 2.654E-02

     total cpu time spent up to now is     6318.5 secs

     total energy              =  -21094.89972904 Ry
     Harris-Foulkes estimate   =  -21094.93032132 Ry
     estimated scf accuracy    <       0.02835099 Ry

     total magnetization       =   160.99 Bohr mag/cell
     absolute magnetization    =   166.78 Bohr mag/cell

     iteration # 20     ecut=    60.00 Ry     beta= 0.20
     Davidson diagonalization with overlap
     c_bands:  1 eigenvalues not converged
     c_bands:  1 eigenvalues not converged
     ethr =  2.75E-06,  avg # of iterations = 12.9

     negative rho (up, down):  1.717E-01 2.487E-02

     total cpu time spent up to now is     6874.9 secs

     total energy              =  -21094.90610596 Ry
     Harris-Foulkes estimate   =  -21094.90845132 Ry
     estimated scf accuracy    <       0.04223755 Ry

     total magnetization       =   161.08 Bohr mag/cell
     absolute magnetization    =   167.27 Bohr mag/cell

     iteration # 21     ecut=    60.00 Ry     beta= 0.20
     Davidson diagonalization with overlap
     c_bands:  1 eigenvalues not converged
     ethr =  2.75E-06,  avg # of iterations =  7.5

     negative rho (up, down):  1.873E-01 1.728E-02

     total cpu time spent up to now is     7138.5 secs

     total energy              =  -21094.89684312 Ry
     Harris-Foulkes estimate   =  -21094.90686955 Ry
     estimated scf accuracy    <       0.03171397 Ry

     total magnetization       =   161.13 Bohr mag/cell
     absolute magnetization    =   167.33 Bohr mag/cell

     iteration # 22     ecut=    60.00 Ry     beta= 0.20
     Davidson diagonalization with overlap
     c_bands:  2 eigenvalues not converged
     ethr =  2.75E-06,  avg # of iterations = 12.3

     negative rho (up, down):  1.464E-01 1.822E-02

     total cpu time spent up to now is     7493.0 secs

     total energy              =  -21094.89557811 Ry
     Harris-Foulkes estimate   =  -21094.90063836 Ry
     estimated scf accuracy    <       0.00825605 Ry

     total magnetization       =   161.45 Bohr mag/cell
     absolute magnetization    =   167.74 Bohr mag/cell

     iteration # 23     ecut=    60.00 Ry     beta= 0.20
     Davidson diagonalization with overlap
     c_bands:  1 eigenvalues not converged
     ethr =  8.01E-07,  avg # of iterations = 16.1

     negative rho (up, down):  1.112E-01 1.897E-02

     total cpu time spent up to now is     8044.3 secs

     total energy              =  -21094.89451049 Ry
     Harris-Foulkes estimate   =  -21094.89721090 Ry
     estimated scf accuracy    <       0.00379783 Ry

     total magnetization       =   161.29 Bohr mag/cell
     absolute magnetization    =   167.66 Bohr mag/cell

     iteration # 24     ecut=    60.00 Ry     beta= 0.20
     Davidson diagonalization with overlap
     ethr =  3.68E-07,  avg # of iterations =  8.7

     negative rho (up, down):  5.907E-02 2.664E-02

     total cpu time spent up to now is     8461.9 secs

     total energy              =  -21094.89783875 Ry
     Harris-Foulkes estimate   =  -21094.89530137 Ry
     estimated scf accuracy    <       0.00306920 Ry

     total magnetization       =   161.18 Bohr mag/cell
     absolute magnetization    =   167.59 Bohr mag/cell

     iteration # 25     ecut=    60.00 Ry     beta= 0.20
     Davidson diagonalization with overlap
     c_bands:  3 eigenvalues not converged
     ethr =  2.98E-07,  avg # of iterations =  9.9

     negative rho (up, down):  3.723E-02 2.664E-02

     total cpu time spent up to now is     8974.1 secs

     total energy              =  -21094.89988006 Ry
     Harris-Foulkes estimate   =  -21094.89893242 Ry
     estimated scf accuracy    <       0.00279613 Ry

     total magnetization       =   161.48 Bohr mag/cell
     absolute magnetization    =   167.90 Bohr mag/cell

     iteration # 26     ecut=    60.00 Ry     beta= 0.20
     Davidson diagonalization with overlap
     c_bands:  1 eigenvalues not converged
     ethr =  2.71E-07,  avg # of iterations =  8.9

     negative rho (up, down):  3.606E-02 2.217E-02

     total cpu time spent up to now is     9222.1 secs

     total energy              =  -21094.89953677 Ry
     Harris-Foulkes estimate   =  -21094.90004647 Ry
     estimated scf accuracy    <       0.00086082 Ry

     total magnetization       =   161.50 Bohr mag/cell
     absolute magnetization    =   167.91 Bohr mag/cell

     iteration # 27     ecut=    60.00 Ry     beta= 0.20
     Davidson diagonalization with overlap
     ethr =  8.35E-08,  avg # of iterations =  9.8

     negative rho (up, down):  3.097E-02 2.095E-02

     total cpu time spent up to now is     9585.9 secs

     total energy              =  -21094.90018470 Ry
     Harris-Foulkes estimate   =  -21094.89973352 Ry
     estimated scf accuracy    <       0.00028252 Ry

     total magnetization       =   161.56 Bohr mag/cell
     absolute magnetization    =   168.01 Bohr mag/cell

     iteration # 28     ecut=    60.00 Ry     beta= 0.20
     Davidson diagonalization with overlap
     ethr =  2.74E-08,  avg # of iterations = 11.9

     negative rho (up, down):  2.907E-02 1.972E-02

     total cpu time spent up to now is    10131.5 secs

     total energy              =  -21094.89984604 Ry
     Harris-Foulkes estimate   =  -21094.90037811 Ry
     estimated scf accuracy    <       0.00024535 Ry

     total magnetization       =   161.60 Bohr mag/cell
     absolute magnetization    =   168.08 Bohr mag/cell

     iteration # 29     ecut=    60.00 Ry     beta= 0.20
     Davidson diagonalization with overlap
     ethr =  2.38E-08,  avg # of iterations =  5.9

     negative rho (up, down):  2.492E-02 1.951E-02

     total cpu time spent up to now is    10441.6 secs

     total energy              =  -21094.90040886 Ry
     Harris-Foulkes estimate   =  -21094.89988710 Ry
     estimated scf accuracy    <       0.00016107 Ry

     total magnetization       =   161.59 Bohr mag/cell
     absolute magnetization    =   168.10 Bohr mag/cell

     iteration # 30     ecut=    60.00 Ry     beta= 0.20
     Davidson diagonalization with overlap
     ethr =  1.56E-08,  avg # of iterations =  3.0

     negative rho (up, down):  2.233E-02 1.926E-02

     total cpu time spent up to now is    10630.9 secs

     total energy              =  -21094.90051902 Ry
     Harris-Foulkes estimate   =  -21094.90041920 Ry
     estimated scf accuracy    <       0.00011232 Ry

     total magnetization       =   161.61 Bohr mag/cell
     absolute magnetization    =   168.12 Bohr mag/cell

     iteration # 31     ecut=    60.00 Ry     beta= 0.20
     Davidson diagonalization with overlap
     ethr =  1.09E-08,  avg # of iterations =  2.6

     negative rho (up, down):  2.278E-02 1.951E-02

     total cpu time spent up to now is    10803.2 secs

     total energy              =  -21094.89958814 Ry
     Harris-Foulkes estimate   =  -21094.90052509 Ry
     estimated scf accuracy    <       0.00008879 Ry

     total magnetization       =   161.60 Bohr mag/cell
     absolute magnetization    =   168.10 Bohr mag/cell

     iteration # 32     ecut=    60.00 Ry     beta= 0.20
     Davidson diagonalization with overlap
     ethr =  8.61E-09,  avg # of iterations =  7.5

     negative rho (up, down):  2.455E-02 1.967E-02

     total cpu time spent up to now is    11043.7 secs

     total energy              =  -21094.89871474 Ry
     Harris-Foulkes estimate   =  -21094.89959763 Ry
     estimated scf accuracy    <       0.00004257 Ry

     total magnetization       =   161.62 Bohr mag/cell
     absolute magnetization    =   168.12 Bohr mag/cell

     iteration # 33     ecut=    60.00 Ry     beta= 0.20
     Davidson diagonalization with overlap
     ethr =  4.13E-09,  avg # of iterations = 12.9

     negative rho (up, down):  2.429E-02 1.953E-02

     total cpu time spent up to now is    11800.2 secs

     total energy              =  -21094.89880275 Ry
     Harris-Foulkes estimate   =  -21094.89874340 Ry
     estimated scf accuracy    <       0.00002014 Ry

     total magnetization       =   161.65 Bohr mag/cell
     absolute magnetization    =   168.18 Bohr mag/cell

     iteration # 34     ecut=    60.00 Ry     beta= 0.20
     Davidson diagonalization with overlap
     ethr =  1.95E-09,  avg # of iterations =  8.9

     negative rho (up, down):  2.482E-02 1.949E-02

     total cpu time spent up to now is    12277.1 secs

     total energy              =  -21094.89862454 Ry
     Harris-Foulkes estimate   =  -21094.89880544 Ry
     estimated scf accuracy    <       0.00001303 Ry

     total magnetization       =   161.65 Bohr mag/cell
     absolute magnetization    =   168.18 Bohr mag/cell

     iteration # 35     ecut=    60.00 Ry     beta= 0.20
     Davidson diagonalization with overlap
     ethr =  1.26E-09,  avg # of iterations =  4.5

     negative rho (up, down):  2.515E-02 1.946E-02

     total cpu time spent up to now is    12481.7 secs

     total energy              =  -21094.89824080 Ry
     Harris-Foulkes estimate   =  -21094.89862524 Ry
     estimated scf accuracy    <       0.00000772 Ry

     total magnetization       =   161.65 Bohr mag/cell
     absolute magnetization    =   168.17 Bohr mag/cell

     iteration # 36     ecut=    60.00 Ry     beta= 0.20
     Davidson diagonalization with overlap
     c_bands:  2 eigenvalues not converged
     ethr =  7.48E-10,  avg # of iterations =  9.3

     negative rho (up, down):  2.497E-02 1.945E-02

     total cpu time spent up to now is    13383.7 secs

     total energy              =  -21094.89818177 Ry
     Harris-Foulkes estimate   =  -21094.89824399 Ry
     estimated scf accuracy    <       0.00000430 Ry

     total magnetization       =   161.63 Bohr mag/cell
     absolute magnetization    =   168.15 Bohr mag/cell

     iteration # 37     ecut=    60.00 Ry     beta= 0.20
     Davidson diagonalization with overlap
     ethr =  4.17E-10,  avg # of iterations =  8.3

     negative rho (up, down):  2.485E-02 1.947E-02

     total cpu time spent up to now is    13641.8 secs

     total energy              =  -21094.89810479 Ry
     Harris-Foulkes estimate   =  -21094.89818232 Ry
     estimated scf accuracy    <       0.00000302 Ry

     total magnetization       =   161.63 Bohr mag/cell
     absolute magnetization    =   168.14 Bohr mag/cell

     iteration # 38     ecut=    60.00 Ry     beta= 0.20
     Davidson diagonalization with overlap
     ethr =  2.93E-10,  avg # of iterations =  5.0

     negative rho (up, down):  2.433E-02 1.947E-02

     total cpu time spent up to now is    13869.4 secs

     total energy              =  -21094.89786967 Ry
     Harris-Foulkes estimate   =  -21094.89810500 Ry
     estimated scf accuracy    <       0.00000217 Ry

     total magnetization       =   161.63 Bohr mag/cell
     absolute magnetization    =   168.15 Bohr mag/cell

     iteration # 39     ecut=    60.00 Ry     beta= 0.20
     Davidson diagonalization with overlap
     ethr =  2.11E-10,  avg # of iterations =  8.7

     negative rho (up, down):  2.431E-02 1.946E-02

     total cpu time spent up to now is    14362.8 secs

     total energy              =  -21094.89765477 Ry
     Harris-Foulkes estimate   =  -21094.89787025 Ry
     estimated scf accuracy    <       0.00000145 Ry

     total magnetization       =   161.64 Bohr mag/cell
     absolute magnetization    =   168.15 Bohr mag/cell

     iteration # 40     ecut=    60.00 Ry     beta= 0.20
     Davidson diagonalization with overlap
     ethr =  1.41E-10,  avg # of iterations =  7.2

     negative rho (up, down):  2.439E-02 1.947E-02

     total cpu time spent up to now is    14688.7 secs

     total energy              =  -21094.89760342 Ry
     Harris-Foulkes estimate   =  -21094.89765504 Ry
     estimated scf accuracy    <       0.00000031 Ry

     total magnetization       =   161.63 Bohr mag/cell
     absolute magnetization    =   168.15 Bohr mag/cell

     iteration # 41     ecut=    60.00 Ry     beta= 0.20
     Davidson diagonalization with overlap
     ethr =  2.97E-11,  avg # of iterations = 12.6

     negative rho (up, down):  2.439E-02 1.946E-02

     total cpu time spent up to now is    15344.0 secs

     total energy              =  -21094.89762288 Ry
     Harris-Foulkes estimate   =  -21094.89760373 Ry
     estimated scf accuracy    <       0.00000026 Ry

     total magnetization       =   161.63 Bohr mag/cell
     absolute magnetization    =   168.15 Bohr mag/cell

     iteration # 42     ecut=    60.00 Ry     beta= 0.20
     Davidson diagonalization with overlap
     ethr =  2.56E-11,  avg # of iterations =  5.0

     negative rho (up, down):  2.444E-02 1.947E-02

     total cpu time spent up to now is    15508.7 secs

     total energy              =  -21094.89760928 Ry
     Harris-Foulkes estimate   =  -21094.89762290 Ry
     estimated scf accuracy    <       0.00000012 Ry

     total magnetization       =   161.63 Bohr mag/cell
     absolute magnetization    =   168.15 Bohr mag/cell

     iteration # 43     ecut=    60.00 Ry     beta= 0.20
     Davidson diagonalization with overlap
     ethr =  1.13E-11,  avg # of iterations =  8.3

     negative rho (up, down):  2.454E-02 1.946E-02

     total cpu time spent up to now is    16081.2 secs

     total energy              =  -21094.89758082 Ry
     Harris-Foulkes estimate   =  -21094.89760930 Ry
     estimated scf accuracy    <       0.00000006 Ry

     total magnetization       =   161.63 Bohr mag/cell
     absolute magnetization    =   168.15 Bohr mag/cell

     iteration # 44     ecut=    60.00 Ry     beta= 0.20
     Davidson diagonalization with overlap
     ethr =  6.25E-12,  avg # of iterations =  8.4

     negative rho (up, down):  2.458E-02 1.947E-02

     total cpu time spent up to now is    16518.1 secs

     total energy              =  -21094.89754993 Ry
     Harris-Foulkes estimate   =  -21094.89758085 Ry
     estimated scf accuracy    <       0.00000006 Ry

     total magnetization       =   161.63 Bohr mag/cell
     absolute magnetization    =   168.15 Bohr mag/cell

     iteration # 45     ecut=    60.00 Ry     beta= 0.20
     Davidson diagonalization with overlap
     ethr =  5.61E-12,  avg # of iterations =  1.2

     negative rho (up, down):  2.461E-02 1.946E-02

     total cpu time spent up to now is    16653.9 secs

     total energy              =  -21094.89753551 Ry
     Harris-Foulkes estimate   =  -21094.89754993 Ry
     estimated scf accuracy    <       0.00000003 Ry

     total magnetization       =   161.63 Bohr mag/cell
     absolute magnetization    =   168.15 Bohr mag/cell

     iteration # 46     ecut=    60.00 Ry     beta= 0.20
     Davidson diagonalization with overlap
     ethr =  2.86E-12,  avg # of iterations =  5.5

     negative rho (up, down):  2.460E-02 1.946E-02

     Magnetic moment per site:
     atom:    1    charge:   13.2674    magn:    2.5015    constr:    0.0000
     atom:    2    charge:   13.2687    magn:    2.3343    constr:    0.0000
     atom:    3    charge:   13.2675    magn:    2.5098    constr:    0.0000
     atom:    4    charge:   13.2713    magn:    2.3082    constr:    0.0000
     atom:    5    charge:   13.2741    magn:    2.2928    constr:    0.0000
     atom:    6    charge:   13.2700    magn:    2.4935    constr:    0.0000
     atom:    7    charge:   13.2800    magn:    2.2542    constr:    0.0000
     atom:    8    charge:   13.2704    magn:    2.4890    constr:    0.0000
     atom:    9    charge:   13.2679    magn:    2.5010    constr:    0.0000
     atom:   10    charge:   13.2676    magn:    2.5056    constr:    0.0000
     atom:   11    charge:   13.2711    magn:    2.3009    constr:    0.0000
     atom:   12    charge:   13.2706    magn:    2.3053    constr:    0.0000
     atom:   13    charge:   13.2745    magn:    2.3072    constr:    0.0000
     atom:   14    charge:   13.2736    magn:    2.2939    constr:    0.0000
     atom:   15    charge:   13.2693    magn:    2.4983    constr:    0.0000
     atom:   16    charge:   13.2707    magn:    2.4950    constr:    0.0000
     atom:   17    charge:   13.2674    magn:    2.5098    constr:    0.0000
     atom:   18    charge:   13.2715    magn:    2.3083    constr:    0.0000
     atom:   19    charge:   13.2674    magn:    2.5098    constr:    0.0000
     atom:   20    charge:   13.2693    magn:    2.3433    constr:    0.0000
     atom:   21    charge:   13.2799    magn:    2.2539    constr:    0.0000
     atom:   22    charge:   13.2703    magn:    2.4888    constr:    0.0000
     atom:   23    charge:   13.2799    magn:    2.2540    constr:    0.0000
     atom:   24    charge:   13.2666    magn:    2.1767    constr:    0.0000
     atom:   25    charge:   13.2669    magn:    2.5122    constr:    0.0000
     atom:   26    charge:   13.2676    magn:    2.5082    constr:    0.0000
     atom:   27    charge:   13.2716    magn:    2.3160    constr:    0.0000
     atom:   28    charge:   13.2711    magn:    2.3010    constr:    0.0000
     atom:   29    charge:   13.2649    magn:    2.4163    constr:    0.0000
     atom:   30    charge:   13.2692    magn:    2.2318    constr:    0.0000
     atom:   31    charge:   13.2841    magn:    2.4638    constr:    0.0000
     atom:   32    charge:   13.2692    magn:    2.4984    constr:    0.0000
     atom:   33    charge:   13.2675    magn:    2.5015    constr:    0.0000
     atom:   34    charge:   13.2715    magn:    2.3083    constr:    0.0000
     atom:   35    charge:   13.2675    magn:    2.5015    constr:    0.0000
     atom:   36    charge:   13.2689    magn:    2.3344    constr:    0.0000
     atom:   37    charge:   13.2741    magn:    2.2931    constr:    0.0000
     atom:   38    charge:   13.2703    magn:    2.4889    constr:    0.0000
     atom:   39    charge:   13.2741    magn:    2.2930    constr:    0.0000
     atom:   40    charge:   13.2700    magn:    2.4934    constr:    0.0000
     atom:   41    charge:   13.2671    magn:    2.5225    constr:    0.0000
     atom:   42    charge:   13.2678    magn:    2.5083    constr:    0.0000
     atom:   43    charge:   13.2706    magn:    2.3053    constr:    0.0000
     atom:   44    charge:   13.2713    magn:    2.3011    constr:    0.0000
     atom:   45    charge:   13.2750    magn:    2.2742    constr:    0.0000
     atom:   46    charge:   13.2692    magn:    2.2319    constr:    0.0000
     atom:   47    charge:   13.2708    magn:    2.4949    constr:    0.0000
     atom:   48    charge:   13.2691    magn:    2.4988    constr:    0.0000
     atom:   49    charge:   13.2675    magn:    2.5098    constr:    0.0000
     atom:   50    charge:   13.2694    magn:    2.3435    constr:    0.0000
     atom:   51    charge:   13.2673    magn:    2.5015    constr:    0.0000
     atom:   52    charge:   13.2713    magn:    2.3083    constr:    0.0000
     atom:   53    charge:   13.2800    magn:    2.2542    constr:    0.0000
     atom:   54    charge:   13.2666    magn:    2.1766    constr:    0.0000
     atom:   55    charge:   13.2741    magn:    2.2928    constr:    0.0000
     atom:   56    charge:   13.2703    magn:    2.4892    constr:    0.0000
     atom:   57    charge:   13.2679    magn:    2.5010    constr:    0.0000
     atom:   58    charge:   13.2676    magn:    2.5056    constr:    0.0000
     atom:   59    charge:   13.2713    magn:    2.3011    constr:    0.0000
     atom:   60    charge:   13.2716    magn:    2.3160    constr:    0.0000
     atom:   61    charge:   13.2745    magn:    2.3072    constr:    0.0000
     atom:   62    charge:   13.2737    magn:    2.2939    constr:    0.0000
     atom:   63    charge:   13.2691    magn:    2.4987    constr:    0.0000
     atom:   64    charge:   13.2841    magn:    2.4635    constr:    0.0000
     atom:   65    charge:    1.3519    magn:   -0.0015    constr:    0.0000
     atom:   66    charge:    0.4394    magn:    0.0076    constr:    0.0000
     atom:   67    charge:    0.4394    magn:    0.0076    constr:    0.0000

     total cpu time spent up to now is    16933.5 secs

     End of self-consistent calculation

 ------ SPIN UP ------------


          k = 0.0000 0.0000 0.0000 (128403 PWs)   bands (ev):

   -90.7028 -90.6998 -90.6890 -90.6879 -90.6842 -90.6840 -90.6834 -90.6831
   -90.6827 -90.6803 -90.6759 -90.6737 -90.6733 -90.6676 -90.6676 -90.6650
   -90.6633 -90.6632 -90.6583 -90.6579 -90.6557 -90.6538 -90.6527 -90.6522
   -90.6499 -90.6485 -90.6452 -90.6452 -90.6437 -90.6420 -90.6381 -90.6295
   -90.6232 -90.5634 -90.5489 -90.5433 -90.5433 -90.5416 -90.5395 -90.5312
   -90.5278 -90.5261 -90.5242 -90.5220 -90.5189 -90.5176 -90.5139 -90.5138
   -90.5130 -90.5125 -90.5100 -90.5098 -90.5069 -90.5052 -90.5048 -90.5011
   -90.4949 -90.4915 -90.4913 -90.4802 -90.4760 -90.4759 -90.4747 -90.4656
   -56.9126 -56.8954 -56.8943 -56.8832 -56.8794 -56.8749 -56.8739 -56.8731
   -56.8726 -56.8684 -56.8680 -56.8648 -56.8643 -56.8628 -56.8589 -56.8588
   -56.8559 -56.8551 -56.8545 -56.8521 -56.8501 -56.8463 -56.8462 -56.8455
   -56.8454 -56.8427 -56.8355 -56.8336 -56.8334 -56.8310 -56.8242 -56.8228
   -56.8168 -56.8160 -56.8084 -56.8075 -56.8070 -56.8070 -56.7884 -56.7872
   -56.7867 -56.7850 -56.7844 -56.7823 -56.7810 -56.7810 -56.7511 -56.7342
   -56.7322 -56.7317 -56.7272 -56.7185 -56.7168 -56.7136 -56.7129 -56.7090
   -56.7085 -56.7085 -56.7080 -56.7037 -56.7002 -56.6996 -56.6989 -56.6987
   -56.6939 -56.6936 -56.6860 -56.6854 -56.6851 -56.6843 -56.6807 -56.6806
   -56.6784 -56.6734 -56.6726 -56.6660 -56.6623 -56.6621 -56.6553 -56.6545
   -56.6538 -56.6489 -56.6476 -56.6453 -56.6409 -56.6405 -56.6402 -56.6400
   -56.6361 -56.6356 -56.6349 -56.6319 -56.6296 -56.6288 -56.6282 -56.6237
   -56.6209 -56.6198 -56.6159 -56.6147 -56.6057 -56.6045 -56.6009 -56.5973
   -56.5965 -56.5964 -56.5923 -56.5876 -56.5861 -56.5854 -56.5825 -56.5803
   -56.5787 -56.5783 -56.5776 -56.5754 -56.5704 -56.5698 -56.5692 -56.5685
   -56.5664 -56.5658 -56.5627 -56.5618 -56.5612 -56.5570 -56.5562 -56.5557
   -56.5543 -56.5492 -56.5475 -56.5467 -56.5436 -56.5436 -56.5398 -56.5352
   -56.5323 -56.5310 -56.5305 -56.5292 -56.5282 -56.5268 -56.5261 -56.5221
   -56.5215 -56.5167 -56.5116 -56.5098 -56.5086 -56.5067 -56.5063 -56.4983
   -56.4978 -56.4942 -56.4859 -56.4852 -56.4847 -56.4843 -56.4837 -56.4823
   -56.4778 -56.4721 -56.4711 -56.4649 -56.4640 -56.4629 -56.4590 -56.4590
   -56.4577 -56.4545 -56.4478 -56.4476 -56.4465 -56.4429 -56.4427 -56.4326
   -56.4323 -56.4236 -56.4217 -56.4211 -56.4201 -56.4197 -56.4190 -56.4144
   -56.4143 -56.4137 -56.4126 -56.4124 -56.4111 -56.4076 -56.4064 -56.4053
   -19.9902 -11.1457 -10.5023  -9.7410  -9.1152  -8.8107  -8.7948  -8.7928
    -8.7286  -8.3208  -8.2848  -7.8978  -7.8318  -7.8032  -7.7942  -7.6906
    -7.3811  -7.3665  -7.3122  -7.2574  -7.1698  -7.1689  -7.1404  -7.1294
    -7.0886  -7.0735  -7.0622  -6.9932  -6.9635  -6.7288  -6.7253  -6.7034
    -6.6890  -6.6663  -6.6240  -6.6106  -6.5977  -6.5973  -6.5939  -6.5871
    -6.5764  -6.5749  -6.5717  -6.5652  -6.5650  -6.5630  -6.5566  -6.5542
    -6.5304  -6.5197  -6.5146  -6.5093  -6.4944  -6.4888  -6.4877  -6.4498
    -6.4412  -6.4004  -6.3812  -6.3749  -6.3632  -6.3288  -6.3111  -6.3071
    -6.2960  -6.2735  -6.0271  -6.0023  -5.9973  -5.9936  -5.9930  -5.9846
    -5.8836  -5.8740  -5.8716  -5.8281  -5.8173  -5.8166  -5.8148  -5.8108
    -5.8085  -5.7920  -5.7908  -5.7848  -5.7790  -5.7715  -5.7713  -5.7624
    -5.7600  -5.7578  -5.7558  -5.7350  -5.7339  -5.7337  -5.7205  -5.7105
    -5.7075  -5.7039  -5.7031  -5.6825  -5.6811  -5.6783  -5.6717  -5.6619
    -5.6481  -5.6387  -5.6327  -5.6137  -5.6128  -5.6102  -5.5892  -5.5870
    -5.5426  -5.4689  -5.4577  -5.4420  -5.4354  -5.4247  -5.4166  -5.4062
    -5.3502  -5.2946  -5.2419  -5.2408  -5.2403  -5.2312  -5.2231  -5.2224
    -5.2177  -5.1988  -5.1928  -5.1728  -5.1535  -5.1520  -5.1512  -5.1470
    -5.1402  -5.1095  -5.1089  -5.1039  -5.0979  -5.0954  -5.0936  -5.0900
    -5.0828  -5.0553  -5.0296  -5.0187  -4.9703  -4.9629  -4.9551  -4.9353
    -4.9352  -4.9345  -4.9319  -4.9213  -4.8942  -4.8791  -4.8694  -4.8430
    -4.8260  -4.8165  -4.7998  -4.7985  -4.7963  -4.7951  -4.7553  -4.7544
    -4.7431  -4.7193  -4.7175  -4.7104  -4.7094  -4.6969  -4.6944  -4.6745
    -4.6720  -4.6703  -4.6652  -4.6609  -4.6576  -4.6512  -4.6352  -4.6338
    -4.6242  -4.6149  -4.5574  -4.5279  -4.5213  -4.4957  -4.4229  -4.4139
    -4.2952  -4.2653  -4.1637  -4.1319  -4.1315  -4.1237  -4.1225  -4.1213
    -4.1177  -4.1104  -4.1009  -4.0996  -4.0819  -4.0564  -4.0387  -4.0353
    -4.0298  -4.0122  -4.0105  -3.9925  -3.9806  -3.9697  -3.9569  -3.9441
    -3.9424  -3.9268  -3.9250  -3.9166  -3.9146  -3.9106  -3.8811  -3.8757
    -3.8593  -3.8503  -3.8378  -3.8222  -3.8170  -3.8134  -3.8122  -3.7989
    -3.7928  -3.7862  -3.7820  -3.7812  -3.7794  -3.7716  -3.7696  -3.7513
    -3.7401  -3.7329  -3.7279  -3.7212  -3.7159  -3.7139  -3.7057  -3.7030
    -3.6997  -3.6970  -3.6926  -3.6926  -3.6917  -3.6898  -3.6774  -3.6760
    -3.6706  -3.6617  -3.6598  -3.6591  -3.6576  -3.6564  -3.6511  -3.6426
    -3.6354  -3.6271  -3.6268  -3.6225  -3.6161  -3.6114  -3.5887  -3.5882
    -3.5865  -3.5855  -3.5804  -3.5733  -3.5715  -3.5661  -3.5653  -3.5590
    -3.5533  -3.5295  -3.5290  -3.5286  -3.5092  -3.4867  -3.4720  -3.4617
    -3.4553  -3.4548  -3.4318  -3.4235  -3.4226  -3.3886  -3.3700  -3.3223
    -3.3107  -3.3071  -3.3019  -3.3002  -3.2972  -3.2835  -3.2784  -3.2748
    -3.2732  -3.2709  -3.2547  -3.2481  -3.2481  -3.2401  -3.2348  -3.2345
    -3.2193  -3.2191  -3.2107  -3.1244  -3.1217  -3.1135  -2.9722  -2.8216
    -2.8083  -2.7867  -2.7603  -2.7408  -2.7205  -2.6919  -2.6919  -2.6822
    -2.6251  -2.6239  -2.5919  -2.5593  -2.5540  -2.5521  -2.5412  -2.4954
    -2.4733  -2.4697  -2.4501  -2.4341  -2.3359  -2.3301  -2.3119  -2.2335
    -2.2324  -2.1664  -2.1575  -2.1388  -1.8929  -1.5318  -1.5152  -1.5068
    -1.5054  -1.3990  -1.3223  -1.1305  -0.6793  -0.6208  -0.5901  -0.5882
    -0.5800  -0.5397  -0.5370

          k = 0.0000 0.2652 0.0000 (128375 PWs)   bands (ev):

   -90.7015 -90.6987 -90.6924 -90.6900 -90.6855 -90.6852 -90.6821 -90.6810
   -90.6795 -90.6791 -90.6769 -90.6763 -90.6727 -90.6688 -90.6675 -90.6633
   -90.6631 -90.6608 -90.6598 -90.6592 -90.6556 -90.6539 -90.6538 -90.6500
   -90.6490 -90.6480 -90.6470 -90.6456 -90.6429 -90.6427 -90.6375 -90.6299
   -90.6233 -90.5622 -90.5520 -90.5455 -90.5426 -90.5397 -90.5361 -90.5328
   -90.5274 -90.5264 -90.5238 -90.5225 -90.5191 -90.5171 -90.5151 -90.5140
   -90.5134 -90.5127 -90.5112 -90.5084 -90.5068 -90.5044 -90.5036 -90.5014
   -90.4962 -90.4922 -90.4901 -90.4805 -90.4773 -90.4755 -90.4727 -90.4665
   -56.9108 -56.8957 -56.8934 -56.8851 -56.8817 -56.8768 -56.8760 -56.8713
   -56.8704 -56.8684 -56.8670 -56.8643 -56.8636 -56.8620 -56.8594 -56.8575
   -56.8563 -56.8552 -56.8538 -56.8520 -56.8494 -56.8482 -56.8474 -56.8455
   -56.8427 -56.8399 -56.8365 -56.8349 -56.8330 -56.8306 -56.8215 -56.8178
   -56.8148 -56.8116 -56.8070 -56.8052 -56.8025 -56.7978 -56.7949 -56.7890
   -56.7868 -56.7845 -56.7821 -56.7780 -56.7728 -56.7700 -56.7527 -56.7466
   -56.7404 -56.7330 -56.7297 -56.7266 -56.7255 -56.7234 -56.7220 -56.7145
   -56.7111 -56.7071 -56.7051 -56.7026 -56.7024 -56.7014 -56.6988 -56.6977
   -56.6960 -56.6935 -56.6924 -56.6902 -56.6894 -56.6854 -56.6822 -56.6807
   -56.6780 -56.6776 -56.6747 -56.6742 -56.6720 -56.6647 -56.6636 -56.6595
   -56.6573 -56.6534 -56.6497 -56.6475 -56.6462 -56.6451 -56.6395 -56.6358
   -56.6323 -56.6295 -56.6274 -56.6244 -56.6240 -56.6215 -56.6209 -56.6185
   -56.6166 -56.6129 -56.6115 -56.6093 -56.6084 -56.6042 -56.6032 -56.6011
   -56.5950 -56.5939 -56.5930 -56.5885 -56.5877 -56.5866 -56.5852 -56.5827
   -56.5814 -56.5803 -56.5787 -56.5772 -56.5747 -56.5737 -56.5705 -56.5692
   -56.5681 -56.5641 -56.5620 -56.5607 -56.5557 -56.5535 -56.5520 -56.5495
   -56.5482 -56.5472 -56.5461 -56.5429 -56.5389 -56.5377 -56.5369 -56.5342
   -56.5339 -56.5310 -56.5295 -56.5251 -56.5246 -56.5235 -56.5229 -56.5191
   -56.5151 -56.5135 -56.5106 -56.5097 -56.5070 -56.5048 -56.5041 -56.5035
   -56.4930 -56.4918 -56.4889 -56.4874 -56.4856 -56.4842 -56.4836 -56.4810
   -56.4774 -56.4745 -56.4700 -56.4649 -56.4632 -56.4619 -56.4590 -56.4573
   -56.4507 -56.4493 -56.4478 -56.4466 -56.4442 -56.4419 -56.4407 -56.4335
   -56.4331 -56.4269 -56.4262 -56.4249 -56.4230 -56.4221 -56.4219 -56.4204
   -56.4189 -56.4168 -56.4161 -56.4136 -56.4122 -56.4111 -56.4087 -56.4067
   -19.9902 -11.1462 -10.3902  -9.7551  -9.4331  -9.0320  -8.9046  -8.6565
    -8.4711  -8.2954  -8.0781  -7.9040  -7.8458  -7.7031  -7.6136  -7.5840
    -7.4761  -7.4256  -7.2919  -7.2363  -7.2036  -7.1313  -7.1060  -7.0817
    -7.0722  -7.0444  -7.0196  -7.0094  -6.9910  -6.8725  -6.7941  -6.7507
    -6.7377  -6.7311  -6.7075  -6.7039  -6.6863  -6.6822  -6.6710  -6.6674
    -6.6346  -6.6317  -6.6149  -6.6038  -6.5901  -6.5734  -6.5614  -6.5538
    -6.5326  -6.5164  -6.5099  -6.4978  -6.4575  -6.4495  -6.4351  -6.4195
    -6.4117  -6.4087  -6.4007  -6.3669  -6.3543  -6.2766  -6.2462  -6.2354
    -6.2307  -6.1966  -6.1884  -6.1009  -6.0604  -6.0368  -5.9976  -5.9636
    -5.9401  -5.9341  -5.8927  -5.8457  -5.8347  -5.8315  -5.8209  -5.8024
    -5.7976  -5.7820  -5.7770  -5.7739  -5.7709  -5.7675  -5.7597  -5.7498
    -5.7436  -5.7352  -5.7280  -5.7177  -5.7115  -5.7022  -5.6939  -5.6866
    -5.6795  -5.6762  -5.6730  -5.6691  -5.6654  -5.6571  -5.6522  -5.6316
    -5.6045  -5.5954  -5.5756  -5.5736  -5.5655  -5.5453  -5.5403  -5.5329
    -5.5286  -5.5112  -5.5030  -5.4810  -5.4294  -5.4080  -5.3933  -5.3765
    -5.3369  -5.3285  -5.3172  -5.3117  -5.2952  -5.2372  -5.2317  -5.2224
    -5.2137  -5.2052  -5.2038  -5.1902  -5.1839  -5.1780  -5.1746  -5.1693
    -5.1528  -5.1438  -5.1268  -5.1220  -5.1165  -5.0862  -5.0768  -5.0694
    -5.0659  -5.0303  -5.0187  -4.9891  -4.9808  -4.9742  -4.9601  -4.9491
    -4.9386  -4.9315  -4.9297  -4.9165  -4.9100  -4.9072  -4.8939  -4.8806
    -4.8779  -4.8755  -4.8657  -4.8582  -4.8433  -4.8204  -4.8029  -4.7735
    -4.7553  -4.7474  -4.7276  -4.7213  -4.7098  -4.6929  -4.6858  -4.6710
    -4.6671  -4.6529  -4.6298  -4.6228  -4.6083  -4.5710  -4.5598  -4.5455
    -4.5301  -4.5011  -4.4641  -4.4551  -4.4461  -4.4245  -4.3563  -4.2816
    -4.2556  -4.2501  -4.2152  -4.2001  -4.1912  -4.1670  -4.1503  -4.1414
    -4.1223  -4.1134  -4.1077  -4.0906  -4.0865  -4.0825  -4.0643  -4.0620
    -4.0504  -4.0373  -4.0256  -4.0073  -3.9998  -3.9760  -3.9558  -3.9499
    -3.9427  -3.9249  -3.9155  -3.9094  -3.8982  -3.8967  -3.8862  -3.8831
    -3.8790  -3.8702  -3.8607  -3.8538  -3.8471  -3.8353  -3.8205  -3.8039
    -3.7979  -3.7884  -3.7799  -3.7719  -3.7673  -3.7601  -3.7581  -3.7512
    -3.7425  -3.7376  -3.7345  -3.7291  -3.7211  -3.7131  -3.7113  -3.7029
    -3.6994  -3.6894  -3.6849  -3.6771  -3.6734  -3.6595  -3.6564  -3.6531
    -3.6510  -3.6433  -3.6403  -3.6384  -3.6341  -3.6315  -3.6244  -3.6166
    -3.6095  -3.6065  -3.5982  -3.5952  -3.5875  -3.5827  -3.5780  -3.5734
    -3.5679  -3.5646  -3.5592  -3.5476  -3.5454  -3.5355  -3.5216  -3.5178
    -3.5128  -3.4927  -3.4891  -3.4708  -3.4528  -3.4392  -3.4360  -3.4225
    -3.4152  -3.4123  -3.4079  -3.3939  -3.3856  -3.3817  -3.3783  -3.3765
    -3.3559  -3.3400  -3.3149  -3.3090  -3.2992  -3.2956  -3.2894  -3.2838
    -3.2673  -3.2661  -3.2527  -3.2489  -3.2416  -3.2334  -3.2109  -3.1714
    -3.1523  -3.1143  -3.1001  -3.0788  -3.0283  -2.8818  -2.8649  -2.8594
    -2.8462  -2.8299  -2.8158  -2.8022  -2.7920  -2.7726  -2.7352  -2.7075
    -2.6959  -2.6890  -2.6782  -2.6712  -2.6579  -2.6472  -2.6319  -2.6195
    -2.5856  -2.5796  -2.5628  -2.5270  -2.4963  -2.4743  -2.4656  -2.4051
    -2.3158  -2.0918  -2.0587  -1.8521  -1.8192  -1.6775  -1.6297  -1.5159
    -1.3730  -1.3702  -1.2516  -1.1951  -1.1373  -1.0587  -0.9971  -0.9034
    -0.7301  -0.6805  -0.5939

          k = 0.0000-0.5303 0.0000 (128388 PWs)   bands (ev):

   -90.6978 -90.6977 -90.6967 -90.6930 -90.6852 -90.6843 -90.6816 -90.6801
   -90.6795 -90.6792 -90.6767 -90.6766 -90.6726 -90.6710 -90.6651 -90.6636
   -90.6631 -90.6597 -90.6594 -90.6594 -90.6568 -90.6556 -90.6515 -90.6507
   -90.6484 -90.6480 -90.6456 -90.6452 -90.6449 -90.6431 -90.6367 -90.6304
   -90.6233 -90.5601 -90.5557 -90.5448 -90.5439 -90.5369 -90.5362 -90.5309
   -90.5302 -90.5260 -90.5244 -90.5205 -90.5197 -90.5177 -90.5152 -90.5139
   -90.5135 -90.5132 -90.5126 -90.5081 -90.5054 -90.5050 -90.5024 -90.4998
   -90.4987 -90.4924 -90.4895 -90.4807 -90.4778 -90.4754 -90.4702 -90.4683
   -56.9084 -56.8973 -56.8905 -56.8893 -56.8828 -56.8776 -56.8759 -56.8724
   -56.8690 -56.8667 -56.8666 -56.8655 -56.8622 -56.8620 -56.8600 -56.8578
   -56.8549 -56.8537 -56.8523 -56.8510 -56.8503 -56.8493 -56.8478 -56.8464
   -56.8407 -56.8382 -56.8362 -56.8358 -56.8342 -56.8300 -56.8202 -56.8142
   -56.8070 -56.8031 -56.8022 -56.8021 -56.7982 -56.7975 -56.7963 -56.7952
   -56.7833 -56.7815 -56.7714 -56.7680 -56.7651 -56.7623 -56.7573 -56.7567
   -56.7493 -56.7448 -56.7435 -56.7421 -56.7345 -56.7300 -56.7264 -56.7246
   -56.7205 -56.7114 -56.7056 -56.7042 -56.7021 -56.6977 -56.6972 -56.6967
   -56.6924 -56.6916 -56.6910 -56.6895 -56.6872 -56.6824 -56.6808 -56.6802
   -56.6759 -56.6749 -56.6735 -56.6729 -56.6706 -56.6691 -56.6646 -56.6624
   -56.6602 -56.6600 -56.6573 -56.6566 -56.6525 -56.6514 -56.6491 -56.6469
   -56.6450 -56.6397 -56.6290 -56.6251 -56.6211 -56.6191 -56.6182 -56.6145
   -56.6113 -56.6109 -56.6087 -56.6037 -56.6019 -56.5981 -56.5960 -56.5925
   -56.5902 -56.5885 -56.5858 -56.5850 -56.5824 -56.5824 -56.5820 -56.5808
   -56.5800 -56.5789 -56.5780 -56.5745 -56.5722 -56.5711 -56.5708 -56.5675
   -56.5671 -56.5651 -56.5651 -56.5607 -56.5603 -56.5600 -56.5568 -56.5541
   -56.5506 -56.5456 -56.5433 -56.5413 -56.5398 -56.5397 -56.5336 -56.5332
   -56.5316 -56.5301 -56.5289 -56.5222 -56.5183 -56.5182 -56.5180 -56.5174
   -56.5136 -56.5122 -56.5085 -56.5077 -56.5052 -56.5048 -56.5017 -56.5001
   -56.4956 -56.4956 -56.4943 -56.4871 -56.4855 -56.4835 -56.4825 -56.4783
   -56.4747 -56.4698 -56.4683 -56.4635 -56.4624 -56.4552 -56.4510 -56.4479
   -56.4478 -56.4432 -56.4428 -56.4428 -56.4414 -56.4399 -56.4388 -56.4380
   -56.4375 -56.4354 -56.4349 -56.4337 -56.4293 -56.4286 -56.4275 -56.4261
   -56.4241 -56.4235 -56.4176 -56.4139 -56.4139 -56.4128 -56.4088 -56.4077
   -19.9902 -11.1467 -10.1164 -10.0143  -9.6235  -8.8982  -8.8809  -8.8144
    -8.6326  -8.0239  -7.9943  -7.8527  -7.7880  -7.5439  -7.4893  -7.4695
    -7.3923  -7.3850  -7.3285  -7.3273  -7.2184  -7.2017  -7.1773  -7.0666
    -7.0466  -7.0180  -6.9514  -6.9376  -6.9314  -6.9283  -6.9197  -6.8914
    -6.8910  -6.8842  -6.8710  -6.8674  -6.7886  -6.7839  -6.7134  -6.7124
    -6.6535  -6.6322  -6.5692  -6.5686  -6.5666  -6.5607  -6.5000  -6.4845
    -6.4811  -6.4764  -6.4622  -6.4589  -6.4573  -6.4398  -6.4346  -6.4315
    -6.4065  -6.3812  -6.3221  -6.3088  -6.2991  -6.2974  -6.2848  -6.2842
    -6.2403  -6.2273  -6.1949  -6.1747  -6.1248  -6.1160  -6.0761  -6.0748
    -6.0148  -5.9634  -5.8776  -5.8596  -5.8234  -5.8230  -5.8067  -5.7975
    -5.7870  -5.7855  -5.7737  -5.7691  -5.7582  -5.7486  -5.7456  -5.7423
    -5.7279  -5.7235  -5.7202  -5.7136  -5.7108  -5.7025  -5.6984  -5.6921
    -5.6578  -5.6575  -5.6106  -5.6083  -5.5853  -5.5811  -5.5680  -5.5654
    -5.5454  -5.5362  -5.5313  -5.5294  -5.5245  -5.5158  -5.5097  -5.5081
    -5.5049  -5.5018  -5.4949  -5.4908  -5.4586  -5.4499  -5.4474  -5.4363
    -5.4181  -5.3963  -5.3099  -5.2869  -5.2579  -5.2396  -5.2036  -5.2025
    -5.1931  -5.1928  -5.1869  -5.1829  -5.1730  -5.1729  -5.1693  -5.1658
    -5.1559  -5.1484  -5.1434  -5.1355  -5.1346  -5.1310  -5.1079  -5.1064
    -5.0972  -5.0927  -5.0774  -5.0720  -5.0381  -5.0326  -5.0276  -5.0213
    -5.0040  -5.0033  -4.9714  -4.9686  -4.9649  -4.9528  -4.9377  -4.9282
    -4.8996  -4.8909  -4.8752  -4.8545  -4.8379  -4.8349  -4.8211  -4.7257
    -4.7083  -4.7056  -4.6886  -4.6868  -4.6855  -4.6694  -4.6600  -4.6558
    -4.6345  -4.6247  -4.5920  -4.5843  -4.5194  -4.4481  -4.3905  -4.3794
    -4.3752  -4.3697  -4.3428  -4.3389  -4.3332  -4.3290  -4.3014  -4.2703
    -4.2361  -4.2316  -4.2267  -4.2060  -4.2024  -4.2023  -4.1966  -4.1896
    -4.1788  -4.1753  -4.1618  -4.1611  -4.1530  -4.1504  -4.1169  -4.0638
    -4.0597  -4.0475  -4.0466  -4.0162  -4.0149  -4.0039  -3.9960  -3.9917
    -3.9714  -3.9569  -3.9245  -3.9068  -3.8961  -3.8927  -3.8848  -3.8845
    -3.8772  -3.8707  -3.8684  -3.8640  -3.8605  -3.8541  -3.8519  -3.8483
    -3.8362  -3.8351  -3.8332  -3.8261  -3.8168  -3.8051  -3.7716  -3.7638
    -3.7534  -3.7397  -3.7107  -3.7103  -3.7096  -3.7021  -3.6980  -3.6881
    -3.6845  -3.6772  -3.6747  -3.6720  -3.6644  -3.6635  -3.6605  -3.6590
    -3.6522  -3.6441  -3.6436  -3.6277  -3.6216  -3.6111  -3.6051  -3.5919
    -3.5894  -3.5837  -3.5755  -3.5659  -3.5409  -3.5371  -3.5219  -3.5211
    -3.5159  -3.5132  -3.4980  -3.4947  -3.4800  -3.4734  -3.4549  -3.4365
    -3.4315  -3.4309  -3.4300  -3.4290  -3.4237  -3.4184  -3.4161  -3.4094
    -3.4063  -3.4041  -3.3962  -3.3947  -3.3921  -3.3869  -3.3839  -3.3791
    -3.3764  -3.3689  -3.3292  -3.3273  -3.3159  -3.2854  -3.2479  -3.2462
    -3.1951  -3.1918  -3.1706  -3.1414  -3.1348  -3.1202  -3.1193  -3.0612
    -3.0110  -3.0029  -2.9896  -2.9815  -2.9771  -2.9658  -2.9187  -2.9163
    -2.9101  -2.9087  -2.8888  -2.8655  -2.8482  -2.8433  -2.8380  -2.8226
    -2.7685  -2.7564  -2.7409  -2.7179  -2.6988  -2.6950  -2.6706  -2.6533
    -2.6340  -2.6274  -2.6131  -2.6047  -2.6003  -2.5853  -2.5847  -2.5676
    -2.4687  -2.3186  -2.2337  -2.1934  -2.0421  -1.9230  -1.5907  -1.5702
    -1.3625  -1.3412  -0.9475  -0.9215  -0.8827  -0.8411  -0.7990  -0.7522
    -0.7375  -0.7317  -0.6862

          k = 0.2500-0.0884 0.0000 (128371 PWs)   bands (ev):

   -90.7015 -90.6987 -90.6924 -90.6900 -90.6855 -90.6852 -90.6821 -90.6810
   -90.6795 -90.6791 -90.6769 -90.6763 -90.6727 -90.6688 -90.6675 -90.6633
   -90.6631 -90.6607 -90.6598 -90.6592 -90.6557 -90.6539 -90.6538 -90.6500
   -90.6490 -90.6480 -90.6470 -90.6456 -90.6429 -90.6427 -90.6375 -90.6299
   -90.6233 -90.5622 -90.5520 -90.5455 -90.5426 -90.5397 -90.5361 -90.5328
   -90.5274 -90.5264 -90.5238 -90.5225 -90.5191 -90.5171 -90.5151 -90.5140
   -90.5134 -90.5127 -90.5112 -90.5084 -90.5068 -90.5044 -90.5036 -90.5014
   -90.4962 -90.4922 -90.4901 -90.4805 -90.4773 -90.4755 -90.4727 -90.4665
   -56.9108 -56.8957 -56.8934 -56.8851 -56.8817 -56.8768 -56.8760 -56.8713
   -56.8704 -56.8684 -56.8670 -56.8643 -56.8636 -56.8620 -56.8594 -56.8575
   -56.8563 -56.8552 -56.8538 -56.8520 -56.8494 -56.8482 -56.8474 -56.8455
   -56.8427 -56.8399 -56.8366 -56.8349 -56.8330 -56.8306 -56.8215 -56.8178
   -56.8148 -56.8116 -56.8070 -56.8052 -56.8025 -56.7978 -56.7949 -56.7890
   -56.7868 -56.7845 -56.7821 -56.7780 -56.7728 -56.7700 -56.7527 -56.7466
   -56.7404 -56.7330 -56.7297 -56.7266 -56.7255 -56.7234 -56.7220 -56.7145
   -56.7111 -56.7071 -56.7051 -56.7026 -56.7024 -56.7014 -56.6988 -56.6977
   -56.6960 -56.6935 -56.6924 -56.6902 -56.6894 -56.6854 -56.6822 -56.6807
   -56.6780 -56.6776 -56.6747 -56.6742 -56.6720 -56.6647 -56.6636 -56.6595
   -56.6573 -56.6534 -56.6497 -56.6475 -56.6462 -56.6451 -56.6395 -56.6358
   -56.6323 -56.6295 -56.6274 -56.6244 -56.6240 -56.6215 -56.6209 -56.6185
   -56.6166 -56.6129 -56.6115 -56.6093 -56.6084 -56.6042 -56.6032 -56.6011
   -56.5950 -56.5939 -56.5930 -56.5885 -56.5877 -56.5866 -56.5852 -56.5827
   -56.5814 -56.5803 -56.5787 -56.5772 -56.5747 -56.5737 -56.5705 -56.5692
   -56.5681 -56.5641 -56.5620 -56.5607 -56.5557 -56.5535 -56.5520 -56.5495
   -56.5482 -56.5472 -56.5461 -56.5429 -56.5389 -56.5377 -56.5369 -56.5342
   -56.5339 -56.5310 -56.5295 -56.5251 -56.5246 -56.5235 -56.5229 -56.5191
   -56.5151 -56.5135 -56.5106 -56.5097 -56.5070 -56.5048 -56.5041 -56.5035
   -56.4930 -56.4918 -56.4889 -56.4874 -56.4856 -56.4842 -56.4836 -56.4810
   -56.4774 -56.4745 -56.4700 -56.4649 -56.4632 -56.4619 -56.4589 -56.4573
   -56.4507 -56.4493 -56.4478 -56.4466 -56.4442 -56.4419 -56.4407 -56.4335
   -56.4331 -56.4269 -56.4262 -56.4249 -56.4230 -56.4221 -56.4219 -56.4204
   -56.4190 -56.4168 -56.4161 -56.4136 -56.4122 -56.4111 -56.4087 -56.4067
   -19.9902 -11.1462 -10.3902  -9.7551  -9.4331  -9.0320  -8.9046  -8.6565
    -8.4711  -8.2955  -8.0781  -7.9039  -7.8458  -7.7031  -7.6136  -7.5839
    -7.4761  -7.4257  -7.2919  -7.2364  -7.2036  -7.1313  -7.1060  -7.0817
    -7.0723  -7.0444  -7.0196  -7.0094  -6.9910  -6.8725  -6.7941  -6.7507
    -6.7377  -6.7311  -6.7075  -6.7039  -6.6863  -6.6822  -6.6710  -6.6674
    -6.6345  -6.6316  -6.6149  -6.6037  -6.5901  -6.5734  -6.5614  -6.5538
    -6.5326  -6.5164  -6.5099  -6.4978  -6.4575  -6.4495  -6.4351  -6.4195
    -6.4117  -6.4087  -6.4007  -6.3669  -6.3542  -6.2766  -6.2462  -6.2354
    -6.2307  -6.1966  -6.1885  -6.1009  -6.0605  -6.0368  -5.9976  -5.9636
    -5.9401  -5.9341  -5.8927  -5.8457  -5.8347  -5.8315  -5.8209  -5.8024
    -5.7976  -5.7820  -5.7770  -5.7739  -5.7709  -5.7675  -5.7597  -5.7498
    -5.7436  -5.7352  -5.7280  -5.7177  -5.7115  -5.7021  -5.6939  -5.6866
    -5.6795  -5.6762  -5.6730  -5.6691  -5.6654  -5.6571  -5.6522  -5.6316
    -5.6046  -5.5954  -5.5756  -5.5736  -5.5655  -5.5453  -5.5403  -5.5330
    -5.5286  -5.5112  -5.5030  -5.4810  -5.4294  -5.4080  -5.3933  -5.3765
    -5.3369  -5.3285  -5.3172  -5.3117  -5.2952  -5.2372  -5.2317  -5.2224
    -5.2137  -5.2052  -5.2038  -5.1902  -5.1839  -5.1780  -5.1746  -5.1693
    -5.1528  -5.1438  -5.1268  -5.1220  -5.1165  -5.0862  -5.0768  -5.0694
    -5.0659  -5.0303  -5.0187  -4.9891  -4.9808  -4.9742  -4.9601  -4.9491
    -4.9386  -4.9316  -4.9298  -4.9165  -4.9100  -4.9072  -4.8939  -4.8806
    -4.8779  -4.8756  -4.8657  -4.8582  -4.8433  -4.8203  -4.8028  -4.7735
    -4.7553  -4.7474  -4.7276  -4.7213  -4.7098  -4.6929  -4.6857  -4.6710
    -4.6671  -4.6529  -4.6299  -4.6228  -4.6083  -4.5710  -4.5597  -4.5455
    -4.5301  -4.5011  -4.4642  -4.4551  -4.4461  -4.4245  -4.3563  -4.2816
    -4.2556  -4.2501  -4.2152  -4.2001  -4.1912  -4.1670  -4.1503  -4.1414
    -4.1223  -4.1134  -4.1077  -4.0906  -4.0865  -4.0825  -4.0643  -4.0620
    -4.0504  -4.0373  -4.0256  -4.0073  -3.9998  -3.9760  -3.9558  -3.9499
    -3.9427  -3.9249  -3.9155  -3.9095  -3.8982  -3.8967  -3.8862  -3.8831
    -3.8790  -3.8702  -3.8607  -3.8538  -3.8470  -3.8353  -3.8205  -3.8039
    -3.7980  -3.7885  -3.7799  -3.7719  -3.7673  -3.7601  -3.7581  -3.7512
    -3.7425  -3.7376  -3.7345  -3.7291  -3.7211  -3.7131  -3.7112  -3.7029
    -3.6994  -3.6894  -3.6849  -3.6771  -3.6734  -3.6595  -3.6564  -3.6531
    -3.6510  -3.6433  -3.6403  -3.6384  -3.6341  -3.6315  -3.6244  -3.6166
    -3.6095  -3.6065  -3.5982  -3.5952  -3.5875  -3.5827  -3.5779  -3.5734
    -3.5679  -3.5646  -3.5592  -3.5476  -3.5454  -3.5355  -3.5217  -3.5178
    -3.5128  -3.4927  -3.4891  -3.4708  -3.4528  -3.4392  -3.4360  -3.4225
    -3.4152  -3.4123  -3.4079  -3.3939  -3.3856  -3.3817  -3.3783  -3.3765
    -3.3559  -3.3400  -3.3149  -3.3090  -3.2992  -3.2956  -3.2894  -3.2838
    -3.2673  -3.2661  -3.2527  -3.2489  -3.2416  -3.2334  -3.2109  -3.1715
    -3.1522  -3.1143  -3.1001  -3.0789  -3.0283  -2.8818  -2.8649  -2.8594
    -2.8463  -2.8299  -2.8158  -2.8022  -2.7920  -2.7726  -2.7352  -2.7074
    -2.6959  -2.6890  -2.6782  -2.6712  -2.6578  -2.6472  -2.6319  -2.6195
    -2.5856  -2.5796  -2.5628  -2.5270  -2.4963  -2.4744  -2.4656  -2.4051
    -2.3158  -2.0919  -2.0587  -1.8521  -1.8192  -1.6775  -1.6297  -1.5159
    -1.3729  -1.3702  -1.2516  -1.1951  -1.1373  -1.0586  -0.9971  -0.9032
    -0.7281  -0.6789  -0.5934

          k = 0.2500 0.1768 0.0000 (128340 PWs)   bands (ev):

   -90.7006 -90.6980 -90.6916 -90.6894 -90.6878 -90.6873 -90.6847 -90.6815
   -90.6785 -90.6784 -90.6769 -90.6767 -90.6684 -90.6677 -90.6675 -90.6635
   -90.6629 -90.6625 -90.6596 -90.6593 -90.6590 -90.6511 -90.6509 -90.6502
   -90.6485 -90.6483 -90.6479 -90.6478 -90.6443 -90.6407 -90.6372 -90.6304
   -90.6233 -90.5615 -90.5509 -90.5482 -90.5442 -90.5380 -90.5380 -90.5311
   -90.5270 -90.5243 -90.5233 -90.5210 -90.5200 -90.5186 -90.5140 -90.5137
   -90.5135 -90.5126 -90.5123 -90.5079 -90.5074 -90.5070 -90.5027 -90.5024
   -90.4940 -90.4934 -90.4895 -90.4797 -90.4781 -90.4739 -90.4735 -90.4671
   -56.9100 -56.8960 -56.8922 -56.8833 -56.8817 -56.8802 -56.8767 -56.8733
   -56.8692 -56.8677 -56.8671 -56.8625 -56.8622 -56.8620 -56.8575 -56.8569
   -56.8562 -56.8552 -56.8549 -56.8530 -56.8515 -56.8505 -56.8462 -56.8457
   -56.8421 -56.8391 -56.8364 -56.8351 -56.8338 -56.8288 -56.8209 -56.8139
   -56.8114 -56.8063 -56.8031 -56.7999 -56.7988 -56.7976 -56.7831 -56.7823
   -56.7808 -56.7794 -56.7785 -56.7758 -56.7748 -56.7741 -56.7550 -56.7439
   -56.7413 -56.7390 -56.7374 -56.7346 -56.7342 -56.7296 -56.7281 -56.7231
   -56.7212 -56.7177 -56.7163 -56.7139 -56.7115 -56.7011 -56.6986 -56.6968
   -56.6966 -56.6931 -56.6915 -56.6907 -56.6902 -56.6891 -56.6846 -56.6828
   -56.6803 -56.6798 -56.6755 -56.6742 -56.6673 -56.6646 -56.6622 -56.6588
   -56.6561 -56.6544 -56.6499 -56.6461 -56.6443 -56.6423 -56.6388 -56.6378
   -56.6371 -56.6340 -56.6281 -56.6258 -56.6233 -56.6206 -56.6184 -56.6146
   -56.6122 -56.6087 -56.6074 -56.6036 -56.6019 -56.6014 -56.6009 -56.5993
   -56.5983 -56.5974 -56.5957 -56.5944 -56.5937 -56.5905 -56.5875 -56.5836
   -56.5821 -56.5815 -56.5753 -56.5751 -56.5730 -56.5684 -56.5680 -56.5666
   -56.5657 -56.5638 -56.5591 -56.5589 -56.5571 -56.5537 -56.5524 -56.5513
   -56.5482 -56.5437 -56.5426 -56.5386 -56.5371 -56.5360 -56.5344 -56.5327
   -56.5304 -56.5286 -56.5275 -56.5199 -56.5189 -56.5170 -56.5162 -56.5160
   -56.5131 -56.5128 -56.5114 -56.5107 -56.5091 -56.5089 -56.5053 -56.4998
   -56.4977 -56.4952 -56.4906 -56.4845 -56.4837 -56.4832 -56.4793 -56.4767
   -56.4721 -56.4666 -56.4662 -56.4650 -56.4645 -56.4594 -56.4567 -56.4557
   -56.4533 -56.4485 -56.4469 -56.4465 -56.4449 -56.4425 -56.4415 -56.4354
   -56.4332 -56.4284 -56.4279 -56.4265 -56.4250 -56.4247 -56.4241 -56.4231
   -56.4218 -56.4211 -56.4199 -56.4181 -56.4170 -56.4139 -56.4124 -56.4093
   -19.9902 -11.1469 -10.3521  -9.7374  -9.1757  -9.1619  -9.1348  -8.9289
    -8.2332  -8.2055  -8.0939  -8.0462  -7.9541  -7.6603  -7.5697  -7.5212
    -7.4179  -7.2698  -7.2248  -7.1315  -7.1289  -7.1286  -7.0863  -7.0599
    -7.0177  -7.0065  -7.0057  -6.9879  -6.9062  -6.9024  -6.8759  -6.8549
    -6.7807  -6.7678  -6.7531  -6.7367  -6.6925  -6.6796  -6.6648  -6.6477
    -6.6313  -6.6203  -6.6122  -6.6110  -6.6029  -6.6028  -6.6004  -6.5989
    -6.5855  -6.5532  -6.5474  -6.5216  -6.5104  -6.4906  -6.4738  -6.4365
    -6.4250  -6.4099  -6.3850  -6.3539  -6.2643  -6.2567  -6.2207  -6.2003
    -6.1523  -6.1411  -6.1398  -6.1298  -6.1225  -6.0991  -6.0756  -5.9715
    -5.9540  -5.9250  -5.9052  -5.8630  -5.8479  -5.8374  -5.8364  -5.8330
    -5.8289  -5.8214  -5.8207  -5.8191  -5.8129  -5.7996  -5.7982  -5.7977
    -5.7895  -5.7849  -5.7438  -5.7388  -5.6942  -5.6941  -5.6849  -5.6676
    -5.6602  -5.6297  -5.6237  -5.6208  -5.6172  -5.6097  -5.6050  -5.5899
    -5.5896  -5.5738  -5.5635  -5.5435  -5.5222  -5.5146  -5.4804  -5.4716
    -5.4616  -5.4546  -5.4423  -5.4283  -5.4156  -5.4148  -5.4007  -5.3955
    -5.3890  -5.3866  -5.3829  -5.3809  -5.3627  -5.3026  -5.2954  -5.2884
    -5.2827  -5.2226  -5.2148  -5.2084  -5.2061  -5.1929  -5.1917  -5.1798
    -5.1633  -5.1455  -5.1221  -5.1172  -5.1155  -5.1144  -5.0905  -5.0844
    -5.0578  -5.0547  -5.0501  -5.0402  -5.0360  -5.0289  -5.0092  -4.9743
    -4.9539  -4.9414  -4.9313  -4.9287  -4.9123  -4.9091  -4.9037  -4.8788
    -4.8624  -4.8303  -4.8134  -4.8030  -4.7997  -4.7968  -4.7927  -4.7868
    -4.7775  -4.7750  -4.7698  -4.7678  -4.7585  -4.7576  -4.7547  -4.7528
    -4.7203  -4.7019  -4.6581  -4.6464  -4.6247  -4.5043  -4.4786  -4.4714
    -4.4485  -4.4309  -4.4255  -4.4110  -4.3615  -4.3106  -4.3076  -4.2732
    -4.2639  -4.2352  -4.2093  -4.2042  -4.2027  -4.1840  -4.1572  -4.1537
    -4.1227  -4.1153  -4.1079  -4.1074  -4.0904  -4.0763  -4.0636  -4.0363
    -4.0330  -4.0261  -4.0134  -4.0035  -4.0021  -3.9880  -3.9852  -3.9641
    -3.9592  -3.9494  -3.9463  -3.9382  -3.9197  -3.8958  -3.8942  -3.8695
    -3.8694  -3.8578  -3.8463  -3.8440  -3.8317  -3.8276  -3.8242  -3.8159
    -3.8114  -3.8066  -3.7917  -3.7661  -3.7608  -3.7547  -3.7471  -3.7463
    -3.7435  -3.7371  -3.7315  -3.7304  -3.7179  -3.7108  -3.6884  -3.6860
    -3.6818  -3.6787  -3.6665  -3.6647  -3.6523  -3.6445  -3.6396  -3.6201
    -3.6141  -3.6136  -3.6120  -3.6006  -3.5936  -3.5910  -3.5825  -3.5819
    -3.5755  -3.5550  -3.5422  -3.5404  -3.5354  -3.5314  -3.5279  -3.5277
    -3.5215  -3.5200  -3.5147  -3.5105  -3.5044  -3.4957  -3.4860  -3.4825
    -3.4746  -3.4620  -3.4507  -3.4451  -3.4433  -3.4371  -3.4341  -3.4340
    -3.4280  -3.4241  -3.4131  -3.4000  -3.3995  -3.3813  -3.3791  -3.3652
    -3.3641  -3.3477  -3.3293  -3.3270  -3.3114  -3.2812  -3.2792  -3.2551
    -3.2498  -3.2363  -3.2204  -3.2148  -3.2022  -3.1976  -3.1445  -3.1309
    -3.1289  -3.1050  -3.0838  -3.0810  -3.0421  -2.9366  -2.9172  -2.8677
    -2.8364  -2.8213  -2.8173  -2.7645  -2.7485  -2.7160  -2.7008  -2.6946
    -2.6683  -2.6603  -2.6554  -2.6533  -2.6491  -2.6436  -2.6333  -2.6103
    -2.5672  -2.5439  -2.4721  -2.4605  -2.4211  -2.4154  -2.3525  -2.2528
    -2.2476  -2.1158  -2.0520  -1.9785  -1.8245  -1.7184  -1.6792  -1.6689
    -1.6346  -1.5552  -1.5512  -1.5092  -1.5017  -1.4767  -1.3776  -1.2119
    -1.0880  -0.9055  -0.9049

          k = 0.2500-0.6187 0.0000 (128424 PWs)   bands (ev):

   -90.6973 -90.6960 -90.6957 -90.6924 -90.6889 -90.6874 -90.6851 -90.6817
   -90.6779 -90.6761 -90.6760 -90.6731 -90.6715 -90.6694 -90.6672 -90.6640
   -90.6632 -90.6629 -90.6608 -90.6579 -90.6551 -90.6531 -90.6519 -90.6511
   -90.6482 -90.6477 -90.6472 -90.6463 -90.6454 -90.6407 -90.6373 -90.6307
   -90.6233 -90.5592 -90.5545 -90.5499 -90.5432 -90.5381 -90.5334 -90.5323
   -90.5268 -90.5251 -90.5241 -90.5219 -90.5200 -90.5185 -90.5153 -90.5143
   -90.5137 -90.5121 -90.5119 -90.5076 -90.5060 -90.5047 -90.5044 -90.5026
   -90.4956 -90.4925 -90.4894 -90.4799 -90.4786 -90.4739 -90.4709 -90.4688
   -56.9074 -56.8973 -56.8904 -56.8873 -56.8835 -56.8812 -56.8758 -56.8732
   -56.8677 -56.8666 -56.8652 -56.8641 -56.8615 -56.8605 -56.8599 -56.8577
   -56.8564 -56.8551 -56.8533 -56.8523 -56.8521 -56.8485 -56.8468 -56.8441
   -56.8427 -56.8387 -56.8362 -56.8350 -56.8342 -56.8287 -56.8196 -56.8134
   -56.8010 -56.7957 -56.7951 -56.7940 -56.7923 -56.7908 -56.7900 -56.7836
   -56.7827 -56.7777 -56.7728 -56.7712 -56.7666 -56.7603 -56.7575 -56.7572
   -56.7538 -56.7536 -56.7523 -56.7475 -56.7423 -56.7362 -56.7326 -56.7290
   -56.7241 -56.7207 -56.7169 -56.7102 -56.7070 -56.7052 -56.7046 -56.7014
   -56.6989 -56.6943 -56.6936 -56.6889 -56.6867 -56.6843 -56.6803 -56.6786
   -56.6760 -56.6746 -56.6723 -56.6711 -56.6705 -56.6691 -56.6671 -56.6656
   -56.6598 -56.6583 -56.6565 -56.6544 -56.6534 -56.6470 -56.6449 -56.6417
   -56.6392 -56.6383 -56.6358 -56.6327 -56.6267 -56.6217 -56.6183 -56.6145
   -56.6117 -56.6072 -56.6053 -56.6032 -56.5991 -56.5964 -56.5948 -56.5928
   -56.5919 -56.5887 -56.5869 -56.5857 -56.5845 -56.5826 -56.5821 -56.5806
   -56.5791 -56.5768 -56.5751 -56.5717 -56.5713 -56.5693 -56.5677 -56.5643
   -56.5638 -56.5630 -56.5620 -56.5602 -56.5585 -56.5574 -56.5547 -56.5539
   -56.5516 -56.5477 -56.5415 -56.5404 -56.5370 -56.5348 -56.5334 -56.5308
   -56.5271 -56.5252 -56.5236 -56.5223 -56.5215 -56.5189 -56.5175 -56.5149
   -56.5132 -56.5104 -56.5087 -56.5079 -56.5067 -56.5047 -56.5008 -56.4987
   -56.4935 -56.4927 -56.4909 -56.4846 -56.4829 -56.4820 -56.4792 -56.4729
   -56.4712 -56.4664 -56.4650 -56.4614 -56.4590 -56.4537 -56.4502 -56.4488
   -56.4476 -56.4450 -56.4441 -56.4437 -56.4421 -56.4401 -56.4398 -56.4387
   -56.4378 -56.4366 -56.4356 -56.4343 -56.4338 -56.4323 -56.4282 -56.4277
   -56.4259 -56.4243 -56.4220 -56.4205 -56.4192 -56.4173 -56.4148 -56.4113
   -19.9902 -11.1473 -10.1123  -9.8446  -9.6270  -9.3863  -8.7789  -8.6808
    -8.5138  -8.2568  -8.1924  -7.6849  -7.5693  -7.4903  -7.4348  -7.4154
    -7.3787  -7.3173  -7.2913  -7.2664  -7.1839  -7.1495  -7.1063  -7.0966
    -7.0791  -7.0326  -7.0119  -6.9672  -6.9546  -6.9302  -6.9142  -6.9092
    -6.9012  -6.8695  -6.8381  -6.8024  -6.7924  -6.7781  -6.7702  -6.7480
    -6.7140  -6.6950  -6.6713  -6.6617  -6.6435  -6.6090  -6.5934  -6.5307
    -6.5288  -6.4967  -6.4768  -6.4600  -6.4319  -6.4036  -6.3891  -6.3524
    -6.3347  -6.3272  -6.3151  -6.2965  -6.2767  -6.2661  -6.2464  -6.2263
    -6.2193  -6.1861  -6.1694  -6.1521  -6.1335  -6.1232  -6.1115  -6.0963
    -6.0310  -6.0195  -5.9766  -5.9370  -5.8694  -5.8594  -5.8492  -5.8345
    -5.8316  -5.8217  -5.8169  -5.8091  -5.7860  -5.7701  -5.7316  -5.7292
    -5.7006  -5.6900  -5.6857  -5.6781  -5.6594  -5.6460  -5.6238  -5.6224
    -5.6189  -5.6075  -5.6058  -5.6027  -5.5972  -5.5967  -5.5860  -5.5690
    -5.5645  -5.5480  -5.5335  -5.5276  -5.5172  -5.5032  -5.4899  -5.4817
    -5.4755  -5.4682  -5.4515  -5.4449  -5.4364  -5.4201  -5.3958  -5.3799
    -5.3772  -5.3644  -5.3607  -5.3506  -5.3411  -5.3375  -5.3278  -5.3150
    -5.3074  -5.2966  -5.2912  -5.2851  -5.2806  -5.2654  -5.2566  -5.2431
    -5.2205  -5.2149  -5.1840  -5.1713  -5.1569  -5.0837  -5.0603  -5.0573
    -5.0483  -5.0440  -5.0309  -5.0154  -5.0119  -5.0078  -5.0048  -4.9988
    -4.9837  -4.9771  -4.9646  -4.9604  -4.9560  -4.9469  -4.9454  -4.9091
    -4.9070  -4.8911  -4.8789  -4.8731  -4.8694  -4.8418  -4.7973  -4.7686
    -4.7480  -4.7314  -4.7051  -4.6988  -4.6796  -4.6512  -4.6324  -4.6261
    -4.5812  -4.5411  -4.5313  -4.4994  -4.4859  -4.4700  -4.4465  -4.4247
    -4.3989  -4.3706  -4.3611  -4.3502  -4.3322  -4.3015  -4.2879  -4.2821
    -4.2721  -4.2568  -4.2494  -4.2459  -4.2363  -4.2253  -4.2091  -4.1870
    -4.1564  -4.1497  -4.1194  -4.1161  -4.1039  -4.0854  -4.0812  -4.0612
    -4.0516  -4.0414  -4.0301  -4.0195  -4.0060  -4.0013  -3.9977  -3.9883
    -3.9731  -3.9568  -3.9411  -3.9371  -3.9260  -3.9144  -3.8963  -3.8885
    -3.8780  -3.8759  -3.8715  -3.8635  -3.8567  -3.8499  -3.8371  -3.8355
    -3.8233  -3.8188  -3.8064  -3.7961  -3.7816  -3.7741  -3.7538  -3.7469
    -3.7375  -3.7236  -3.7184  -3.7127  -3.7065  -3.7044  -3.6939  -3.6854
    -3.6825  -3.6763  -3.6718  -3.6496  -3.6458  -3.6389  -3.6315  -3.6288
    -3.6212  -3.6167  -3.6065  -3.5929  -3.5865  -3.5802  -3.5763  -3.5717
    -3.5651  -3.5552  -3.5446  -3.5426  -3.5397  -3.5324  -3.5258  -3.5118
    -3.5093  -3.5020  -3.4903  -3.4788  -3.4767  -3.4757  -3.4692  -3.4674
    -3.4573  -3.4516  -3.4455  -3.4310  -3.4283  -3.4225  -3.4182  -3.4177
    -3.3972  -3.3837  -3.3707  -3.3655  -3.3564  -3.3413  -3.3356  -3.3158
    -3.3096  -3.2977  -3.2786  -3.2674  -3.2312  -3.2174  -3.2037  -3.1800
    -3.1625  -3.1481  -3.1428  -3.1108  -3.0930  -3.0772  -3.0600  -3.0261
    -3.0164  -3.0069  -2.9992  -2.9879  -2.9491  -2.9334  -2.9209  -2.9113
    -2.8902  -2.8680  -2.8548  -2.8383  -2.8255  -2.8038  -2.7902  -2.7838
    -2.7589  -2.7577  -2.7087  -2.7018  -2.6969  -2.6831  -2.6763  -2.6616
    -2.6576  -2.6366  -2.6132  -2.5988  -2.5758  -2.5538  -2.5473  -2.4846
    -2.4095  -2.2935  -2.2365  -2.0661  -2.0398  -1.9438  -1.9092  -1.7696
    -1.7251  -1.6327  -1.5887  -1.4408  -1.2636  -1.2100  -1.0187  -0.9704
    -0.8776  -0.8123  -0.7769

          k = 0.2500-0.3536 0.0000 (128397 PWs)   bands (ev):

   -90.6998 -90.6973 -90.6931 -90.6912 -90.6903 -90.6873 -90.6804 -90.6799
   -90.6793 -90.6756 -90.6756 -90.6755 -90.6721 -90.6719 -90.6683 -90.6645
   -90.6639 -90.6609 -90.6579 -90.6573 -90.6558 -90.6556 -90.6515 -90.6507
   -90.6505 -90.6470 -90.6466 -90.6460 -90.6434 -90.6418 -90.6380 -90.6301
   -90.6233 -90.5607 -90.5527 -90.5507 -90.5400 -90.5367 -90.5358 -90.5315
   -90.5296 -90.5263 -90.5246 -90.5222 -90.5201 -90.5171 -90.5152 -90.5147
   -90.5144 -90.5120 -90.5107 -90.5076 -90.5058 -90.5049 -90.5029 -90.5000
   -90.4990 -90.4917 -90.4901 -90.4806 -90.4782 -90.4741 -90.4716 -90.4677
   -56.9085 -56.8958 -56.8931 -56.8874 -56.8823 -56.8817 -56.8753 -56.8696
   -56.8670 -56.8665 -56.8661 -56.8654 -56.8647 -56.8621 -56.8605 -56.8581
   -56.8557 -56.8542 -56.8527 -56.8519 -56.8508 -56.8494 -56.8454 -56.8428
   -56.8420 -56.8401 -56.8384 -56.8347 -56.8329 -56.8303 -56.8201 -56.8137
   -56.8110 -56.8052 -56.8037 -56.7997 -56.7950 -56.7904 -56.7901 -56.7898
   -56.7858 -56.7856 -56.7782 -56.7772 -56.7760 -56.7713 -56.7599 -56.7504
   -56.7401 -56.7396 -56.7349 -56.7311 -56.7261 -56.7245 -56.7184 -56.7182
   -56.7159 -56.7145 -56.7121 -56.7104 -56.7059 -56.7053 -56.7031 -56.7010
   -56.7004 -56.6984 -56.6977 -56.6921 -56.6910 -56.6905 -56.6862 -56.6850
   -56.6797 -56.6789 -56.6755 -56.6722 -56.6679 -56.6656 -56.6627 -56.6592
   -56.6569 -56.6537 -56.6506 -56.6492 -56.6443 -56.6416 -56.6413 -56.6385
   -56.6381 -56.6318 -56.6281 -56.6241 -56.6234 -56.6223 -56.6190 -56.6170
   -56.6170 -56.6142 -56.6119 -56.6083 -56.6057 -56.6020 -56.5997 -56.5967
   -56.5938 -56.5885 -56.5863 -56.5845 -56.5843 -56.5835 -56.5832 -56.5821
   -56.5810 -56.5794 -56.5784 -56.5776 -56.5743 -56.5734 -56.5717 -56.5682
[...]
    -1.1003  -1.0867  -1.0755  -1.0717  -1.0583  -1.0453  -1.0407  -1.0318
    -1.0165  -1.0093  -1.0016  -0.9775  -0.9704  -0.9565  -0.9471  -0.9449
    -0.9250  -0.9168  -0.9012  -0.8952  -0.8814  -0.8789  -0.8636  -0.8383
    -0.8297  -0.8294  -0.8210  -0.8177  -0.8099  -0.7985  -0.7874  -0.7824
    -0.7705  -0.7655  -0.7632  -0.7481  -0.7428  -0.7251  -0.7198  -0.7134
    -0.7108  -0.6971  -0.6836  -0.6814  -0.6757  -0.6602  -0.6431  -0.6328
    -0.6174  -0.6116  -0.6086  -0.5980  -0.5873  -0.5836  -0.5801  -0.5762
    -0.5689  -0.5603  -0.5594  -0.5511  -0.5434  -0.5283  -0.5230  -0.5137
    -0.4975  -0.4859  -0.4830  -0.4753  -0.4676  -0.4626  -0.4586  -0.4558
    -0.4526  -0.4454  -0.4418  -0.4233  -0.4196  -0.4142  -0.3995  -0.3830
    -0.3799  -0.3797  -0.3693  -0.3581  -0.3449  -0.3326  -0.3302  -0.2972
    -0.2900  -0.2859  -0.2634  -0.2565  -0.2378  -0.2364  -0.2319  -0.2266
    -0.2207  -0.2093  -0.2065  -0.1828  -0.1581  -0.1458  -0.1405  -0.1284
    -0.1127  -0.1058  -0.0834  -0.0408   0.0493   0.1012   0.1321   0.1482
     0.1787   0.2393   0.3140   0.3783   0.4026   0.5481   0.6116   0.7066
     0.7243   0.7584   0.7908

          k =-0.5000-0.3536 0.0000 (128560 PWs)   bands (ev):

   -87.9643 -87.9611 -87.7599 -87.7590 -87.7164 -87.7074 -87.6982 -87.6961
   -87.6876 -87.6848 -87.6780 -87.6739 -87.6733 -87.6694 -87.6675 -87.6665
   -87.6664 -87.6640 -87.6585 -87.6554 -87.6546 -87.6527 -87.6511 -87.6497
   -87.6443 -87.6417 -87.6393 -87.6391 -87.6369 -87.6364 -87.6297 -87.6279
   -87.6223 -87.6216 -87.6176 -87.6082 -87.6039 -87.6029 -87.6008 -87.6008
   -87.6007 -87.5986 -87.5973 -87.5914 -87.5869 -87.5829 -87.5801 -87.5796
   -87.5782 -87.5779 -87.5777 -87.5771 -87.5758 -87.5746 -87.5746 -87.5720
   -87.5702 -87.5626 -87.5590 -87.5573 -87.5549 -87.5543 -87.5532 -87.5518
   -54.2887 -54.2725 -54.0798 -54.0724 -53.9935 -53.9917 -53.9799 -53.9794
   -53.9757 -53.9644 -53.9625 -53.9617 -53.9605 -53.9546 -53.9539 -53.9504
   -53.9489 -53.9489 -53.9449 -53.9443 -53.9403 -53.9378 -53.9367 -53.9341
   -53.9323 -53.9300 -53.9295 -53.9265 -53.9180 -53.9175 -53.9054 -53.9030
   -53.9018 -53.8998 -53.8968 -53.8929 -53.8927 -53.8870 -53.8781 -53.8754
   -53.8753 -53.8752 -53.8746 -53.8683 -53.8666 -53.8633 -53.8621 -53.8614
   -53.8608 -53.8598 -53.8561 -53.8544 -53.8533 -53.8528 -53.8492 -53.8482
   -53.8457 -53.8447 -53.8420 -53.8418 -53.8417 -53.8400 -53.8374 -53.8361
   -53.8246 -53.8125 -53.8116 -53.8090 -53.8087 -53.8031 -53.8025 -53.7890
   -53.7886 -53.7880 -53.7814 -53.7803 -53.7767 -53.7765 -53.7730 -53.7642
   -53.7624 -53.7604 -53.7557 -53.7550 -53.7512 -53.7510 -53.7485 -53.7478
   -53.7477 -53.7445 -53.7407 -53.7379 -53.7355 -53.7354 -53.7307 -53.7279
   -53.7266 -53.7236 -53.7221 -53.7172 -53.7129 -53.7081 -53.7072 -53.7066
   -53.7054 -53.7039 -53.7030 -53.7008 -53.7003 -53.6990 -53.6967 -53.6914
   -53.6902 -53.6886 -53.6872 -53.6857 -53.6856 -53.6801 -53.6790 -53.6778
   -53.6774 -53.6770 -53.6742 -53.6690 -53.6679 -53.6647 -53.6646 -53.6612
   -53.6603 -53.6592 -53.6585 -53.6522 -53.6483 -53.6451 -53.6446 -53.6426
   -53.6409 -53.6398 -53.6384 -53.6375 -53.6359 -53.6348 -53.6345 -53.6321
   -53.6319 -53.6300 -53.6281 -53.6274 -53.6263 -53.6246 -53.6235 -53.6208
   -53.6206 -53.6189 -53.6165 -53.6162 -53.6154 -53.6144 -53.6116 -53.6111
   -53.6102 -53.6101 -53.6099 -53.6095 -53.6086 -53.6080 -53.6072 -53.6067
   -53.6065 -53.6044 -53.6010 -53.6002 -53.5989 -53.5976 -53.5965 -53.5955
   -53.5940 -53.5939 -53.5934 -53.5924 -53.5883 -53.5864 -53.5863 -53.5846
   -53.5842 -53.5812 -53.5811 -53.5802 -53.5789 -53.5774 -53.5770 -53.5767
   -19.9377 -11.0438  -9.7714  -9.6581  -9.3332  -9.0819  -8.9792  -8.3566
    -8.2167  -7.8645  -7.7188  -7.1521  -7.0748  -7.0681  -7.0542  -6.7800
    -6.6553  -6.5678  -6.2285  -6.2203  -6.2203  -6.2088  -6.1962  -6.1845
    -6.1007  -6.0965  -6.0929  -6.0885  -6.0197  -6.0034  -5.6720  -5.6718
    -5.6596  -5.6561  -5.6300  -5.6112  -5.4471  -5.4291  -5.1984  -5.1925
    -5.1643  -5.1456  -5.1409  -5.1254  -5.0982  -5.0904  -5.0682  -5.0477
    -5.0398  -5.0177  -4.9044  -4.9024  -4.8897  -4.8866  -4.8807  -4.8282
    -4.6394  -4.6215  -4.6145  -4.6096  -4.6009  -4.5904  -4.3902  -4.3579
    -4.3426  -4.3326  -4.2902  -4.2849  -4.1954  -4.1771  -4.1193  -4.1073
    -4.1043  -4.0937  -4.0853  -4.0842  -4.0782  -4.0747  -4.0727  -4.0691
    -3.9996  -3.9877  -3.9807  -3.9744  -3.9722  -3.9683  -3.9682  -3.9597
    -3.9562  -3.9502  -3.9487  -3.8824  -3.7575  -3.7472  -3.7330  -3.7297
    -3.6307  -3.6165  -3.6144  -3.6122  -3.5912  -3.5879  -3.5791  -3.5621
    -3.5603  -3.5500  -3.5389  -3.5348  -3.5328  -3.5307  -3.5214  -3.5134
    -3.5051  -3.5041  -3.4897  -3.4824  -3.4757  -3.4714  -3.4677  -3.4676
    -3.4644  -3.4582  -3.4581  -3.4472  -3.4274  -3.4130  -3.4117  -3.3867
    -3.3793  -3.3743  -3.3653  -3.3621  -3.3607  -3.3584  -3.3537  -3.3511
    -3.3480  -3.3387  -3.3321  -3.2929  -3.2828  -3.2733  -3.1576  -3.1501
    -3.0978  -3.0969  -3.0961  -3.0958  -3.0776  -3.0602  -3.0461  -3.0259
    -3.0203  -3.0028  -2.9755  -2.9358  -2.9184  -2.9034  -2.8835  -2.8828
    -2.8776  -2.8578  -2.8574  -2.8395  -2.8356  -2.8118  -2.7894  -2.7549
    -2.6785  -2.6518  -2.6516  -2.6446  -2.6437  -2.5918  -2.5876  -2.5826
    -2.5656  -2.5569  -2.5550  -2.5541  -2.5030  -2.4830  -2.4796  -2.4659
    -2.4522  -2.4512  -2.4444  -2.4347  -2.4079  -2.1872  -2.1661  -2.1070
    -2.0810  -2.0560  -2.0416  -2.0003  -1.9382  -1.8263  -1.7937  -1.7875
    -1.7872  -1.7650  -1.7320  -1.7171  -1.6773  -1.6376  -1.6367  -1.6299
    -1.6162  -1.5968  -1.5837  -1.5509  -1.5380  -1.5295  -1.5026  -1.4981
    -1.4949  -1.4591  -1.4457  -1.4072  -1.3732  -1.3636  -1.3458  -1.3242
    -1.3185  -1.3013  -1.2829  -1.2777  -1.2776  -1.2773  -1.2716  -1.2583
    -1.2571  -1.2521  -1.2322  -1.2296  -1.1964  -1.1918  -1.1901  -1.1421
    -1.1288  -1.1207  -1.1010  -1.0661  -1.0609  -1.0575  -1.0240  -1.0063
    -0.9935  -0.9645  -0.9476  -0.9378  -0.8903  -0.8774  -0.8520  -0.8508
    -0.8490  -0.8423  -0.8399  -0.8294  -0.8289  -0.8276  -0.8194  -0.8081
    -0.8005  -0.7952  -0.7929  -0.7874  -0.7836  -0.7776  -0.7682  -0.7644
    -0.7471  -0.7245  -0.7210  -0.7149  -0.7083  -0.7045  -0.7015  -0.6974
    -0.6904  -0.6850  -0.6821  -0.6679  -0.6568  -0.6526  -0.6453  -0.6433
    -0.6409  -0.6175  -0.6166  -0.6159  -0.6060  -0.6036  -0.6008  -0.5975
    -0.5970  -0.5968  -0.5828  -0.5660  -0.5579  -0.5500  -0.5000  -0.4777
    -0.4768  -0.4722  -0.4648  -0.4469  -0.4434  -0.4333  -0.4228  -0.4208
    -0.4149  -0.4127  -0.4075  -0.4072  -0.4064  -0.4043  -0.3974  -0.3973
    -0.3953  -0.3936  -0.3803  -0.3763  -0.3717  -0.3468  -0.3440  -0.3402
    -0.3372  -0.3322  -0.3297  -0.3261  -0.3165  -0.3123  -0.3057  -0.2994
    -0.2972  -0.2679  -0.2233  -0.2222  -0.2127  -0.2122  -0.2017  -0.1943
    -0.0690  -0.0425  -0.0131   0.0068   0.1940   0.2093   0.2148   0.2150
     0.2661   0.2677   0.2786   0.2932   0.3043   0.3045   0.3219   0.3396
     0.3696   0.4387   0.5356

     the Fermi energy is    -2.5410 ev

!    total energy              =  -21094.89759931 Ry
     Harris-Foulkes estimate   =  -21094.89759978 Ry
     estimated scf accuracy    <          5.1E-11 Ry

     The total energy is the sum of the following terms:

     one-electron contribution = -744228.83124430 Ry
     hartree contribution      =  372013.68122375 Ry
     xc contribution           =   -2235.09908371 Ry
     ewald contribution        =  358230.18251443 Ry
     Dispersion Correction     =      -1.39513457 Ry
     one-center paw contrib.   =   -4873.43626148 Ry
     smearing contrib. (-TS)   =       0.00038657 Ry

     total magnetization       =   161.72 Bohr mag/cell
     absolute magnetization    =   168.25 Bohr mag/cell

     convergence has been achieved in  12 iterations

     negative rho (up, down):  2.460E-02 1.937E-02

     Forces acting on atoms (cartesian axes, Ry/au):

     atom    1 type  1   force =     0.00025811    0.00004977    0.01000816
     atom    2 type  1   force =    -0.00088854    0.00126570   -0.00530441
     atom    3 type  1   force =     0.00021873    0.00008712    0.00969341
     atom    4 type  1   force =    -0.00054143    0.00001507   -0.01090121
     atom    5 type  1   force =    -0.00001824   -0.00000174    0.00000624
     atom    6 type  1   force =     0.00000323   -0.00000152    0.00002504
     atom    7 type  1   force =    -0.00000087   -0.00001158   -0.00003352
     atom    8 type  1   force =     0.00002787   -0.00000457    0.00003154
     atom    9 type  1   force =     0.00000143    0.00001158    0.00993404
     atom   10 type  1   force =    -0.00013972   -0.00013201    0.00925371
     atom   11 type  1   force =     0.00011354   -0.00022351   -0.01076872
     atom   12 type  1   force =    -0.00033254   -0.00016033   -0.00997249
     atom   13 type  1   force =    -0.00000353   -0.00000082    0.00001684
     atom   14 type  1   force =     0.00000509    0.00000504   -0.00000462
     atom   15 type  1   force =    -0.00003465   -0.00000221    0.00004163
     atom   16 type  1   force =    -0.00003119   -0.00001851    0.00004858
     atom   17 type  1   force =     0.00017410    0.00015766    0.00965139
     atom   18 type  1   force =    -0.00011900   -0.00050207   -0.01092748
     atom   19 type  1   force =    -0.00020975   -0.00011474    0.00964153
     atom   20 type  1   force =    -0.00001112    0.00002446   -0.00712170
     atom   21 type  1   force =    -0.00001048    0.00000609   -0.00003216
     atom   22 type  1   force =     0.00000564    0.00002816    0.00003610
     atom   23 type  1   force =    -0.00000306    0.00001272   -0.00003239
     atom   24 type  1   force =    -0.00004883    0.00006386    0.00000496
     atom   25 type  1   force =     0.00001381   -0.00001742    0.00895351
     atom   26 type  1   force =     0.00006390   -0.00009479    0.00945053
     atom   27 type  1   force =     0.00009196   -0.00004391   -0.01121378
     atom   28 type  1   force =     0.00018241   -0.00016891   -0.01076453
     atom   29 type  1   force =    -0.00000187    0.00000199   -0.00012551
     atom   30 type  1   force =     0.00000133   -0.00000125   -0.00008083
     atom   31 type  1   force =     0.00007120    0.00004847    0.00007005
     atom   32 type  1   force =     0.00001740    0.00002848    0.00004066
     atom   33 type  1   force =    -0.00024751   -0.00005642    0.01005936
     atom   34 type  1   force =     0.00051339   -0.00004827   -0.01092544
     atom   35 type  1   force =     0.00013946    0.00021673    0.01006826
     atom   36 type  1   force =     0.00079177   -0.00112598   -0.00529447
     atom   37 type  1   force =     0.00001580    0.00000245    0.00000812
     atom   38 type  1   force =    -0.00002750    0.00000385    0.00003397
     atom   39 type  1   force =    -0.00000888   -0.00001286    0.00000909
     atom   40 type  1   force =    -0.00000542    0.00000378    0.00002069
     atom   41 type  1   force =    -0.00002045    0.00003142    0.00745016
     atom   42 type  1   force =    -0.00007923    0.00010875    0.00944818
     atom   43 type  1   force =     0.00025423    0.00027483   -0.00996255
     atom   44 type  1   force =    -0.00014999    0.00022606   -0.01074084
     atom   45 type  1   force =     0.00000075   -0.00000003   -0.00003245
     atom   46 type  1   force =    -0.00000186    0.00000297   -0.00008149
     atom   47 type  1   force =     0.00003005    0.00001969    0.00004801
     atom   48 type  1   force =     0.00003325    0.00000289    0.00004102
     atom   49 type  1   force =    -0.00015307   -0.00018014    0.00969994
     atom   50 type  1   force =     0.00007463   -0.00011251   -0.00709629
     atom   51 type  1   force =    -0.00013044   -0.00023025    0.01001668
     atom   52 type  1   force =     0.00016067    0.00053074   -0.01090183
     atom   53 type  1   force =     0.00001048   -0.00000195   -0.00003259
     atom   54 type  1   force =     0.00004816   -0.00006641    0.00000241
     atom   55 type  1   force =     0.00000943    0.00001492    0.00000667
     atom   56 type  1   force =    -0.00000533   -0.00002842    0.00003062
     atom   57 type  1   force =    -0.00001151    0.00000367    0.00994613
     atom   58 type  1   force =     0.00017303    0.00008628    0.00924861
     atom   59 type  1   force =    -0.00016610    0.00021824   -0.01074634
     atom   60 type  1   force =     0.00000781   -0.00009090   -0.01122005
     atom   61 type  1   force =     0.00000121    0.00000276    0.00001737
     atom   62 type  1   force =    -0.00000570   -0.00000404   -0.00000423
     atom   63 type  1   force =    -0.00001839   -0.00002910    0.00004046
     atom   64 type  1   force =    -0.00006976   -0.00005113    0.00007130
     atom   65 type  2   force =    -0.00002817   -0.00002149    0.00000285
     atom   66 type  3   force =     0.00007132    0.00003966    0.00003360
     atom   67 type  3   force =    -0.00006106   -0.00003603    0.00001000

     Total force =     0.000341     Total SCF correction =     0.000040
     SCF correction compared to forces is large: reduce conv_thr to get better values

     bfgs converged in  12 scf cycles and  11 bfgs steps
     (criteria: energy <  7.3E-07 Ry, force <  3.9E-04 Ry/Bohr)

     End of BFGS Geometry Optimization

     Final energy   =  -21094.8975993131 Ry
Begin final coordinates

ATOMIC_POSITIONS (angstrom)
Fe       1.654912953   1.170200133   0.000000000    0   0   0
Fe       0.000000000   0.000000000   2.026984232    0   0   0
Fe       4.964738858   3.510600399   0.000000000    0   0   0
Fe       3.309825906   2.340400266   2.026984232    0   0   0
Fe       1.647820568   1.167520640   4.024844491
Fe       3.303031479   9.371284894   6.002859294
Fe       4.959559858   3.515033946   4.011630675
Fe       3.302762145   2.332524380   6.004030522
Fe       2.482363858   3.510600399   0.000000000    0   0   0
Fe       4.137287953   1.170200133   0.000000000    0   0   0
Fe       0.827450906   2.340400266   2.026984232    0   0   0
Fe       2.482375000   0.000000000   2.026984232    0   0   0
Fe       2.482413196   3.510629778   4.027132838
Fe       4.129120971   1.164404216   4.018302310
Fe       0.815766400   2.345546716   5.992335861
Fe       2.478193974  -0.002838525   6.013393189
Fe       6.619662953   1.170200133   0.000000000    0   0   0
Fe       4.964750000   0.000000000   2.026984232    0   0   0
Fe       9.929488858   3.510600399   0.000000000    0   0   0
Fe       8.274575906   2.340400266   2.026984232    0   0   0
Fe       6.622149723   1.163778389   4.011719236
Fe       4.954922011  -0.004202220   6.003851003
Fe       9.934857132   3.506158833   4.011689795
Fe       8.280479606   2.332573830   6.084468359
Fe       7.447113858   3.510600399   0.000000000    0   0   0
Fe       9.102037953   1.170200133   0.000000000    0   0   0
Fe       5.792200906   2.340400266   2.026984232    0   0   0
Fe       7.447125000   0.000000000   2.026984232    0   0   0
Fe       7.447268993   3.510506614   4.045211143
Fe       9.091602080   1.185041239   4.047917693
Fe       5.739556125   2.303157517   5.930422427
Fe      10.756095404   9.374626194   5.992424899
Fe       3.309814764   5.851000664   0.000000000    0   0   0
Fe       1.654901811   4.680800531   2.026984232    0   0   0
Fe       6.619640670   8.191400930   0.000000000    0   0   0
Fe       4.964727717   7.021200797   2.026984232    0   0   0
Fe       3.316799820   5.853910446   4.024872533
Fe      11.591763468   4.688780791   6.003840850
Fe       6.614628592   8.185849348   4.024827054
Fe       4.971245933   7.012070316   6.002786054
Fe       4.137265670   8.191400930   0.000000000    0   0   0
Fe       5.792189764   5.851000664   0.000000000    0   0   0
Fe       2.482352717   7.021200797   2.026984232    0   0   0
Fe       4.137276811   4.680800531   2.026984232    0   0   0
Fe       4.137093968   8.191695792   4.031082167
Fe       5.802530265   5.836451858   4.047866921
Fe      12.415992230   7.024324548   6.013395983
Fe       4.149252783   4.675822919   5.992506393
Fe       8.274564764   5.851000664   0.000000000    0   0   0
Fe       6.619651811   4.680800531   2.026984232    0   0   0
Fe      11.584390670   8.191400930   0.000000000    0   0   0
Fe       9.929477717   7.021200797   2.026984232    0   0   0
Fe       8.272220278   5.857435016   4.011581403
Fe       6.614544985   4.688321902   6.084146729
Fe      11.589321597   8.197281505   4.024872507
Fe       9.939370566   7.025420395   6.003988899
Fe       9.102015670   8.191400930   0.000000000    0   0   0
Fe      10.756939764   5.851000664   0.000000000    0   0   0
Fe       7.447102717   7.021200797   2.026984232    0   0   0
Fe       9.102026811   4.680800531   2.026984232    0   0   0
Fe       9.102043174   8.191471358   4.027100016
Fe      10.765223690   5.856823861   4.018295616
Fe       7.447924419   7.008417291   5.992412235
Fe       9.154864553   4.718187580   5.930335094
N        7.448348967   3.511297636   7.477224030
H        8.113398667   3.982198116   8.104886333
H        6.783365923   3.040920654   8.105358713
End final coordinates



     Writing output data file Fe_NH2_paper_480c_ESM_p25.save/

     init_run     :     84.03s CPU     85.52s WALL (       1 calls)
     electrons    :  85940.93s CPU  86619.93s WALL (      12 calls)
     update_pot   :    206.96s CPU    207.16s WALL (      11 calls)
     forces       :    539.20s CPU    543.44s WALL (      12 calls)

     Called by init_run:
     wfcinit      :     58.33s CPU     59.57s WALL (       1 calls)
     potinit      :      7.89s CPU      7.93s WALL (       1 calls)
     hinit0       :     14.87s CPU     14.95s WALL (       1 calls)

     Called by electrons:
     c_bands      :  78600.86s CPU  79180.55s WALL (     258 calls)
     sum_band     :   4073.32s CPU   4137.28s WALL (     258 calls)
     v_of_rho     :    423.00s CPU    424.84s WALL (     259 calls)
     newd         :     77.96s CPU     80.36s WALL (     259 calls)
     PAW_pot      :    128.08s CPU    129.11s WALL (     270 calls)
     mix_rho      :   2541.65s CPU   2565.66s WALL (     258 calls)

     Called by c_bands:
     init_us_2    :    119.58s CPU    122.47s WALL (    1620 calls)
     cegterg      :  64567.73s CPU  64980.98s WALL (     782 calls)

     Called by sum_band:
     sum_band:bec :      7.75s CPU      7.78s WALL (     807 calls)
     addusdens    :     93.33s CPU     97.35s WALL (     258 calls)

     Called by *egterg:
     h_psi        :  19384.86s CPU  19547.15s WALL (    6447 calls)
     s_psi        :   4062.66s CPU   4071.23s WALL (    6447 calls)
     g_psi        :     55.26s CPU     55.52s WALL (    5662 calls)
     cdiaghg      :  24574.04s CPU  24682.00s WALL (    6378 calls)

     Called by h_psi:
     h_psi:pot    :  19287.66s CPU  19392.52s WALL (    6447 calls)
     h_psi:calbec :   4104.50s CPU   4110.56s WALL (    6447 calls)
     vloc_psi     :  11107.29s CPU  11198.84s WALL (    6447 calls)
     add_vuspsi   :   4075.78s CPU   4083.08s WALL (    6447 calls)

     General routines
     calbec       :   5816.63s CPU   5825.21s WALL (    7398 calls)
     fft          :    268.96s CPU    270.63s WALL (    6664 calls)
     ffts         :   1310.65s CPU   1320.20s WALL (  157077 calls)
     fftw         :  10564.73s CPU  10655.95s WALL ( 3161398 calls)
     interpolate  :     26.24s CPU     26.45s WALL (     518 calls)
     davcio       :      1.28s CPU    154.16s WALL (    6695 calls)

     Parallel routines
     fft_scatt_xy :   2214.36s CPU   2225.53s WALL ( 3325139 calls)
     fft_scatt_yz :   3125.15s CPU   3173.94s WALL ( 3325139 calls)

     PWSCF        :   1d 0h 8m CPU   1d 0h19m WALL


   This run was terminated on:  19:49:54   9Jun2022            

=------------------------------------------------------------------------------=
   JOB DONE.
=------------------------------------------------------------------------------=
