
     Program PHONON v.6.7MaX starts on 20Sep2022 at 22:51:32 

     This program is part of the open-source Quantum ESPRESSO suite
     for quantum simulation of materials; please cite
         "P. Giannozzi et al., J. Phys.:Condens. Matter 21 395502 (2009);
         "P. Giannozzi et al., J. Phys.:Condens. Matter 29 465901 (2017);
          URL http://www.quantum-espresso.org", 
     in publications or presentations arising from this work. More details at
     http://www.quantum-espresso.org/quote

     Parallel version (MPI), running on   120 processors

     MPI processes distributed on     1 nodes
     K-points division:     npool     =       8
     R & G space division:  proc/nbgrp/npool/nimage =      15
     Waiting for input...
     Reading input from standard input

     Reading xml data from directory:

     ./N2_ESM_pn25.save/

     IMPORTANT: XC functional enforced from input :
     Exchange-correlation= PBE
                           (   1   4   3   4   0   0   0)
     Any further DFT definition will be discarded
     Please, verify this is what you really want


     Parallelization info
     --------------------
     sticks:   dense  smooth     PW     G-vecs:    dense   smooth      PW
     Min        3636    1818    468               639190   225950   29545
     Max        3637    1819    470               639197   225953   29547
     Sum       54553   27281   7033              9587919  3389267  443191


     negative rho (up, down):  2.976E-04 2.976E-04
     Reading collected, re-writing distributed wavefunctions

     Calculation of q =    0.0000000   0.0000000   0.0000000

     phonons (vibrational modes) for N2                                         

     bravais-lattice index     =            0
     lattice parameter (alat)  =      37.7945  a.u.
     unit-cell volume          =   53986.6760 (a.u.)^3
     number of atoms/cell      =            2
     number of atomic types    =            1
     kinetic-energy cut-off    =      60.0000  Ry
     charge density cut-off    =     480.0000  Ry
     convergence threshold     =      1.0E-12
     beta                      =       0.7000
     number of iterations used =            4
     Exchange-correlation= PBE
                           (   1   4   3   4   0   0   0)


     celldm(1)=   37.79452  celldm(2)=    0.00000  celldm(3)=    0.00000
     celldm(4)=    0.00000  celldm(5)=    0.00000  celldm(6)=    0.00000

     crystal axes: (cart. coord. in units of alat)
               a(1) = (  1.0000  0.0000  0.0000 )  
               a(2) = (  0.0000  1.0000  0.0000 )  
               a(3) = (  0.0000  0.0000  1.0000 )  

     reciprocal axes: (cart. coord. in units 2 pi/alat)
               b(1) = (  1.0000  0.0000  0.0000 )  
               b(2) = (  0.0000  1.0000  0.0000 )  
               b(3) = (  0.0000  0.0000  1.0000 )  


     Atoms inside the unit cell: 

     Cartesian axes

     site n.  atom      mass           positions (alat units)
        1     N   14.0067   tau(    1) = (    0.50000    0.50000    0.00000  )
        2     N   14.0067   tau(    2) = (    0.50000    0.50000    0.05527  )

     Computing dynamical matrix for 
                    q = (   0.0000000   0.0000000   0.0000000 )

      2 Sym.Ops. (with q -> -q+G )


     G cutoff =17367.5767  ( 639197 G-vectors)     FFT grid: (270,270,270)
     G cutoff = 8683.7884  ( 225950 G-vectors)  smooth grid: (192,192,192)

     number of k points=    20  Methfessel-Paxton smearing, width (Ry)=  0.0100
                       cart. coord. in units 2pi/alat
        k(    1) = (   0.0000000   0.0000000   0.0000000), wk =   0.0625000
        k(    2) = (   0.0000000   0.2500000   0.0000000), wk =   0.1250000
        k(    3) = (   0.0000000  -0.5000000   0.0000000), wk =   0.0625000
        k(    4) = (   0.2500000   0.0000000   0.0000000), wk =   0.1250000
        k(    5) = (   0.2500000   0.2500000   0.0000000), wk =   0.1250000
        k(    6) = (   0.2500000  -0.5000000   0.0000000), wk =   0.1250000
        k(    7) = (   0.2500000  -0.2500000   0.0000000), wk =   0.1250000
        k(    8) = (  -0.5000000   0.0000000   0.0000000), wk =   0.0625000
        k(    9) = (  -0.5000000   0.2500000   0.0000000), wk =   0.1250000
        k(   10) = (  -0.5000000  -0.5000000   0.0000000), wk =   0.0625000
        k(   11) = (   0.0000000   0.0000000   0.0000000), wk =   0.0625000
        k(   12) = (   0.0000000   0.2500000   0.0000000), wk =   0.1250000
        k(   13) = (   0.0000000  -0.5000000   0.0000000), wk =   0.0625000
        k(   14) = (   0.2500000   0.0000000   0.0000000), wk =   0.1250000
        k(   15) = (   0.2500000   0.2500000   0.0000000), wk =   0.1250000
        k(   16) = (   0.2500000  -0.5000000   0.0000000), wk =   0.1250000
        k(   17) = (   0.2500000  -0.2500000   0.0000000), wk =   0.1250000
        k(   18) = (  -0.5000000   0.0000000   0.0000000), wk =   0.0625000
        k(   19) = (  -0.5000000   0.2500000   0.0000000), wk =   0.1250000
        k(   20) = (  -0.5000000  -0.5000000   0.0000000), wk =   0.0625000

     PseudoPot. # 1 for N  read from file:
     ../../SSSP/N.pbe-n-radius_5.UPF
     MD5 check sum: 16739722b17309cd8fe442a2ace49922
     Pseudo is Ultrasoft + core correction, Zval =  5.0
     Generated using "atomic" code by A. Dal Corso  v.5.1
     Using radial grid of 1085 points,  4 beta functions with: 
                l(1) =   0
                l(2) =   0
                l(3) =   1
                l(4) =   1
     Q(r) pseudized with 0 coefficients 


     Mode symmetry, C_1 (1)     point group:


     Atomic displacements:
     There are    6 irreducible representations

     Representation     1      1 modes -  To be done

     Representation     2      1 modes -  To be done

     Representation     3      1 modes -  To be done

     Representation     4      1 modes -  To be done

     Representation     5      1 modes -  To be done

     Representation     6      1 modes -  To be done



     Alpha used in Ewald sum =   2.8000

     -------------------------------------------------
     Parameters for Dispersion (Grimme-D2) Correction:
     -------------------------------------------------
       atom      VdW radius       C_6     

        N          2.640         42.670

     Calculating the D2 contribution to the dynamical matrix.
     D2 energy =       -0.00000235 Ry
     Done.


     negative rho (up, down):  2.976E-04 2.976E-04
     PHONON       :   3m 5.53s CPU   3m13.91s WALL



     Representation #   1 mode #   1

     Self-consistent Calculation

     Pert. #  1: Fermi energy shift (Ry) =     0.0000E+00     0.0000E+00

      iter #   1 total cpu time :   240.0 secs   av.it.:   7.4
      thresh= 1.000E-02 alpha_mix =  0.700 |ddv_scf|^2 =  1.131E-06

     Pert. #  1: Fermi energy shift (Ry) =     0.0000E+00     0.0000E+00

      iter #   2 total cpu time :   287.3 secs   av.it.:  11.4
      thresh= 1.063E-04 alpha_mix =  0.700 |ddv_scf|^2 =  1.665E-07

     Pert. #  1: Fermi energy shift (Ry) =     0.0000E+00     0.0000E+00

      iter #   3 total cpu time :   335.6 secs   av.it.:  11.0
      thresh= 4.081E-05 alpha_mix =  0.700 |ddv_scf|^2 =  5.279E-09

     Pert. #  1: Fermi energy shift (Ry) =     0.0000E+00     0.0000E+00

      iter #   4 total cpu time :   380.5 secs   av.it.:  12.0
      thresh= 7.265E-06 alpha_mix =  0.700 |ddv_scf|^2 =  6.140E-11

     Pert. #  1: Fermi energy shift (Ry) =     0.0000E+00     0.0000E+00

      iter #   5 total cpu time :   431.0 secs   av.it.:  12.0
      thresh= 7.836E-07 alpha_mix =  0.700 |ddv_scf|^2 =  1.398E-13

     End of self-consistent calculation

     Convergence has been achieved 


     Representation #   2 mode #   2

     Self-consistent Calculation

     Pert. #  1: Fermi energy shift (Ry) =     0.0000E+00     0.0000E+00

      iter #   1 total cpu time :   491.3 secs   av.it.:   7.4
      thresh= 1.000E-02 alpha_mix =  0.700 |ddv_scf|^2 =  6.863E-07

     Pert. #  1: Fermi energy shift (Ry) =     0.0000E+00     0.0000E+00

      iter #   2 total cpu time :   537.0 secs   av.it.:  11.4
      thresh= 8.284E-05 alpha_mix =  0.700 |ddv_scf|^2 =  1.426E-07

     Pert. #  1: Fermi energy shift (Ry) =     0.0000E+00     0.0000E+00

      iter #   3 total cpu time :   581.7 secs   av.it.:  11.0
      thresh= 3.777E-05 alpha_mix =  0.700 |ddv_scf|^2 =  1.307E-08

     Pert. #  1: Fermi energy shift (Ry) =     0.0000E+00     0.0000E+00

      iter #   4 total cpu time :   626.5 secs   av.it.:  11.4
      thresh= 1.143E-05 alpha_mix =  0.700 |ddv_scf|^2 =  8.020E-11

     Pert. #  1: Fermi energy shift (Ry) =     0.0000E+00     0.0000E+00

      iter #   5 total cpu time :   676.3 secs   av.it.:  11.6
      thresh= 8.955E-07 alpha_mix =  0.700 |ddv_scf|^2 =  1.039E-13

     End of self-consistent calculation

     Convergence has been achieved 


     Representation #   3 mode #   3

     Self-consistent Calculation

     Pert. #  1: Fermi energy shift (Ry) =     0.0000E+00     0.0000E+00

      iter #   1 total cpu time :   736.7 secs   av.it.:   7.0
      thresh= 1.000E-02 alpha_mix =  0.700 |ddv_scf|^2 =  1.424E-06

     Pert. #  1: Fermi energy shift (Ry) =     0.0000E+00     0.0000E+00

      iter #   2 total cpu time :   782.0 secs   av.it.:  12.0
      thresh= 1.193E-04 alpha_mix =  0.700 |ddv_scf|^2 =  3.521E-07

     Pert. #  1: Fermi energy shift (Ry) =     0.0000E+00     0.0000E+00

      iter #   3 total cpu time :   828.2 secs   av.it.:  12.8
      thresh= 5.934E-05 alpha_mix =  0.700 |ddv_scf|^2 =  5.371E-07

     Pert. #  1: Fermi energy shift (Ry) =     0.0000E+00     0.0000E+00

      iter #   4 total cpu time :   877.1 secs   av.it.:  12.0
      thresh= 7.329E-05 alpha_mix =  0.700 |ddv_scf|^2 =  2.915E-10

     Pert. #  1: Fermi energy shift (Ry) =     0.0000E+00     0.0000E+00

      iter #   5 total cpu time :   928.7 secs   av.it.:  13.0
      thresh= 1.707E-06 alpha_mix =  0.700 |ddv_scf|^2 =  2.921E-11

     Pert. #  1: Fermi energy shift (Ry) =     0.0000E+00     0.0000E+00

      iter #   6 total cpu time :   980.2 secs   av.it.:  12.6
      thresh= 5.405E-07 alpha_mix =  0.700 |ddv_scf|^2 =  5.115E-13

     End of self-consistent calculation

     Convergence has been achieved 


     Representation #   4 mode #   4

     Self-consistent Calculation

     Pert. #  1: Fermi energy shift (Ry) =     0.0000E+00     0.0000E+00

      iter #   1 total cpu time :  1041.3 secs   av.it.:   7.4
      thresh= 1.000E-02 alpha_mix =  0.700 |ddv_scf|^2 =  1.987E-06

     Pert. #  1: Fermi energy shift (Ry) =     0.0000E+00     0.0000E+00

      iter #   2 total cpu time :  1084.5 secs   av.it.:  11.0
      thresh= 1.410E-04 alpha_mix =  0.700 |ddv_scf|^2 =  2.972E-07

     Pert. #  1: Fermi energy shift (Ry) =     0.0000E+00     0.0000E+00

      iter #   3 total cpu time :  1130.9 secs   av.it.:  10.6
      thresh= 5.451E-05 alpha_mix =  0.700 |ddv_scf|^2 =  1.053E-08

     Pert. #  1: Fermi energy shift (Ry) =     0.0000E+00     0.0000E+00

      iter #   4 total cpu time :  1176.9 secs   av.it.:  11.8
      thresh= 1.026E-05 alpha_mix =  0.700 |ddv_scf|^2 =  6.442E-11

     Pert. #  1: Fermi energy shift (Ry) =     0.0000E+00     0.0000E+00

      iter #   5 total cpu time :  1225.2 secs   av.it.:  11.4
      thresh= 8.026E-07 alpha_mix =  0.700 |ddv_scf|^2 =  2.358E-13

     End of self-consistent calculation

     Convergence has been achieved 


     Representation #   5 mode #   5

     Self-consistent Calculation

     Pert. #  1: Fermi energy shift (Ry) =     0.0000E+00     0.0000E+00

      iter #   1 total cpu time :  1289.2 secs   av.it.:   7.4
      thresh= 1.000E-02 alpha_mix =  0.700 |ddv_scf|^2 =  5.373E-06

     Pert. #  1: Fermi energy shift (Ry) =     0.0000E+00     0.0000E+00

      iter #   2 total cpu time :  1332.3 secs   av.it.:  10.7
      thresh= 2.318E-04 alpha_mix =  0.700 |ddv_scf|^2 =  9.212E-07

     Pert. #  1: Fermi energy shift (Ry) =     0.0000E+00     0.0000E+00

      iter #   3 total cpu time :  1375.0 secs   av.it.:  10.2
      thresh= 9.598E-05 alpha_mix =  0.700 |ddv_scf|^2 =  6.622E-08

     Pert. #  1: Fermi energy shift (Ry) =     0.0000E+00     0.0000E+00

      iter #   4 total cpu time :  1422.6 secs   av.it.:  10.8
      thresh= 2.573E-05 alpha_mix =  0.700 |ddv_scf|^2 =  1.331E-10

     Pert. #  1: Fermi energy shift (Ry) =     0.0000E+00     0.0000E+00

      iter #   5 total cpu time :  1471.7 secs   av.it.:  10.6
      thresh= 1.154E-06 alpha_mix =  0.700 |ddv_scf|^2 =  1.966E-14

     End of self-consistent calculation

     Convergence has been achieved 


     Representation #   6 mode #   6

     Self-consistent Calculation

     Pert. #  1: Fermi energy shift (Ry) =     0.0000E+00     0.0000E+00

      iter #   1 total cpu time :  1534.6 secs   av.it.:   7.0
      thresh= 1.000E-02 alpha_mix =  0.700 |ddv_scf|^2 =  2.207E-06

     Pert. #  1: Fermi energy shift (Ry) =     0.0000E+00     0.0000E+00

      iter #   2 total cpu time :  1579.1 secs   av.it.:  12.0
      thresh= 1.486E-04 alpha_mix =  0.700 |ddv_scf|^2 =  4.107E-07

     Pert. #  1: Fermi energy shift (Ry) =     0.0000E+00     0.0000E+00

      iter #   3 total cpu time :  1627.7 secs   av.it.:  13.0
      thresh= 6.409E-05 alpha_mix =  0.700 |ddv_scf|^2 =  6.139E-07

     Pert. #  1: Fermi energy shift (Ry) =     0.0000E+00     0.0000E+00

      iter #   4 total cpu time :  1672.9 secs   av.it.:  12.2
      thresh= 7.835E-05 alpha_mix =  0.700 |ddv_scf|^2 =  3.004E-10

     Pert. #  1: Fermi energy shift (Ry) =     0.0000E+00     0.0000E+00

      iter #   5 total cpu time :  1723.9 secs   av.it.:  13.0
      thresh= 1.733E-06 alpha_mix =  0.700 |ddv_scf|^2 =  2.608E-11

     Pert. #  1: Fermi energy shift (Ry) =     0.0000E+00     0.0000E+00

      iter #   6 total cpu time :  1774.9 secs   av.it.:  12.6
      thresh= 5.107E-07 alpha_mix =  0.700 |ddv_scf|^2 =  1.836E-13

     End of self-consistent calculation

     Convergence has been achieved 

     Number of q in the star =    1
     List of q in the star:
          1   0.000000000   0.000000000   0.000000000

     Diagonalizing the dynamical matrix

     q = (    0.000000000   0.000000000   0.000000000 ) 

 **************************************************************************
     freq (    1) =      28.754979 [THz] =     959.162865 [cm-1]
     freq (    2) =      29.528805 [THz] =     984.974925 [cm-1]
     freq (    3) =      29.544249 [THz] =     985.490053 [cm-1]
     freq (    4) =      34.572156 [THz] =    1153.202996 [cm-1]
     freq (    5) =      34.651097 [THz] =    1155.836191 [cm-1]
     freq (    6) =      80.337539 [THz] =    2679.771842 [cm-1]
 **************************************************************************

     Mode symmetry, C_1 (1)     point group:

     freq (   1-   1) =        959.2  [cm-1]   --> A               I+R
     freq (   2-   2) =        985.0  [cm-1]   --> A               I+R
     freq (   3-   3) =        985.5  [cm-1]   --> A               I+R
     freq (   4-   4) =       1153.2  [cm-1]   --> A               I+R
     freq (   5-   5) =       1155.8  [cm-1]   --> A               I+R
     freq (   6-   6) =       2679.8  [cm-1]   --> A               I+R

     PHONON       :  26m18.50s CPU  29m54.93s WALL

     INITIALIZATION: 
     phq_setup    :     12.70s CPU     14.28s WALL (       1 calls)
     phq_init     :    155.42s CPU    159.34s WALL (       1 calls)

     phq_init     :    155.42s CPU    159.34s WALL (       1 calls)
     set_drhoc    :     23.77s CPU     23.86s WALL (       3 calls)
     init_vloc    :      0.17s CPU      0.17s WALL (       1 calls)
     init_us_1    :      0.01s CPU      0.01s WALL (       1 calls)
     newd         :      0.96s CPU      1.03s WALL (       1 calls)
     dvanqq       :     78.29s CPU     79.11s WALL (       1 calls)
     drho         :     38.48s CPU     40.69s WALL (       1 calls)

     DYNAMICAL MATRIX:
     dynmat0      :     22.81s CPU     23.62s WALL (       1 calls)
     phqscf       :   1392.95s CPU   1595.53s WALL (       1 calls)
     dynmatrix    :      0.02s CPU      0.07s WALL (       1 calls)

     phqscf       :   1392.95s CPU   1595.53s WALL (       1 calls)
     solve_linter :   1388.57s CPU   1576.46s WALL (       6 calls)
     drhodv       :      4.38s CPU      4.57s WALL (       6 calls)

     dynmat0      :     22.81s CPU     23.62s WALL (       1 calls)
     dynmat_us    :      0.92s CPU      0.98s WALL (       1 calls)
     d2ionq       :      0.20s CPU      0.20s WALL (       1 calls)
     dynmatcc     :     21.62s CPU     22.29s WALL (       1 calls)

     dynmat_us    :      0.92s CPU      0.98s WALL (       1 calls)
     addusdynmat  :      0.00s CPU      0.00s WALL (       1 calls)

     phqscf       :   1392.95s CPU   1595.53s WALL (       1 calls)
     solve_linter :   1388.57s CPU   1576.46s WALL (       6 calls)

     solve_linter :   1388.57s CPU   1576.46s WALL (       6 calls)
     dvqpsi_us    :     13.98s CPU     14.30s WALL (      18 calls)
     ortho        :      3.12s CPU      3.19s WALL (      96 calls)
     cgsolve      :    461.70s CPU    467.73s WALL (      96 calls)
     incdrhoscf   :     34.90s CPU     35.56s WALL (      96 calls)
     addusddens   :     94.77s CPU     99.98s WALL (      38 calls)
     vpsifft      :     28.43s CPU     28.96s WALL (      78 calls)
     dv_of_drho   :    215.68s CPU    225.07s WALL (      32 calls)
     mix_pot      :     12.37s CPU     52.63s WALL (      32 calls)
     ef_shift     :     30.32s CPU     30.86s WALL (      38 calls)
     localdos     :     38.42s CPU     39.78s WALL (       6 calls)
     psymdvscf    :    160.80s CPU    239.87s WALL (      32 calls)
     newdq        :    128.55s CPU    133.81s WALL (      32 calls)
     adddvscf     :      1.06s CPU      1.07s WALL (      78 calls)
     drhodvus     :     10.59s CPU     19.45s WALL (       6 calls)

     dvqpsi_us    :     13.98s CPU     14.30s WALL (      18 calls)
     dvqpsi_us_on :      0.27s CPU      0.28s WALL (      18 calls)

     cgsolve      :    461.70s CPU    467.73s WALL (      96 calls)
     ch_psi       :    445.01s CPU    450.84s WALL (    1225 calls)

     ch_psi       :    445.01s CPU    450.84s WALL (    1225 calls)
     h_psi        :    398.29s CPU    403.57s WALL (    1225 calls)
     last         :     33.20s CPU     33.57s WALL (    1225 calls)

     h_psi        :    398.29s CPU    403.57s WALL (    1225 calls)
     add_vuspsi   :      8.53s CPU      8.63s WALL (    1225 calls)

     incdrhoscf   :     34.90s CPU     35.56s WALL (      96 calls)
     addusdbec    :      0.88s CPU      0.89s WALL (     114 calls)

     drhodvus     :     10.59s CPU     19.45s WALL (       6 calls)

      General routines
     calbec       :     18.51s CPU     18.81s WALL (    2780 calls)
     fft          :    358.56s CPU    366.33s WALL (    1321 calls)
     ffts         :     22.39s CPU     22.95s WALL (     304 calls)
     fftw         :    375.22s CPU    380.36s WALL (   12937 calls)
     davcio       :      0.14s CPU     43.96s WALL (     722 calls)
     write_rec    :      0.00s CPU     33.66s WALL (      38 calls)


     PHONON       :  26m18.50s CPU  29m54.94s WALL


   This run was terminated on:  23:21:27  20Sep2022            

=------------------------------------------------------------------------------=
   JOB DONE.
=------------------------------------------------------------------------------=
