     Message from routine get_command_line:
     unexpected argument # 4     :-in

     Program PWSCF v.6.7MaX starts on 29Sep2022 at  0:36:15 

     This program is part of the open-source Quantum ESPRESSO suite
     for quantum simulation of materials; please cite
         "P. Giannozzi et al., J. Phys.:Condens. Matter 21 395502 (2009);
         "P. Giannozzi et al., J. Phys.:Condens. Matter 29 465901 (2017);
          URL http://www.quantum-espresso.org", 
     in publications or presentations arising from this work. More details at
     http://www.quantum-espresso.org/quote

     Parallel version (MPI), running on   120 processors

     MPI processes distributed on     1 nodes
     K-points division:     npool     =       8
     R & G space division:  proc/nbgrp/npool/nimage =      15
     Waiting for input...
     Reading input from standard input
Warning: card &CELL ignored
Warning: card / ignored

     Current dimensions of program PWSCF are:
     Max number of different atomic species (ntypx) = 10
     Max number of k-points (npk) =  40000
     Max angular momentum in pseudopotentials (lmaxx) =  3

     IMPORTANT: XC functional enforced from input :
     Exchange-correlation= PBE
                           (   1   4   3   4   0   0   0)
     Any further DFT definition will be discarded
     Please, verify this is what you really want


     -------------------------------------------------
     Parameters for Dispersion (Grimme-D2) Correction:
     -------------------------------------------------
       atom      VdW radius       C_6     

        N          2.640         42.670
        H          1.892          4.857

     Subspace diagonalization in iterative solution of the eigenvalue problem:
     one sub-group per band group will be used
     scalapack distributed-memory algorithm (size of sub-group:  3*  3 procs)


     Parallelization info
     --------------------
     sticks:   dense  smooth     PW     G-vecs:    dense   smooth      PW
     Min        3636    1818    468               639190   225950   29545
     Max        3637    1819    470               639197   225953   29547
     Sum       54553   27281   7033              9587919  3389267  443191



     bravais-lattice index     =            0
     lattice parameter (alat)  =      37.7945  a.u.
     unit-cell volume          =   53986.6760 (a.u.)^3
     number of atoms/cell      =            4
     number of atomic types    =            2
     number of electrons       =         8.00
     number of Kohn-Sham states=            8
     kinetic-energy cutoff     =      60.0000  Ry
     charge density cutoff     =     480.0000  Ry
     scf convergence threshold =      1.0E-08
     mixing beta               =       0.7000
     number of iterations used =           10  plain     mixing
     energy convergence thresh.=      7.3E-07
     force convergence thresh. =      3.9E-04
     Exchange-correlation= PBE
                           (   1   4   3   4   0   0   0)
     nstep                     =          200


     celldm(1)=  37.794522  celldm(2)=   0.000000  celldm(3)=   0.000000
     celldm(4)=   0.000000  celldm(5)=   0.000000  celldm(6)=   0.000000

     crystal axes: (cart. coord. in units of alat)
               a(1) = (   1.000000   0.000000   0.000000 )  
               a(2) = (   0.000000   1.000000   0.000000 )  
               a(3) = (   0.000000   0.000000   1.000000 )  

     reciprocal axes: (cart. coord. in units 2 pi/alat)
               b(1) = (  1.000000  0.000000  0.000000 )  
               b(2) = (  0.000000  1.000000  0.000000 )  
               b(3) = (  0.000000  0.000000  1.000000 )  


     PseudoPot. # 1 for N  read from file:
     ../../SSSP/N.pbe-n-radius_5.UPF
     MD5 check sum: 16739722b17309cd8fe442a2ace49922
     Pseudo is Ultrasoft + core correction, Zval =  5.0
     Generated using "atomic" code by A. Dal Corso  v.5.1
     Using radial grid of 1085 points,  4 beta functions with: 
                l(1) =   0
                l(2) =   0
                l(3) =   1
                l(4) =   1
     Q(r) pseudized with 0 coefficients 


     PseudoPot. # 2 for H  read from file:
     ../../SSSP/H.pbe-rrkjus_psl.1.0.0.UPF
     MD5 check sum: f52b6d4d1c606e5624b1dc7b2218f220
     Pseudo is Ultrasoft, Zval =  1.0
     Generated using "atomic" code by A. Dal Corso  v.5.1
     Using radial grid of  929 points,  2 beta functions with: 
                l(1) =   0
                l(2) =   0
     Q(r) pseudized with 0 coefficients 


     atomic species   valence    mass     pseudopotential
        N              5.00    14.00700     N ( 1.00)
        H              1.00     1.00800     H ( 1.00)

     Starting magnetic structure 
     atomic species   magnetization
        N            0.100
        H            0.100

     No symmetry found



   Cartesian axes

     site n.     atom                  positions (alat units)
         1           N   tau(   1) = (   0.5000000   0.5000000   0.0000000  )
         2           H   tau(   2) = (   0.5000000   0.5478613  -0.0174102  )
         3           H   tau(   3) = (   0.5414491   0.4760695  -0.0174105  )
         4           H   tau(   4) = (   0.4585510   0.4760695  -0.0174106  )

     number of k points=    10  Methfessel-Paxton smearing, width (Ry)=  0.0100
                       cart. coord. in units 2pi/alat
        k(    1) = (   0.0000000   0.0000000   0.0000000), wk =   0.0625000
        k(    2) = (   0.0000000   0.2500000   0.0000000), wk =   0.1250000
        k(    3) = (   0.0000000  -0.5000000   0.0000000), wk =   0.0625000
        k(    4) = (   0.2500000   0.0000000   0.0000000), wk =   0.1250000
        k(    5) = (   0.2500000   0.2500000   0.0000000), wk =   0.1250000
        k(    6) = (   0.2500000  -0.5000000   0.0000000), wk =   0.1250000
        k(    7) = (   0.2500000  -0.2500000   0.0000000), wk =   0.1250000
        k(    8) = (  -0.5000000   0.0000000   0.0000000), wk =   0.0625000
        k(    9) = (  -0.5000000   0.2500000   0.0000000), wk =   0.1250000
        k(   10) = (  -0.5000000  -0.5000000   0.0000000), wk =   0.0625000

     Dense  grid:  9587919 G-vectors     FFT dimensions: ( 270, 270, 270)

     Smooth grid:  3389267 G-vectors     FFT dimensions: ( 192, 192, 192)

     Estimated max dynamical RAM per process >     390.11 MB

     Estimated total dynamical RAM >      45.72 GB

     Atomic positions and unit cell read from directory:
     ./NH3_ESM_VA12.save/
     Atomic positions from file used, from input discarded


     Adding external electric field
        E field amplitude [Ha a.u.]: -2.3644E-02
        Potential amp.       -1.6085 Ry
        Total length         34.0151 bohr

     Generating pointlists ...
     new r_m :   0.0211 (alat units)  0.7989 (a.u.) for type    1
     new r_m :   0.0211 (alat units)  0.7989 (a.u.) for type    2

     The initial density is read from file :
     ./NH3_ESM_VA12.save/charge-density


     negative rho (up, down):  2.124E-04 2.124E-04
     Starting wfcs from file

     total cpu time spent up to now is       21.4 secs

     Self-consistent Calculation

     iteration #  1     ecut=    60.00 Ry     beta= 0.70
     CG style diagonalization
     ethr =  1.00E-04,  avg # of iterations =  2.0

     Threshold (ethr) on eigenvalues was too large:
     Diagonalizing with lowered threshold

     CG style diagonalization
     ethr =  9.01E-10,  avg # of iterations =  2.8

     negative rho (up, down):  2.124E-04 2.124E-04

     total cpu time spent up to now is       45.7 secs

     total energy              =     -23.80262510 Ry
     estimated scf accuracy    <       0.00000019 Ry

     total magnetization       =     0.00 Bohr mag/cell
     absolute magnetization    =     0.00 Bohr mag/cell

     iteration #  2     ecut=    60.00 Ry     beta= 0.70
     CG style diagonalization
     ethr =  2.39E-09,  avg # of iterations =  4.0

     negative rho (up, down):  2.124E-04 2.124E-04

     total cpu time spent up to now is       65.5 secs

     total energy              =     -23.80262514 Ry
     estimated scf accuracy    <       0.00000012 Ry

     total magnetization       =    -0.00 Bohr mag/cell
     absolute magnetization    =     0.00 Bohr mag/cell

     iteration #  3     ecut=    60.00 Ry     beta= 0.70
     CG style diagonalization
     ethr =  1.52E-09,  avg # of iterations =  3.5

     negative rho (up, down):  2.124E-04 2.124E-04

     Magnetic moment per site:
     atom:    1    charge:    1.3544    magn:   -0.0000    constr:    0.0000
     atom:    2    charge:    0.4444    magn:    0.0000    constr:    0.0000
     atom:    3    charge:    0.4450    magn:    0.0000    constr:    0.0000
     atom:    4    charge:    0.4450    magn:    0.0000    constr:    0.0000

     total cpu time spent up to now is       82.7 secs

     End of self-consistent calculation

 ------ SPIN UP ------------


          k = 0.0000 0.0000 0.0000 (423701 PWs)   bands (ev):

   -29.4390 -19.3133 -19.3133 -14.8450  -8.7455  -8.0185  -7.9022  -7.9020

          k = 0.0000 0.2500 0.0000 (423725 PWs)   bands (ev):

   -29.4390 -19.3133 -19.3133 -14.8450  -8.7444  -8.0519  -7.8939  -7.8900

          k = 0.0000-0.5000 0.0000 (423542 PWs)   bands (ev):

   -29.4390 -19.3133 -19.3133 -14.8450  -8.7434  -8.0776  -7.8747  -7.8723

          k = 0.2500 0.0000 0.0000 (423725 PWs)   bands (ev):

   -29.4390 -19.3133 -19.3133 -14.8450  -8.7444  -8.0519  -7.8955  -7.8883

          k = 0.2500 0.2500 0.0000 (423766 PWs)   bands (ev):

   -29.4390 -19.3133 -19.3133 -14.8450  -8.7434  -8.0477  -7.9801  -7.7947

          k = 0.2500-0.5000 0.0000 (423782 PWs)   bands (ev):

   -29.4390 -19.3133 -19.3133 -14.8450  -8.7424  -8.0574  -7.9827  -7.8567

          k = 0.2500-0.2500 0.0000 (423766 PWs)   bands (ev):

   -29.4390 -19.3133 -19.3133 -14.8450  -8.7434  -8.0477  -7.9801  -7.7940

          k =-0.5000 0.0000 0.0000 (423542 PWs)   bands (ev):

   -29.4390 -19.3133 -19.3133 -14.8450  -8.7434  -8.0776  -7.8770  -7.8697

          k =-0.5000 0.2500 0.0000 (423782 PWs)   bands (ev):

   -29.4390 -19.3133 -19.3133 -14.8450  -8.7424  -8.0575  -7.9826  -7.8566

          k =-0.5000-0.5000 0.0000 (423708 PWs)   bands (ev):

   -29.4390 -19.3133 -19.3133 -14.8450  -8.7414  -8.0208  -8.0207  -7.9371

 ------ SPIN DOWN ----------


          k = 0.0000 0.0000 0.0000 (423701 PWs)   bands (ev):

   -29.4390 -19.3133 -19.3133 -14.8450  -8.7455  -8.0185  -7.9022  -7.9020

          k = 0.0000 0.2500 0.0000 (423725 PWs)   bands (ev):

   -29.4390 -19.3133 -19.3133 -14.8450  -8.7444  -8.0519  -7.8939  -7.8900

          k = 0.0000-0.5000 0.0000 (423542 PWs)   bands (ev):

   -29.4390 -19.3133 -19.3133 -14.8450  -8.7434  -8.0776  -7.8747  -7.8723

          k = 0.2500 0.0000 0.0000 (423725 PWs)   bands (ev):

   -29.4390 -19.3133 -19.3133 -14.8450  -8.7444  -8.0519  -7.8955  -7.8883

          k = 0.2500 0.2500 0.0000 (423766 PWs)   bands (ev):

   -29.4390 -19.3133 -19.3133 -14.8450  -8.7434  -8.0477  -7.9801  -7.7947

          k = 0.2500-0.5000 0.0000 (423782 PWs)   bands (ev):

   -29.4390 -19.3133 -19.3133 -14.8450  -8.7424  -8.0574  -7.9827  -7.8567

          k = 0.2500-0.2500 0.0000 (423766 PWs)   bands (ev):

   -29.4390 -19.3133 -19.3133 -14.8450  -8.7434  -8.0477  -7.9801  -7.7944

          k =-0.5000 0.0000 0.0000 (423542 PWs)   bands (ev):

   -29.4390 -19.3133 -19.3133 -14.8450  -8.7434  -8.0776  -7.8770  -7.8697

          k =-0.5000 0.2500 0.0000 (423782 PWs)   bands (ev):

   -29.4390 -19.3133 -19.3133 -14.8450  -8.7424  -8.0575  -7.9826  -7.8566

          k =-0.5000-0.5000 0.0000 (423708 PWs)   bands (ev):

   -29.4390 -19.3133 -19.3133 -14.8450  -8.7414  -8.0208  -8.0207  -7.9371

     the Fermi energy is   -13.0692 ev

!    total energy              =     -23.80262517 Ry
     estimated scf accuracy    <          8.1E-10 Ry
     smearing contrib. (-TS)   =       0.00000000 Ry
     internal energy E=F+TS    =     -23.80262517 Ry

     The total energy is F=E-TS. E is the sum of the following terms:
     one-electron contribution =     -64.81045189 Ry
     hartree contribution      =      31.03275537 Ry
     xc contribution           =      -7.58175838 Ry
     ewald contribution        =      12.67064090 Ry
     Dispersion Correction     =      -0.00026551 Ry
     electric field correction =       4.88645433 Ry

     total magnetization       =    -0.00 Bohr mag/cell
     absolute magnetization    =     0.00 Bohr mag/cell

     convergence has been achieved in   3 iterations

     negative rho (up, down):  2.124E-04 2.124E-04

     Forces acting on atoms (cartesian axes, Ry/au):

     atom    1 type  1   force =    -0.00000005   -0.00000033   -0.00109660
     atom    2 type  2   force =     0.00000004    0.00004566    0.00036561
     atom    3 type  2   force =     0.00003957   -0.00002264    0.00036547
     atom    4 type  2   force =    -0.00003956   -0.00002268    0.00036551

     Total force =     0.000638     Total SCF correction =     0.000006
     Energy error            =      9.5E-07
     Gradient error          =      3.7E-04

     number of scf cycles    =  51
     number of bfgs steps    =   8

     energy   old            =     -23.8026261162 Ry
     energy   new            =     -23.8026251674 Ry

     CASE: energy  _new > energy  _old

     new trust radius        =       0.0002178364 bohr
     new conv_thr            =       0.0000000100 Ry


ATOMIC_POSITIONS (angstrom)
N            10.0000000000       10.0000000000        0.0000000000    0   0   0
H            10.0000003427       10.9262856645       -0.4392264530
H            10.8021849217        9.5368614745       -0.4392345710
H             9.1978160347        9.5368615899       -0.4392364751



     Writing output data file ./NH3_ESM_VA12.save/
     NEW-OLD atomic charge density approx. for the potential

     negative rho (up, down):  2.123E-04 2.123E-04

     Adding external electric field
        E field amplitude [Ha a.u.]: -2.3644E-02
        Potential amp.       -1.6085 Ry
        Total length         34.0151 bohr

     Generating pointlists ...

     total cpu time spent up to now is      103.5 secs

     Self-consistent Calculation

     iteration #  1     ecut=    60.00 Ry     beta= 0.70
     CG style diagonalization
     ethr =  1.00E-06,  avg # of iterations =  2.0

     Threshold (ethr) on eigenvalues was too large:
     Diagonalizing with lowered threshold

     CG style diagonalization
     ethr =  1.14E-09,  avg # of iterations =  2.8

     negative rho (up, down):  2.123E-04 2.123E-04

     total cpu time spent up to now is      127.8 secs

     total energy              =     -23.80262587 Ry
     estimated scf accuracy    <       0.00000015 Ry

     total magnetization       =    -0.00 Bohr mag/cell
     absolute magnetization    =     0.00 Bohr mag/cell

     iteration #  2     ecut=    60.00 Ry     beta= 0.70
     CG style diagonalization
     ethr =  1.86E-09,  avg # of iterations =  3.8

     negative rho (up, down):  2.123E-04 2.123E-04

     total cpu time spent up to now is      147.1 secs

     total energy              =     -23.80262591 Ry
     estimated scf accuracy    <       0.00000005 Ry

     total magnetization       =    -0.00 Bohr mag/cell
     absolute magnetization    =     0.00 Bohr mag/cell

     iteration #  3     ecut=    60.00 Ry     beta= 0.70
     CG style diagonalization
     ethr =  6.61E-10,  avg # of iterations =  3.5

     negative rho (up, down):  2.123E-04 2.123E-04

     Magnetic moment per site:
     atom:    1    charge:    1.3543    magn:    0.0000    constr:    0.0000
     atom:    2    charge:    0.4442    magn:    0.0000    constr:    0.0000
     atom:    3    charge:    0.4448    magn:    0.0000    constr:    0.0000
     atom:    4    charge:    0.4448    magn:    0.0000    constr:    0.0000

     total cpu time spent up to now is      164.3 secs

     End of self-consistent calculation

 ------ SPIN UP ------------


          k = 0.0000 0.0000 0.0000 (423701 PWs)   bands (ev):

   -29.4365 -19.3112 -19.3112 -14.8452  -8.7460  -8.0185  -7.9022  -7.9021

          k = 0.0000 0.2500 0.0000 (423725 PWs)   bands (ev):

   -29.4365 -19.3112 -19.3112 -14.8452  -8.7449  -8.0519  -7.8940  -7.8900

          k = 0.0000-0.5000 0.0000 (423542 PWs)   bands (ev):

   -29.4365 -19.3112 -19.3112 -14.8452  -8.7438  -8.0776  -7.8748  -7.8724

          k = 0.2500 0.0000 0.0000 (423725 PWs)   bands (ev):

   -29.4365 -19.3112 -19.3112 -14.8452  -8.7449  -8.0519  -7.8956  -7.8883

          k = 0.2500 0.2500 0.0000 (423766 PWs)   bands (ev):

   -29.4365 -19.3112 -19.3112 -14.8452  -8.7439  -8.0477  -7.9801  -7.7947

          k = 0.2500-0.5000 0.0000 (423782 PWs)   bands (ev):

   -29.4365 -19.3112 -19.3112 -14.8452  -8.7429  -8.0574  -7.9827  -7.8567

          k = 0.2500-0.2500 0.0000 (423766 PWs)   bands (ev):

   -29.4365 -19.3112 -19.3112 -14.8452  -8.7439  -8.0477  -7.9801  -7.7941

          k =-0.5000 0.0000 0.0000 (423542 PWs)   bands (ev):

   -29.4365 -19.3112 -19.3112 -14.8452  -8.7438  -8.0776  -7.8771  -7.8698

          k =-0.5000 0.2500 0.0000 (423782 PWs)   bands (ev):

   -29.4365 -19.3112 -19.3112 -14.8452  -8.7429  -8.0575  -7.9827  -7.8567

          k =-0.5000-0.5000 0.0000 (423708 PWs)   bands (ev):

   -29.4365 -19.3112 -19.3112 -14.8452  -8.7419  -8.0208  -8.0207  -7.9371

 ------ SPIN DOWN ----------


          k = 0.0000 0.0000 0.0000 (423701 PWs)   bands (ev):

   -29.4365 -19.3112 -19.3112 -14.8452  -8.7460  -8.0185  -7.9022  -7.9021

          k = 0.0000 0.2500 0.0000 (423725 PWs)   bands (ev):

   -29.4365 -19.3112 -19.3112 -14.8452  -8.7449  -8.0519  -7.8940  -7.8900

          k = 0.0000-0.5000 0.0000 (423542 PWs)   bands (ev):

   -29.4365 -19.3112 -19.3112 -14.8452  -8.7438  -8.0776  -7.8748  -7.8724

          k = 0.2500 0.0000 0.0000 (423725 PWs)   bands (ev):

   -29.4365 -19.3112 -19.3112 -14.8452  -8.7449  -8.0519  -7.8956  -7.8883

          k = 0.2500 0.2500 0.0000 (423766 PWs)   bands (ev):

   -29.4365 -19.3112 -19.3112 -14.8452  -8.7439  -8.0477  -7.9801  -7.7947

          k = 0.2500-0.5000 0.0000 (423782 PWs)   bands (ev):

   -29.4365 -19.3112 -19.3112 -14.8452  -8.7429  -8.0574  -7.9827  -7.8567

          k = 0.2500-0.2500 0.0000 (423766 PWs)   bands (ev):

   -29.4365 -19.3112 -19.3112 -14.8452  -8.7439  -8.0477  -7.9801  -7.7945

          k =-0.5000 0.0000 0.0000 (423542 PWs)   bands (ev):

   -29.4365 -19.3112 -19.3112 -14.8452  -8.7438  -8.0776  -7.8771  -7.8698

          k =-0.5000 0.2500 0.0000 (423782 PWs)   bands (ev):

   -29.4365 -19.3112 -19.3112 -14.8452  -8.7429  -8.0575  -7.9827  -7.8567

          k =-0.5000-0.5000 0.0000 (423708 PWs)   bands (ev):

   -29.4365 -19.3112 -19.3112 -14.8452  -8.7419  -8.0208  -8.0207  -7.9371

     the Fermi energy is   -13.0686 ev

!    total energy              =     -23.80262592 Ry
     estimated scf accuracy    <          1.5E-09 Ry
     smearing contrib. (-TS)   =       0.00000000 Ry
     internal energy E=F+TS    =     -23.80262592 Ry

     The total energy is F=E-TS. E is the sum of the following terms:
     one-electron contribution =     -64.80399906 Ry
     hartree contribution      =      31.02958521 Ry
     xc contribution           =      -7.58118426 Ry
     ewald contribution        =      12.66683972 Ry
     Dispersion Correction     =      -0.00026593 Ry
     electric field correction =       4.88639840 Ry

     total magnetization       =     0.00 Bohr mag/cell
     absolute magnetization    =     0.00 Bohr mag/cell

     convergence has been achieved in   3 iterations

     negative rho (up, down):  2.123E-04 2.123E-04

     Forces acting on atoms (cartesian axes, Ry/au):

     atom    1 type  1   force =    -0.00000004   -0.00000039   -0.00151512
     atom    2 type  2   force =     0.00000004   -0.00028389    0.00050510
     atom    3 type  2   force =    -0.00024584    0.00014216    0.00050499
     atom    4 type  2   force =     0.00024584    0.00014211    0.00050503

     Total force =     0.001004     Total SCF correction =     0.000013
     Energy error            =      1.9E-07
     Gradient error          =      5.1E-04

     number of scf cycles    =  52
     number of bfgs steps    =   8

     energy   old            =     -23.8026261162 Ry
     energy   new            =     -23.8026259239 Ry

     CASE: energy  _new > energy  _old

     new trust radius        =       0.0000769820 bohr

     trust_radius < trust_radius_min

     resetting bfgs history

     new conv_thr            =       0.0000000100 Ry


ATOMIC_POSITIONS (angstrom)
N            10.0000000000       10.0000000000        0.0000000000    0   0   0
H            10.0000003596       10.9261303089       -0.4390177923
H            10.8020503850        9.5369392367       -0.4390259515
H             9.1979505733        9.5369393334       -0.4390278380



     Writing output data file ./NH3_ESM_VA12.save/
     NEW-OLD atomic charge density approx. for the potential

     negative rho (up, down):  2.124E-04 2.124E-04

     Adding external electric field
        E field amplitude [Ha a.u.]: -2.3644E-02
        Potential amp.       -1.6085 Ry
        Total length         34.0151 bohr

     Generating pointlists ...

     total cpu time spent up to now is      185.1 secs

     Self-consistent Calculation

     iteration #  1     ecut=    60.00 Ry     beta= 0.70
     CG style diagonalization
     ethr =  1.00E-06,  avg # of iterations =  2.0

     Threshold (ethr) on eigenvalues was too large:
     Diagonalizing with lowered threshold

     CG style diagonalization
     ethr =  1.26E-09,  avg # of iterations =  2.8

     negative rho (up, down):  2.124E-04 2.124E-04

     total cpu time spent up to now is      209.5 secs

     total energy              =     -23.80262511 Ry
     estimated scf accuracy    <       0.00000019 Ry

     total magnetization       =     0.00 Bohr mag/cell
     absolute magnetization    =     0.00 Bohr mag/cell

     iteration #  2     ecut=    60.00 Ry     beta= 0.70
     CG style diagonalization
     ethr =  2.37E-09,  avg # of iterations =  3.8

     negative rho (up, down):  2.124E-04 2.124E-04

     total cpu time spent up to now is      228.8 secs

     total energy              =     -23.80262515 Ry
     estimated scf accuracy    <       0.00000008 Ry

     total magnetization       =     0.00 Bohr mag/cell
     absolute magnetization    =     0.00 Bohr mag/cell

     iteration #  3     ecut=    60.00 Ry     beta= 0.70
     CG style diagonalization
     ethr =  1.00E-09,  avg # of iterations =  3.5

     negative rho (up, down):  2.124E-04 2.124E-04

     Magnetic moment per site:
     atom:    1    charge:    1.3544    magn:    0.0000    constr:    0.0000
     atom:    2    charge:    0.4444    magn:   -0.0000    constr:    0.0000
     atom:    3    charge:    0.4450    magn:   -0.0000    constr:    0.0000
     atom:    4    charge:    0.4450    magn:   -0.0000    constr:    0.0000

     total cpu time spent up to now is      245.9 secs

     End of self-consistent calculation

 ------ SPIN UP ------------


          k = 0.0000 0.0000 0.0000 (423701 PWs)   bands (ev):

   -29.4389 -19.3133 -19.3133 -14.8450  -8.7455  -8.0185  -7.9022  -7.9020

          k = 0.0000 0.2500 0.0000 (423725 PWs)   bands (ev):

   -29.4389 -19.3133 -19.3133 -14.8450  -8.7444  -8.0519  -7.8939  -7.8900

          k = 0.0000-0.5000 0.0000 (423542 PWs)   bands (ev):

   -29.4389 -19.3133 -19.3133 -14.8450  -8.7434  -8.0776  -7.8747  -7.8723

          k = 0.2500 0.0000 0.0000 (423725 PWs)   bands (ev):

   -29.4389 -19.3133 -19.3133 -14.8450  -8.7444  -8.0519  -7.8955  -7.8883

          k = 0.2500 0.2500 0.0000 (423766 PWs)   bands (ev):

   -29.4389 -19.3133 -19.3133 -14.8450  -8.7434  -8.0477  -7.9801  -7.7947

          k = 0.2500-0.5000 0.0000 (423782 PWs)   bands (ev):

   -29.4389 -19.3133 -19.3133 -14.8450  -8.7424  -8.0574  -7.9826  -7.8567

          k = 0.2500-0.2500 0.0000 (423766 PWs)   bands (ev):

   -29.4389 -19.3133 -19.3133 -14.8450  -8.7434  -8.0477  -7.9801  -7.7941

          k =-0.5000 0.0000 0.0000 (423542 PWs)   bands (ev):

   -29.4389 -19.3133 -19.3133 -14.8450  -8.7434  -8.0776  -7.8770  -7.8697

          k =-0.5000 0.2500 0.0000 (423782 PWs)   bands (ev):

   -29.4389 -19.3133 -19.3133 -14.8450  -8.7424  -8.0575  -7.9826  -7.8566

          k =-0.5000-0.5000 0.0000 (423708 PWs)   bands (ev):

   -29.4389 -19.3133 -19.3133 -14.8450  -8.7414  -8.0208  -8.0207  -7.9371

 ------ SPIN DOWN ----------


          k = 0.0000 0.0000 0.0000 (423701 PWs)   bands (ev):

   -29.4389 -19.3133 -19.3133 -14.8450  -8.7455  -8.0185  -7.9022  -7.9020

          k = 0.0000 0.2500 0.0000 (423725 PWs)   bands (ev):

   -29.4389 -19.3133 -19.3133 -14.8450  -8.7444  -8.0519  -7.8939  -7.8900

          k = 0.0000-0.5000 0.0000 (423542 PWs)   bands (ev):

   -29.4389 -19.3133 -19.3133 -14.8450  -8.7434  -8.0776  -7.8747  -7.8723

          k = 0.2500 0.0000 0.0000 (423725 PWs)   bands (ev):

   -29.4389 -19.3133 -19.3133 -14.8450  -8.7444  -8.0519  -7.8955  -7.8883

          k = 0.2500 0.2500 0.0000 (423766 PWs)   bands (ev):

   -29.4389 -19.3133 -19.3133 -14.8450  -8.7434  -8.0477  -7.9801  -7.7947

          k = 0.2500-0.5000 0.0000 (423782 PWs)   bands (ev):

   -29.4389 -19.3133 -19.3133 -14.8450  -8.7424  -8.0574  -7.9826  -7.8567

          k = 0.2500-0.2500 0.0000 (423766 PWs)   bands (ev):

   -29.4389 -19.3133 -19.3133 -14.8450  -8.7434  -8.0477  -7.9801  -7.7944

          k =-0.5000 0.0000 0.0000 (423542 PWs)   bands (ev):

   -29.4389 -19.3133 -19.3133 -14.8450  -8.7434  -8.0776  -7.8770  -7.8697

          k =-0.5000 0.2500 0.0000 (423782 PWs)   bands (ev):

   -29.4389 -19.3133 -19.3133 -14.8450  -8.7424  -8.0575  -7.9826  -7.8566

          k =-0.5000-0.5000 0.0000 (423708 PWs)   bands (ev):

   -29.4389 -19.3133 -19.3133 -14.8450  -8.7414  -8.0208  -8.0207  -7.9371

     the Fermi energy is   -13.0692 ev

!    total energy              =     -23.80262517 Ry
     estimated scf accuracy    <          9.4E-10 Ry
     smearing contrib. (-TS)   =       0.00000000 Ry
     internal energy E=F+TS    =     -23.80262517 Ry

     The total energy is F=E-TS. E is the sum of the following terms:
     one-electron contribution =     -64.81047985 Ry
     hartree contribution      =      31.03278590 Ry
     xc contribution           =      -7.58176095 Ry
     ewald contribution        =      12.67064090 Ry
     Dispersion Correction     =      -0.00026551 Ry
     electric field correction =       4.88645433 Ry

     total magnetization       =    -0.00 Bohr mag/cell
     absolute magnetization    =     0.00 Bohr mag/cell

     convergence has been achieved in   3 iterations

     negative rho (up, down):  2.124E-04 2.124E-04

     Forces acting on atoms (cartesian axes, Ry/au):

     atom    1 type  1   force =    -0.00000005   -0.00000033   -0.00109421
     atom    2 type  2   force =     0.00000004    0.00003735    0.00036481
     atom    3 type  2   force =     0.00003237   -0.00001849    0.00036468
     atom    4 type  2   force =    -0.00003236   -0.00001853    0.00036472

     Total force =     0.000635     Total SCF correction =     0.000005
     Energy error            =      9.5E-07
     Gradient error          =      3.6E-04

     number of scf cycles    =  53
     number of bfgs steps    =   8

     energy   old            =     -23.8026261162 Ry
     energy   new            =     -23.8026251705 Ry

     CASE: energy  _new > energy  _old

     new trust radius        =       0.0002181044 bohr
     new conv_thr            =       0.0000000100 Ry


ATOMIC_POSITIONS (angstrom)
N            10.0000000000       10.0000000000        0.0000000000    0   0   0
H            10.0000003428       10.9262855799       -0.4392263393
H            10.8021848483        9.5368615169       -0.4392344573
H             9.1978161080        9.5368616323       -0.4392363614



     Writing output data file ./NH3_ESM_VA12.save/
     NEW-OLD atomic charge density approx. for the potential

     negative rho (up, down):  2.123E-04 2.123E-04

     Adding external electric field
        E field amplitude [Ha a.u.]: -2.3644E-02
        Potential amp.       -1.6085 Ry
        Total length         34.0151 bohr

     Generating pointlists ...

     total cpu time spent up to now is      266.6 secs

     Self-consistent Calculation

     iteration #  1     ecut=    60.00 Ry     beta= 0.70
     CG style diagonalization
     ethr =  1.00E-06,  avg # of iterations =  2.0

     Threshold (ethr) on eigenvalues was too large:
     Diagonalizing with lowered threshold

     CG style diagonalization
     ethr =  1.04E-09,  avg # of iterations =  3.0

     negative rho (up, down):  2.123E-04 2.123E-04

     total cpu time spent up to now is      291.4 secs

     total energy              =     -23.80262582 Ry
     estimated scf accuracy    <       0.00000024 Ry

     total magnetization       =    -0.00 Bohr mag/cell
     absolute magnetization    =     0.00 Bohr mag/cell

     iteration #  2     ecut=    60.00 Ry     beta= 0.70
     CG style diagonalization
     ethr =  2.99E-09,  avg # of iterations =  4.0

     negative rho (up, down):  2.123E-04 2.123E-04

     total cpu time spent up to now is      311.3 secs

     total energy              =     -23.80262588 Ry
     estimated scf accuracy    <       0.00000017 Ry

     total magnetization       =     0.00 Bohr mag/cell
     absolute magnetization    =     0.00 Bohr mag/cell

     iteration #  3     ecut=    60.00 Ry     beta= 0.70
     CG style diagonalization
     ethr =  2.15E-09,  avg # of iterations =  3.5

     negative rho (up, down):  2.123E-04 2.123E-04

     Magnetic moment per site:
     atom:    1    charge:    1.3543    magn:   -0.0000    constr:    0.0000
     atom:    2    charge:    0.4442    magn:   -0.0000    constr:    0.0000
     atom:    3    charge:    0.4448    magn:    0.0000    constr:    0.0000
     atom:    4    charge:    0.4448    magn:    0.0000    constr:    0.0000

     total cpu time spent up to now is      328.5 secs

     End of self-consistent calculation

 ------ SPIN UP ------------


          k = 0.0000 0.0000 0.0000 (423701 PWs)   bands (ev):

   -29.4367 -19.3113 -19.3113 -14.8453  -8.7460  -8.0185  -7.9023  -7.9021

          k = 0.0000 0.2500 0.0000 (423725 PWs)   bands (ev):

   -29.4367 -19.3113 -19.3113 -14.8453  -8.7449  -8.0519  -7.8940  -7.8901

          k = 0.0000-0.5000 0.0000 (423542 PWs)   bands (ev):

   -29.4367 -19.3113 -19.3113 -14.8453  -8.7439  -8.0776  -7.8748  -7.8724

          k = 0.2500 0.0000 0.0000 (423725 PWs)   bands (ev):

   -29.4367 -19.3113 -19.3113 -14.8453  -8.7449  -8.0519  -7.8956  -7.8883

          k = 0.2500 0.2500 0.0000 (423766 PWs)   bands (ev):

   -29.4367 -19.3113 -19.3113 -14.8453  -8.7439  -8.0477  -7.9801  -7.7948

          k = 0.2500-0.5000 0.0000 (423782 PWs)   bands (ev):

   -29.4367 -19.3113 -19.3113 -14.8453  -8.7429  -8.0575  -7.9827  -7.8567

          k = 0.2500-0.2500 0.0000 (423766 PWs)   bands (ev):

   -29.4367 -19.3113 -19.3113 -14.8453  -8.7439  -8.0477  -7.9801  -7.7941

          k =-0.5000 0.0000 0.0000 (423542 PWs)   bands (ev):

   -29.4367 -19.3113 -19.3113 -14.8453  -8.7439  -8.0776  -7.8771  -7.8698

          k =-0.5000 0.2500 0.0000 (423782 PWs)   bands (ev):

   -29.4367 -19.3113 -19.3113 -14.8453  -8.7429  -8.0575  -7.9827  -7.8567

          k =-0.5000-0.5000 0.0000 (423708 PWs)   bands (ev):

   -29.4367 -19.3113 -19.3113 -14.8453  -8.7419  -8.0209  -8.0207  -7.9371

 ------ SPIN DOWN ----------


          k = 0.0000 0.0000 0.0000 (423701 PWs)   bands (ev):

   -29.4367 -19.3113 -19.3113 -14.8453  -8.7460  -8.0185  -7.9023  -7.9021

          k = 0.0000 0.2500 0.0000 (423725 PWs)   bands (ev):

   -29.4367 -19.3113 -19.3113 -14.8453  -8.7449  -8.0519  -7.8940  -7.8901

          k = 0.0000-0.5000 0.0000 (423542 PWs)   bands (ev):

   -29.4367 -19.3113 -19.3113 -14.8453  -8.7439  -8.0776  -7.8748  -7.8724

          k = 0.2500 0.0000 0.0000 (423725 PWs)   bands (ev):

   -29.4367 -19.3113 -19.3113 -14.8453  -8.7449  -8.0519  -7.8956  -7.8883

          k = 0.2500 0.2500 0.0000 (423766 PWs)   bands (ev):

   -29.4367 -19.3113 -19.3113 -14.8453  -8.7439  -8.0477  -7.9801  -7.7948

          k = 0.2500-0.5000 0.0000 (423782 PWs)   bands (ev):

   -29.4367 -19.3113 -19.3113 -14.8453  -8.7429  -8.0575  -7.9827  -7.8567

          k = 0.2500-0.2500 0.0000 (423766 PWs)   bands (ev):

   -29.4367 -19.3113 -19.3113 -14.8453  -8.7439  -8.0477  -7.9801  -7.7945

          k =-0.5000 0.0000 0.0000 (423542 PWs)   bands (ev):

   -29.4367 -19.3113 -19.3113 -14.8453  -8.7439  -8.0776  -7.8771  -7.8698

          k =-0.5000 0.2500 0.0000 (423782 PWs)   bands (ev):

   -29.4367 -19.3113 -19.3113 -14.8453  -8.7429  -8.0575  -7.9827  -7.8567

          k =-0.5000-0.5000 0.0000 (423708 PWs)   bands (ev):

   -29.4367 -19.3113 -19.3113 -14.8453  -8.7419  -8.0209  -8.0207  -7.9371

     the Fermi energy is   -13.0687 ev

!    total energy              =     -23.80262592 Ry
     estimated scf accuracy    <          2.2E-09 Ry
     smearing contrib. (-TS)   =       0.00000000 Ry
     internal energy E=F+TS    =     -23.80262592 Ry

     The total energy is F=E-TS. E is the sum of the following terms:
     one-electron contribution =     -64.80425308 Ry
     hartree contribution      =      31.02989116 Ry
     xc contribution           =      -7.58123829 Ry
     ewald contribution        =      12.66684179 Ry
     Dispersion Correction     =      -0.00026593 Ry
     electric field correction =       4.88639843 Ry

     total magnetization       =    -0.00 Bohr mag/cell
     absolute magnetization    =     0.00 Bohr mag/cell

     convergence has been achieved in   3 iterations

     negative rho (up, down):  2.123E-04 2.123E-04

     Forces acting on atoms (cartesian axes, Ry/au):

     atom    1 type  1   force =     0.00000069   -0.00000104   -0.00152178
     atom    2 type  2   force =    -0.00000021   -0.00030183    0.00050743
     atom    3 type  2   force =    -0.00026183    0.00015147    0.00050707
     atom    4 type  2   force =     0.00026135    0.00015140    0.00050729

     Total force =     0.001023     Total SCF correction =     0.000020
     Energy error            =      2.0E-07
     Gradient error          =      5.1E-04

     number of scf cycles    =  54
     number of bfgs steps    =   8

     energy   old            =     -23.8026261162 Ry
     energy   new            =     -23.8026259206 Ry

     CASE: energy  _new > energy  _old

     new trust radius        =       0.0000767211 bohr

     trust_radius < trust_radius_min

     resetting bfgs history

     new conv_thr            =       0.0000000100 Ry


ATOMIC_POSITIONS (angstrom)
N            10.0000000000       10.0000000000        0.0000000000    0   0   0
H            10.0000003596       10.9261303089       -0.4390177923
H            10.8020503850        9.5369392367       -0.4390259515
H             9.1979505733        9.5369393334       -0.4390278380



     Writing output data file ./NH3_ESM_VA12.save/
     NEW-OLD atomic charge density approx. for the potential

     negative rho (up, down):  2.124E-04 2.124E-04

     Adding external electric field
        E field amplitude [Ha a.u.]: -2.3644E-02
        Potential amp.       -1.6085 Ry
        Total length         34.0151 bohr

     Generating pointlists ...

     total cpu time spent up to now is      349.2 secs

     Self-consistent Calculation

     iteration #  1     ecut=    60.00 Ry     beta= 0.70
     CG style diagonalization
     ethr =  1.00E-06,  avg # of iterations =  2.0

     Threshold (ethr) on eigenvalues was too large:
     Diagonalizing with lowered threshold

     CG style diagonalization
     ethr =  7.23E-10,  avg # of iterations =  2.8

     negative rho (up, down):  2.124E-04 2.124E-04

     total cpu time spent up to now is      373.6 secs

     total energy              =     -23.80262514 Ry
     estimated scf accuracy    <       0.00000011 Ry

     total magnetization       =     0.00 Bohr mag/cell
     absolute magnetization    =     0.00 Bohr mag/cell

     iteration #  2     ecut=    60.00 Ry     beta= 0.70
     CG style diagonalization
     ethr =  1.42E-09,  avg # of iterations =  3.9

     negative rho (up, down):  2.124E-04 2.124E-04

     total cpu time spent up to now is      393.1 secs

     total energy              =     -23.80262516 Ry
     estimated scf accuracy    <       0.00000004 Ry

     total magnetization       =     0.00 Bohr mag/cell
     absolute magnetization    =     0.00 Bohr mag/cell

     iteration #  3     ecut=    60.00 Ry     beta= 0.70
     CG style diagonalization
     ethr =  5.31E-10,  avg # of iterations =  3.5

     negative rho (up, down):  2.124E-04 2.124E-04

     Magnetic moment per site:
     atom:    1    charge:    1.3544    magn:   -0.0000    constr:    0.0000
     atom:    2    charge:    0.4444    magn:   -0.0000    constr:    0.0000
     atom:    3    charge:    0.4450    magn:    0.0000    constr:    0.0000
     atom:    4    charge:    0.4450    magn:   -0.0000    constr:    0.0000

     total cpu time spent up to now is      410.3 secs

     End of self-consistent calculation

 ------ SPIN UP ------------


          k = 0.0000 0.0000 0.0000 (423701 PWs)   bands (ev):

   -29.4390 -19.3133 -19.3133 -14.8450  -8.7455  -8.0185  -7.9022  -7.9020

          k = 0.0000 0.2500 0.0000 (423725 PWs)   bands (ev):

   -29.4390 -19.3133 -19.3133 -14.8450  -8.7444  -8.0519  -7.8939  -7.8900

          k = 0.0000-0.5000 0.0000 (423542 PWs)   bands (ev):

   -29.4390 -19.3133 -19.3133 -14.8450  -8.7434  -8.0776  -7.8747  -7.8723

          k = 0.2500 0.0000 0.0000 (423725 PWs)   bands (ev):

   -29.4390 -19.3133 -19.3133 -14.8450  -8.7444  -8.0519  -7.8955  -7.8883

          k = 0.2500 0.2500 0.0000 (423766 PWs)   bands (ev):

   -29.4390 -19.3133 -19.3133 -14.8450  -8.7434  -8.0477  -7.9801  -7.7948

          k = 0.2500-0.5000 0.0000 (423782 PWs)   bands (ev):

   -29.4390 -19.3133 -19.3133 -14.8450  -8.7424  -8.0574  -7.9827  -7.8567

          k = 0.2500-0.2500 0.0000 (423766 PWs)   bands (ev):

   -29.4390 -19.3133 -19.3133 -14.8450  -8.7434  -8.0477  -7.9801  -7.7941

          k =-0.5000 0.0000 0.0000 (423542 PWs)   bands (ev):

   -29.4390 -19.3133 -19.3133 -14.8450  -8.7434  -8.0776  -7.8770  -7.8697

          k =-0.5000 0.2500 0.0000 (423782 PWs)   bands (ev):

   -29.4390 -19.3133 -19.3133 -14.8450  -8.7424  -8.0575  -7.9826  -7.8566

          k =-0.5000-0.5000 0.0000 (423708 PWs)   bands (ev):

   -29.4390 -19.3133 -19.3133 -14.8450  -8.7414  -8.0208  -8.0207  -7.9371

 ------ SPIN DOWN ----------


          k = 0.0000 0.0000 0.0000 (423701 PWs)   bands (ev):

   -29.4390 -19.3133 -19.3133 -14.8450  -8.7455  -8.0185  -7.9022  -7.9020

          k = 0.0000 0.2500 0.0000 (423725 PWs)   bands (ev):

   -29.4390 -19.3133 -19.3133 -14.8450  -8.7444  -8.0519  -7.8939  -7.8900

          k = 0.0000-0.5000 0.0000 (423542 PWs)   bands (ev):

   -29.4390 -19.3133 -19.3133 -14.8450  -8.7434  -8.0776  -7.8747  -7.8723

          k = 0.2500 0.0000 0.0000 (423725 PWs)   bands (ev):

   -29.4390 -19.3133 -19.3133 -14.8450  -8.7444  -8.0519  -7.8955  -7.8883

          k = 0.2500 0.2500 0.0000 (423766 PWs)   bands (ev):

   -29.4390 -19.3133 -19.3133 -14.8450  -8.7434  -8.0477  -7.9801  -7.7948

          k = 0.2500-0.5000 0.0000 (423782 PWs)   bands (ev):

   -29.4390 -19.3133 -19.3133 -14.8450  -8.7424  -8.0574  -7.9827  -7.8567

          k = 0.2500-0.2500 0.0000 (423766 PWs)   bands (ev):

   -29.4390 -19.3133 -19.3133 -14.8450  -8.7434  -8.0477  -7.9801  -7.7945

          k =-0.5000 0.0000 0.0000 (423542 PWs)   bands (ev):

   -29.4390 -19.3133 -19.3133 -14.8450  -8.7434  -8.0776  -7.8770  -7.8697

          k =-0.5000 0.2500 0.0000 (423782 PWs)   bands (ev):

   -29.4390 -19.3133 -19.3133 -14.8450  -8.7424  -8.0575  -7.9826  -7.8567

          k =-0.5000-0.5000 0.0000 (423708 PWs)   bands (ev):

   -29.4390 -19.3133 -19.3133 -14.8450  -8.7414  -8.0208  -8.0207  -7.9371

     the Fermi energy is   -13.0693 ev

!    total energy              =     -23.80262517 Ry
     estimated scf accuracy    <          1.1E-09 Ry
     smearing contrib. (-TS)   =       0.00000000 Ry
     internal energy E=F+TS    =     -23.80262517 Ry

     The total energy is F=E-TS. E is the sum of the following terms:
     one-electron contribution =     -64.81052466 Ry
     hartree contribution      =      31.03284155 Ry
     xc contribution           =      -7.58177180 Ry
     ewald contribution        =      12.67064090 Ry
     Dispersion Correction     =      -0.00026551 Ry
     electric field correction =       4.88645433 Ry

     total magnetization       =     0.00 Bohr mag/cell
     absolute magnetization    =     0.00 Bohr mag/cell

     convergence has been achieved in   3 iterations

     negative rho (up, down):  2.124E-04 2.124E-04

     Forces acting on atoms (cartesian axes, Ry/au):

     atom    1 type  1   force =     0.00000010   -0.00000046   -0.00109797
     atom    2 type  2   force =    -0.00000001    0.00003645    0.00036606
     atom    3 type  2   force =     0.00003146   -0.00001795    0.00036593
     atom    4 type  2   force =    -0.00003155   -0.00001803    0.00036598

     Total force =     0.000637     Total SCF correction =     0.000011
     Energy error            =      9.5E-07
     Gradient error          =      3.7E-04

     number of scf cycles    =  55
     number of bfgs steps    =   8

     energy   old            =     -23.8026261162 Ry
     energy   new            =     -23.8026251705 Ry

     CASE: energy  _new > energy  _old

     new trust radius        =       0.0002181076 bohr
     new conv_thr            =       0.0000000100 Ry


ATOMIC_POSITIONS (angstrom)
N            10.0000000000       10.0000000000        0.0000000000    0   0   0
H            10.0000003428       10.9262855789       -0.4392263379
H            10.8021848475        9.5368615174       -0.4392344559
H             9.1978161089        9.5368616328       -0.4392363600



     Writing output data file ./NH3_ESM_VA12.save/
     NEW-OLD atomic charge density approx. for the potential

     negative rho (up, down):  2.123E-04 2.123E-04

     Adding external electric field
        E field amplitude [Ha a.u.]: -2.3644E-02
        Potential amp.       -1.6085 Ry
        Total length         34.0151 bohr

     Generating pointlists ...

     total cpu time spent up to now is      431.2 secs

     Self-consistent Calculation

     iteration #  1     ecut=    60.00 Ry     beta= 0.70
     CG style diagonalization
     ethr =  1.00E-06,  avg # of iterations =  2.0

     Threshold (ethr) on eigenvalues was too large:
     Diagonalizing with lowered threshold

     CG style diagonalization
     ethr =  1.22E-09,  avg # of iterations =  2.8

     negative rho (up, down):  2.123E-04 2.123E-04

     total cpu time spent up to now is      455.5 secs

     total energy              =     -23.80262586 Ry
     estimated scf accuracy    <       0.00000018 Ry

     total magnetization       =     0.00 Bohr mag/cell
     absolute magnetization    =     0.00 Bohr mag/cell

     iteration #  2     ecut=    60.00 Ry     beta= 0.70
     CG style diagonalization
     ethr =  2.23E-09,  avg # of iterations =  3.8

     negative rho (up, down):  2.123E-04 2.123E-04

     total cpu time spent up to now is      474.8 secs

     total energy              =     -23.80262590 Ry
     estimated scf accuracy    <       0.00000007 Ry

     total magnetization       =     0.00 Bohr mag/cell
     absolute magnetization    =     0.00 Bohr mag/cell

     iteration #  3     ecut=    60.00 Ry     beta= 0.70
     CG style diagonalization
     ethr =  8.60E-10,  avg # of iterations =  3.5

     negative rho (up, down):  2.123E-04 2.123E-04

     Magnetic moment per site:
     atom:    1    charge:    1.3543    magn:   -0.0000    constr:    0.0000
     atom:    2    charge:    0.4442    magn:    0.0000    constr:    0.0000
     atom:    3    charge:    0.4448    magn:    0.0000    constr:    0.0000
     atom:    4    charge:    0.4448    magn:    0.0000    constr:    0.0000

     total cpu time spent up to now is      491.9 secs

     End of self-consistent calculation

 ------ SPIN UP ------------


          k = 0.0000 0.0000 0.0000 (423701 PWs)   bands (ev):

   -29.4365 -19.3112 -19.3112 -14.8452  -8.7460  -8.0185  -7.9022  -7.9021

          k = 0.0000 0.2500 0.0000 (423725 PWs)   bands (ev):

   -29.4365 -19.3112 -19.3112 -14.8452  -8.7449  -8.0519  -7.8940  -7.8901

          k = 0.0000-0.5000 0.0000 (423542 PWs)   bands (ev):

   -29.4365 -19.3112 -19.3112 -14.8452  -8.7439  -8.0776  -7.8748  -7.8724

          k = 0.2500 0.0000 0.0000 (423725 PWs)   bands (ev):

   -29.4365 -19.3112 -19.3112 -14.8452  -8.7449  -8.0519  -7.8956  -7.8883

          k = 0.2500 0.2500 0.0000 (423766 PWs)   bands (ev):

   -29.4365 -19.3112 -19.3112 -14.8452  -8.7439  -8.0477  -7.9801  -7.7948

          k = 0.2500-0.5000 0.0000 (423782 PWs)   bands (ev):

   -29.4365 -19.3112 -19.3112 -14.8452  -8.7429  -8.0575  -7.9827  -7.8567

          k = 0.2500-0.2500 0.0000 (423766 PWs)   bands (ev):

   -29.4365 -19.3112 -19.3112 -14.8452  -8.7439  -8.0477  -7.9801  -7.7942

          k =-0.5000 0.0000 0.0000 (423542 PWs)   bands (ev):

   -29.4365 -19.3112 -19.3112 -14.8452  -8.7439  -8.0776  -7.8771  -7.8698

          k =-0.5000 0.2500 0.0000 (423782 PWs)   bands (ev):

   -29.4365 -19.3112 -19.3112 -14.8452  -8.7429  -8.0575  -7.9827  -7.8567

          k =-0.5000-0.5000 0.0000 (423708 PWs)   bands (ev):

   -29.4365 -19.3112 -19.3112 -14.8452  -8.7419  -8.0209  -8.0207  -7.9371

 ------ SPIN DOWN ----------


          k = 0.0000 0.0000 0.0000 (423701 PWs)   bands (ev):

   -29.4365 -19.3112 -19.3112 -14.8452  -8.7460  -8.0185  -7.9022  -7.9021

          k = 0.0000 0.2500 0.0000 (423725 PWs)   bands (ev):

   -29.4365 -19.3112 -19.3112 -14.8452  -8.7449  -8.0519  -7.8940  -7.8901

          k = 0.0000-0.5000 0.0000 (423542 PWs)   bands (ev):

   -29.4365 -19.3112 -19.3112 -14.8452  -8.7439  -8.0776  -7.8748  -7.8724

          k = 0.2500 0.0000 0.0000 (423725 PWs)   bands (ev):

   -29.4365 -19.3112 -19.3112 -14.8452  -8.7449  -8.0519  -7.8956  -7.8883

          k = 0.2500 0.2500 0.0000 (423766 PWs)   bands (ev):

   -29.4365 -19.3112 -19.3112 -14.8452  -8.7439  -8.0477  -7.9801  -7.7948

          k = 0.2500-0.5000 0.0000 (423782 PWs)   bands (ev):

   -29.4365 -19.3112 -19.3112 -14.8452  -8.7429  -8.0575  -7.9827  -7.8567

          k = 0.2500-0.2500 0.0000 (423766 PWs)   bands (ev):

   -29.4365 -19.3112 -19.3112 -14.8452  -8.7439  -8.0477  -7.9801  -7.7946

          k =-0.5000 0.0000 0.0000 (423542 PWs)   bands (ev):

   -29.4365 -19.3112 -19.3112 -14.8452  -8.7439  -8.0776  -7.8771  -7.8698

          k =-0.5000 0.2500 0.0000 (423782 PWs)   bands (ev):

   -29.4365 -19.3112 -19.3112 -14.8452  -8.7429  -8.0575  -7.9827  -7.8567

          k =-0.5000-0.5000 0.0000 (423708 PWs)   bands (ev):

   -29.4365 -19.3112 -19.3112 -14.8452  -8.7419  -8.0209  -8.0207  -7.9371

     the Fermi energy is   -13.0687 ev

!    total energy              =     -23.80262592 Ry
     estimated scf accuracy    <          9.2E-10 Ry
     smearing contrib. (-TS)   =       0.00000000 Ry
     internal energy E=F+TS    =     -23.80262592 Ry

     The total energy is F=E-TS. E is the sum of the following terms:
     one-electron contribution =     -64.80406632 Ry
     hartree contribution      =      31.02966463 Ry
     xc contribution           =      -7.58119855 Ry
     ewald contribution        =      12.66684181 Ry
     Dispersion Correction     =      -0.00026593 Ry
     electric field correction =       4.88639843 Ry

     total magnetization       =     0.00 Bohr mag/cell
     absolute magnetization    =     0.00 Bohr mag/cell

     convergence has been achieved in   3 iterations

     negative rho (up, down):  2.123E-04 2.123E-04

     Forces acting on atoms (cartesian axes, Ry/au):

     atom    1 type  1   force =    -0.00000008   -0.00000039   -0.00152249
     atom    2 type  2   force =     0.00000007   -0.00029259    0.00050755
     atom    3 type  2   force =    -0.00025338    0.00014653    0.00050748
     atom    4 type  2   force =     0.00025339    0.00014646    0.00050745

     Total force =     0.001015     Total SCF correction =     0.000006
     Energy error            =      1.9E-07
     Gradient error          =      5.1E-04

     number of scf cycles    =  56
     number of bfgs steps    =   8

     energy   old            =     -23.8026261162 Ry
     energy   new            =     -23.8026259234 Ry

     CASE: energy  _new > energy  _old

     new trust radius        =       0.0000770546 bohr

     trust_radius < trust_radius_min

     resetting bfgs history

     new conv_thr            =       0.0000000100 Ry


ATOMIC_POSITIONS (angstrom)
N            10.0000000000       10.0000000000        0.0000000000    0   0   0
H            10.0000003596       10.9261303089       -0.4390177923
H            10.8020503850        9.5369392367       -0.4390259515
H             9.1979505733        9.5369393334       -0.4390278380



     Writing output data file ./NH3_ESM_VA12.save/
     NEW-OLD atomic charge density approx. for the potential

     negative rho (up, down):  2.124E-04 2.124E-04

     Adding external electric field
        E field amplitude [Ha a.u.]: -2.3644E-02
        Potential amp.       -1.6085 Ry
        Total length         34.0151 bohr

     Generating pointlists ...

     total cpu time spent up to now is      512.6 secs

     Self-consistent Calculation

     iteration #  1     ecut=    60.00 Ry     beta= 0.70
     CG style diagonalization
     ethr =  1.00E-06,  avg # of iterations =  2.0

     Threshold (ethr) on eigenvalues was too large:
     Diagonalizing with lowered threshold

     CG style diagonalization
     ethr =  1.10E-09,  avg # of iterations =  2.8

     negative rho (up, down):  2.124E-04 2.124E-04

     total cpu time spent up to now is      536.9 secs

     total energy              =     -23.80262512 Ry
     estimated scf accuracy    <       0.00000017 Ry

     total magnetization       =     0.00 Bohr mag/cell
     absolute magnetization    =     0.00 Bohr mag/cell

     iteration #  2     ecut=    60.00 Ry     beta= 0.70
     CG style diagonalization
     ethr =  2.14E-09,  avg # of iterations =  3.8

     negative rho (up, down):  2.124E-04 2.124E-04

     total cpu time spent up to now is      556.2 secs

     total energy              =     -23.80262516 Ry
     estimated scf accuracy    <       0.00000007 Ry

     total magnetization       =     0.00 Bohr mag/cell
     absolute magnetization    =     0.00 Bohr mag/cell

     iteration #  3     ecut=    60.00 Ry     beta= 0.70
     CG style diagonalization
     ethr =  9.09E-10,  avg # of iterations =  3.5

     negative rho (up, down):  2.124E-04 2.124E-04

     Magnetic moment per site:
     atom:    1    charge:    1.3544    magn:    0.0000    constr:    0.0000
     atom:    2    charge:    0.4444    magn:   -0.0000    constr:    0.0000
     atom:    3    charge:    0.4450    magn:    0.0000    constr:    0.0000
     atom:    4    charge:    0.4450    magn:   -0.0000    constr:    0.0000

     total cpu time spent up to now is      573.4 secs

     End of self-consistent calculation

 ------ SPIN UP ------------


          k = 0.0000 0.0000 0.0000 (423701 PWs)   bands (ev):

   -29.4389 -19.3133 -19.3133 -14.8450  -8.7455  -8.0185  -7.9022  -7.9020

          k = 0.0000 0.2500 0.0000 (423725 PWs)   bands (ev):

   -29.4389 -19.3133 -19.3133 -14.8450  -8.7444  -8.0519  -7.8939  -7.8900

          k = 0.0000-0.5000 0.0000 (423542 PWs)   bands (ev):

   -29.4389 -19.3133 -19.3133 -14.8450  -8.7434  -8.0776  -7.8747  -7.8723

          k = 0.2500 0.0000 0.0000 (423725 PWs)   bands (ev):

   -29.4389 -19.3133 -19.3133 -14.8450  -8.7444  -8.0519  -7.8955  -7.8883

          k = 0.2500 0.2500 0.0000 (423766 PWs)   bands (ev):

   -29.4389 -19.3133 -19.3133 -14.8450  -8.7434  -8.0477  -7.9801  -7.7948

          k = 0.2500-0.5000 0.0000 (423782 PWs)   bands (ev):

   -29.4389 -19.3133 -19.3133 -14.8450  -8.7424  -8.0574  -7.9827  -7.8567

          k = 0.2500-0.2500 0.0000 (423766 PWs)   bands (ev):

   -29.4389 -19.3133 -19.3133 -14.8450  -8.7434  -8.0477  -7.9801  -7.7942

          k =-0.5000 0.0000 0.0000 (423542 PWs)   bands (ev):

   -29.4389 -19.3133 -19.3133 -14.8450  -8.7434  -8.0776  -7.8770  -7.8697

          k =-0.5000 0.2500 0.0000 (423782 PWs)   bands (ev):

   -29.4389 -19.3133 -19.3133 -14.8450  -8.7424  -8.0575  -7.9826  -7.8566

          k =-0.5000-0.5000 0.0000 (423708 PWs)   bands (ev):

   -29.4389 -19.3133 -19.3133 -14.8450  -8.7414  -8.0208  -8.0207  -7.9371

 ------ SPIN DOWN ----------


          k = 0.0000 0.0000 0.0000 (423701 PWs)   bands (ev):

   -29.4389 -19.3133 -19.3133 -14.8450  -8.7455  -8.0185  -7.9022  -7.9020

          k = 0.0000 0.2500 0.0000 (423725 PWs)   bands (ev):

   -29.4389 -19.3133 -19.3133 -14.8450  -8.7444  -8.0519  -7.8939  -7.8900

          k = 0.0000-0.5000 0.0000 (423542 PWs)   bands (ev):

   -29.4389 -19.3133 -19.3133 -14.8450  -8.7434  -8.0776  -7.8747  -7.8723

          k = 0.2500 0.0000 0.0000 (423725 PWs)   bands (ev):

   -29.4389 -19.3133 -19.3133 -14.8450  -8.7444  -8.0519  -7.8955  -7.8883

          k = 0.2500 0.2500 0.0000 (423766 PWs)   bands (ev):

   -29.4389 -19.3133 -19.3133 -14.8450  -8.7434  -8.0477  -7.9801  -7.7948

          k = 0.2500-0.5000 0.0000 (423782 PWs)   bands (ev):

   -29.4389 -19.3133 -19.3133 -14.8450  -8.7424  -8.0574  -7.9827  -7.8567

          k = 0.2500-0.2500 0.0000 (423766 PWs)   bands (ev):

   -29.4389 -19.3133 -19.3133 -14.8450  -8.7434  -8.0477  -7.9801  -7.7945

          k =-0.5000 0.0000 0.0000 (423542 PWs)   bands (ev):

   -29.4389 -19.3133 -19.3133 -14.8450  -8.7434  -8.0776  -7.8770  -7.8697

          k =-0.5000 0.2500 0.0000 (423782 PWs)   bands (ev):

   -29.4389 -19.3133 -19.3133 -14.8450  -8.7424  -8.0575  -7.9826  -7.8566

          k =-0.5000-0.5000 0.0000 (423708 PWs)   bands (ev):

   -29.4389 -19.3133 -19.3133 -14.8450  -8.7414  -8.0208  -8.0207  -7.9371

     the Fermi energy is   -13.0693 ev

!    total energy              =     -23.80262517 Ry
     estimated scf accuracy    <          9.2E-10 Ry
     smearing contrib. (-TS)   =       0.00000000 Ry
     internal energy E=F+TS    =     -23.80262517 Ry

     The total energy is F=E-TS. E is the sum of the following terms:
     one-electron contribution =     -64.81048911 Ry
     hartree contribution      =      31.03279761 Ry
     xc contribution           =      -7.58176340 Ry
     ewald contribution        =      12.67064090 Ry
     Dispersion Correction     =      -0.00026551 Ry
     electric field correction =       4.88645433 Ry

     total magnetization       =    -0.00 Bohr mag/cell
     absolute magnetization    =     0.00 Bohr mag/cell

     convergence has been achieved in   3 iterations

     negative rho (up, down):  2.124E-04 2.124E-04

     Forces acting on atoms (cartesian axes, Ry/au):

     atom    1 type  1   force =     0.00000001   -0.00000040   -0.00109493
     atom    2 type  2   force =     0.00000001    0.00003721    0.00036510
     atom    3 type  2   force =     0.00003224   -0.00001839    0.00036488
     atom    4 type  2   force =    -0.00003226   -0.00001842    0.00036496

     Total force =     0.000635     Total SCF correction =     0.000006
     Energy error            =      9.5E-07
     Gradient error          =      3.7E-04

     number of scf cycles    =  57
     number of bfgs steps    =   8

     energy   old            =     -23.8026261162 Ry
     energy   new            =     -23.8026251704 Ry

     CASE: energy  _new > energy  _old

     new trust radius        =       0.0002181009 bohr
     new conv_thr            =       0.0000000100 Ry


ATOMIC_POSITIONS (angstrom)
N            10.0000000000       10.0000000000        0.0000000000    0   0   0
H            10.0000003428       10.9262855809       -0.4392263407
H            10.8021848493        9.5368615164       -0.4392344587
H             9.1978161071        9.5368616317       -0.4392363629



     Writing output data file ./NH3_ESM_VA12.save/
     NEW-OLD atomic charge density approx. for the potential

     negative rho (up, down):  2.123E-04 2.123E-04

     Adding external electric field
        E field amplitude [Ha a.u.]: -2.3644E-02
        Potential amp.       -1.6085 Ry
        Total length         34.0151 bohr

     Generating pointlists ...

     total cpu time spent up to now is      594.0 secs

     Self-consistent Calculation

     iteration #  1     ecut=    60.00 Ry     beta= 0.70
     CG style diagonalization
     ethr =  1.00E-06,  avg # of iterations =  2.0

     Threshold (ethr) on eigenvalues was too large:
     Diagonalizing with lowered threshold

     CG style diagonalization
     ethr =  1.08E-09,  avg # of iterations =  2.8

     negative rho (up, down):  2.123E-04 2.123E-04

     total cpu time spent up to now is      618.2 secs

     total energy              =     -23.80262584 Ry
     estimated scf accuracy    <       0.00000020 Ry

     total magnetization       =    -0.00 Bohr mag/cell
     absolute magnetization    =     0.00 Bohr mag/cell

     iteration #  2     ecut=    60.00 Ry     beta= 0.70
     CG style diagonalization
     ethr =  2.47E-09,  avg # of iterations =  3.8

     negative rho (up, down):  2.123E-04 2.123E-04

     total cpu time spent up to now is      637.6 secs

     total energy              =     -23.80262589 Ry
     estimated scf accuracy    <       0.00000010 Ry

     total magnetization       =    -0.00 Bohr mag/cell
     absolute magnetization    =     0.00 Bohr mag/cell

     iteration #  3     ecut=    60.00 Ry     beta= 0.70
     CG style diagonalization
     ethr =  1.28E-09,  avg # of iterations =  3.5

     negative rho (up, down):  2.123E-04 2.123E-04

     Magnetic moment per site:
     atom:    1    charge:    1.3543    magn:    0.0000    constr:    0.0000
     atom:    2    charge:    0.4442    magn:   -0.0000    constr:    0.0000
     atom:    3    charge:    0.4448    magn:   -0.0000    constr:    0.0000
     atom:    4    charge:    0.4448    magn:   -0.0000    constr:    0.0000

     total cpu time spent up to now is      654.7 secs

     End of self-consistent calculation

 ------ SPIN UP ------------


          k = 0.0000 0.0000 0.0000 (423701 PWs)   bands (ev):

   -29.4366 -19.3112 -19.3112 -14.8453  -8.7460  -8.0185  -7.9023  -7.9021

          k = 0.0000 0.2500 0.0000 (423725 PWs)   bands (ev):

   -29.4366 -19.3112 -19.3112 -14.8453  -8.7449  -8.0519  -7.8940  -7.8901

          k = 0.0000-0.5000 0.0000 (423542 PWs)   bands (ev):

   -29.4366 -19.3112 -19.3112 -14.8453  -8.7439  -8.0776  -7.8748  -7.8724

          k = 0.2500 0.0000 0.0000 (423725 PWs)   bands (ev):

   -29.4366 -19.3112 -19.3112 -14.8453  -8.7449  -8.0519  -7.8956  -7.8883

          k = 0.2500 0.2500 0.0000 (423766 PWs)   bands (ev):

   -29.4366 -19.3112 -19.3112 -14.8453  -8.7439  -8.0477  -7.9801  -7.7948

          k = 0.2500-0.5000 0.0000 (423782 PWs)   bands (ev):

   -29.4366 -19.3112 -19.3112 -14.8453  -8.7429  -8.0575  -7.9827  -7.8567

          k = 0.2500-0.2500 0.0000 (423766 PWs)   bands (ev):

   -29.4366 -19.3112 -19.3112 -14.8453  -8.7439  -8.0477  -7.9801  -7.7943

          k =-0.5000 0.0000 0.0000 (423542 PWs)   bands (ev):

   -29.4366 -19.3112 -19.3112 -14.8453  -8.7439  -8.0776  -7.8771  -7.8698

          k =-0.5000 0.2500 0.0000 (423782 PWs)   bands (ev):

   -29.4366 -19.3112 -19.3112 -14.8453  -8.7429  -8.0575  -7.9827  -7.8567

          k =-0.5000-0.5000 0.0000 (423708 PWs)   bands (ev):

   -29.4366 -19.3112 -19.3112 -14.8453  -8.7419  -8.0209  -8.0207  -7.9371

 ------ SPIN DOWN ----------


          k = 0.0000 0.0000 0.0000 (423701 PWs)   bands (ev):

   -29.4366 -19.3112 -19.3112 -14.8453  -8.7460  -8.0185  -7.9023  -7.9021

          k = 0.0000 0.2500 0.0000 (423725 PWs)   bands (ev):

   -29.4366 -19.3112 -19.3112 -14.8453  -8.7449  -8.0519  -7.8940  -7.8901

          k = 0.0000-0.5000 0.0000 (423542 PWs)   bands (ev):

   -29.4366 -19.3112 -19.3112 -14.8453  -8.7439  -8.0776  -7.8748  -7.8724

          k = 0.2500 0.0000 0.0000 (423725 PWs)   bands (ev):

   -29.4366 -19.3112 -19.3112 -14.8453  -8.7449  -8.0519  -7.8956  -7.8883

          k = 0.2500 0.2500 0.0000 (423766 PWs)   bands (ev):

   -29.4366 -19.3112 -19.3112 -14.8453  -8.7439  -8.0477  -7.9801  -7.7949

          k = 0.2500-0.5000 0.0000 (423782 PWs)   bands (ev):

   -29.4366 -19.3112 -19.3112 -14.8453  -8.7429  -8.0575  -7.9827  -7.8567

          k = 0.2500-0.2500 0.0000 (423766 PWs)   bands (ev):

   -29.4366 -19.3112 -19.3112 -14.8453  -8.7439  -8.0477  -7.9801  -7.7946

          k =-0.5000 0.0000 0.0000 (423542 PWs)   bands (ev):

   -29.4366 -19.3112 -19.3112 -14.8453  -8.7439  -8.0776  -7.8771  -7.8698

          k =-0.5000 0.2500 0.0000 (423782 PWs)   bands (ev):

   -29.4366 -19.3112 -19.3112 -14.8453  -8.7429  -8.0575  -7.9827  -7.8567

          k =-0.5000-0.5000 0.0000 (423708 PWs)   bands (ev):

   -29.4366 -19.3112 -19.3112 -14.8453  -8.7419  -8.0209  -8.0207  -7.9371

     the Fermi energy is   -13.0688 ev

!    total energy              =     -23.80262592 Ry
     estimated scf accuracy    <          8.8E-10 Ry
     smearing contrib. (-TS)   =       0.00000000 Ry
     internal energy E=F+TS    =     -23.80262592 Ry

     The total energy is F=E-TS. E is the sum of the following terms:
     one-electron contribution =     -64.80414392 Ry
     hartree contribution      =      31.02976043 Ry
     xc contribution           =      -7.58121670 Ry
     ewald contribution        =      12.66684176 Ry
     Dispersion Correction     =      -0.00026593 Ry
     electric field correction =       4.88639843 Ry

     total magnetization       =    -0.00 Bohr mag/cell
     absolute magnetization    =     0.00 Bohr mag/cell

     convergence has been achieved in   3 iterations

     negative rho (up, down):  2.123E-04 2.123E-04

     Forces acting on atoms (cartesian axes, Ry/au):

     atom    1 type  1   force =     0.00000027   -0.00000080   -0.00152495
     atom    2 type  2   force =    -0.00000012   -0.00029466    0.00050858
     atom    3 type  2   force =    -0.00025524    0.00014771    0.00050800
     atom    4 type  2   force =     0.00025510    0.00014775    0.00050836

     Total force =     0.001018     Total SCF correction =     0.000007
     Energy error            =      1.9E-07
     Gradient error          =      5.1E-04

     number of scf cycles    =  58
     number of bfgs steps    =   8

     energy   old            =     -23.8026261162 Ry
     energy   new            =     -23.8026259235 Ry

     CASE: energy  _new > energy  _old

     new trust radius        =       0.0000770597 bohr

     trust_radius < trust_radius_min

     resetting bfgs history

     new conv_thr            =       0.0000000100 Ry


ATOMIC_POSITIONS (angstrom)
N            10.0000000000       10.0000000000        0.0000000000    0   0   0
H            10.0000003596       10.9261303089       -0.4390177923
H            10.8020503850        9.5369392367       -0.4390259515
H             9.1979505733        9.5369393334       -0.4390278380



     Writing output data file ./NH3_ESM_VA12.save/
     NEW-OLD atomic charge density approx. for the potential

     negative rho (up, down):  2.124E-04 2.124E-04

     Adding external electric field
        E field amplitude [Ha a.u.]: -2.3644E-02
        Potential amp.       -1.6085 Ry
        Total length         34.0151 bohr

     Generating pointlists ...

     total cpu time spent up to now is      675.4 secs

     Self-consistent Calculation

     iteration #  1     ecut=    60.00 Ry     beta= 0.70
     CG style diagonalization
     ethr =  1.00E-06,  avg # of iterations =  2.0

     Threshold (ethr) on eigenvalues was too large:
     Diagonalizing with lowered threshold

     CG style diagonalization
     ethr =  8.48E-10,  avg # of iterations =  2.8

     negative rho (up, down):  2.124E-04 2.124E-04

     total cpu time spent up to now is      699.7 secs

     total energy              =     -23.80262512 Ry
     estimated scf accuracy    <       0.00000016 Ry

     total magnetization       =    -0.00 Bohr mag/cell
     absolute magnetization    =     0.00 Bohr mag/cell

     iteration #  2     ecut=    60.00 Ry     beta= 0.70
     CG style diagonalization
     ethr =  2.05E-09,  avg # of iterations =  4.0

     negative rho (up, down):  2.124E-04 2.124E-04

     total cpu time spent up to now is      719.4 secs

     total energy              =     -23.80262515 Ry
     estimated scf accuracy    <       0.00000010 Ry

     total magnetization       =    -0.00 Bohr mag/cell
     absolute magnetization    =     0.00 Bohr mag/cell

     iteration #  3     ecut=    60.00 Ry     beta= 0.70
     CG style diagonalization
     ethr =  1.21E-09,  avg # of iterations =  3.5

     negative rho (up, down):  2.124E-04 2.124E-04

     Magnetic moment per site:
     atom:    1    charge:    1.3544    magn:    0.0000    constr:    0.0000
     atom:    2    charge:    0.4444    magn:   -0.0000    constr:    0.0000
     atom:    3    charge:    0.4450    magn:   -0.0000    constr:    0.0000
     atom:    4    charge:    0.4450    magn:   -0.0000    constr:    0.0000

     total cpu time spent up to now is      736.6 secs

     End of self-consistent calculation

 ------ SPIN UP ------------


          k = 0.0000 0.0000 0.0000 (423701 PWs)   bands (ev):

   -29.4390 -19.3133 -19.3133 -14.8450  -8.7455  -8.0185  -7.9022  -7.9020

          k = 0.0000 0.2500 0.0000 (423725 PWs)   bands (ev):

   -29.4390 -19.3133 -19.3133 -14.8450  -8.7444  -8.0519  -7.8939  -7.8900

          k = 0.0000-0.5000 0.0000 (423542 PWs)   bands (ev):

   -29.4390 -19.3133 -19.3133 -14.8450  -8.7434  -8.0776  -7.8747  -7.8723

          k = 0.2500 0.0000 0.0000 (423725 PWs)   bands (ev):

   -29.4390 -19.3133 -19.3133 -14.8450  -8.7444  -8.0519  -7.8955  -7.8883

          k = 0.2500 0.2500 0.0000 (423766 PWs)   bands (ev):

   -29.4390 -19.3133 -19.3133 -14.8450  -8.7434  -8.0477  -7.9801  -7.7948

          k = 0.2500-0.5000 0.0000 (423782 PWs)   bands (ev):

   -29.4390 -19.3133 -19.3133 -14.8450  -8.7424  -8.0574  -7.9827  -7.8567

          k = 0.2500-0.2500 0.0000 (423766 PWs)   bands (ev):

   -29.4390 -19.3133 -19.3133 -14.8450  -8.7434  -8.0477  -7.9801  -7.7942

          k =-0.5000 0.0000 0.0000 (423542 PWs)   bands (ev):

   -29.4390 -19.3133 -19.3133 -14.8450  -8.7434  -8.0776  -7.8770  -7.8697

          k =-0.5000 0.2500 0.0000 (423782 PWs)   bands (ev):

   -29.4390 -19.3133 -19.3133 -14.8450  -8.7424  -8.0575  -7.9826  -7.8566

          k =-0.5000-0.5000 0.0000 (423708 PWs)   bands (ev):

   -29.4390 -19.3133 -19.3133 -14.8450  -8.7414  -8.0208  -8.0207  -7.9371

 ------ SPIN DOWN ----------


          k = 0.0000 0.0000 0.0000 (423701 PWs)   bands (ev):

   -29.4390 -19.3133 -19.3133 -14.8450  -8.7455  -8.0185  -7.9022  -7.9020

          k = 0.0000 0.2500 0.0000 (423725 PWs)   bands (ev):

   -29.4390 -19.3133 -19.3133 -14.8450  -8.7444  -8.0519  -7.8939  -7.8900

          k = 0.0000-0.5000 0.0000 (423542 PWs)   bands (ev):

   -29.4390 -19.3133 -19.3133 -14.8450  -8.7434  -8.0776  -7.8747  -7.8723

          k = 0.2500 0.0000 0.0000 (423725 PWs)   bands (ev):

   -29.4390 -19.3133 -19.3133 -14.8450  -8.7444  -8.0519  -7.8955  -7.8883

          k = 0.2500 0.2500 0.0000 (423766 PWs)   bands (ev):

   -29.4390 -19.3133 -19.3133 -14.8450  -8.7434  -8.0477  -7.9801  -7.7948

          k = 0.2500-0.5000 0.0000 (423782 PWs)   bands (ev):

   -29.4390 -19.3133 -19.3133 -14.8450  -8.7424  -8.0574  -7.9827  -7.8567

          k = 0.2500-0.2500 0.0000 (423766 PWs)   bands (ev):

   -29.4390 -19.3133 -19.3133 -14.8450  -8.7434  -8.0477  -7.9801  -7.7946

          k =-0.5000 0.0000 0.0000 (423542 PWs)   bands (ev):

   -29.4390 -19.3133 -19.3133 -14.8450  -8.7434  -8.0776  -7.8770  -7.8697

          k =-0.5000 0.2500 0.0000 (423782 PWs)   bands (ev):

   -29.4390 -19.3133 -19.3133 -14.8450  -8.7424  -8.0575  -7.9826  -7.8566

          k =-0.5000-0.5000 0.0000 (423708 PWs)   bands (ev):

   -29.4390 -19.3133 -19.3133 -14.8450  -8.7414  -8.0208  -8.0207  -7.9371

     the Fermi energy is   -13.0694 ev

!    total energy              =     -23.80262517 Ry
     estimated scf accuracy    <          9.5E-10 Ry
     smearing contrib. (-TS)   =       0.00000000 Ry
     internal energy E=F+TS    =     -23.80262517 Ry

     The total energy is F=E-TS. E is the sum of the following terms:
     one-electron contribution =     -64.81048248 Ry
     hartree contribution      =      31.03279202 Ry
     xc contribution           =      -7.58176444 Ry
     ewald contribution        =      12.67064090 Ry
     Dispersion Correction     =      -0.00026551 Ry
     electric field correction =       4.88645433 Ry

     total magnetization       =    -0.00 Bohr mag/cell
     absolute magnetization    =     0.00 Bohr mag/cell

     convergence has been achieved in   3 iterations

     negative rho (up, down):  2.124E-04 2.124E-04

     Forces acting on atoms (cartesian axes, Ry/au):

     atom    1 type  1   force =     0.00000021   -0.00000059   -0.00109868
     atom    2 type  2   force =    -0.00000008    0.00004115    0.00036642
     atom    3 type  2   force =     0.00003558   -0.00002029    0.00036600
     atom    4 type  2   force =    -0.00003571   -0.00002027    0.00036625

     Total force =     0.000638     Total SCF correction =     0.000008
     Energy error            =      9.5E-07
     Gradient error          =      3.7E-04

     number of scf cycles    =  59
     number of bfgs steps    =   8

     energy   old            =     -23.8026261162 Ry
     energy   new            =     -23.8026251687 Ry

     CASE: energy  _new > energy  _old

     new trust radius        =       0.0002179476 bohr
     new conv_thr            =       0.0000000100 Ry


ATOMIC_POSITIONS (angstrom)
N            10.0000000000       10.0000000000        0.0000000000    0   0   0
H            10.0000003427       10.9262856294       -0.4392264058
H            10.8021848913        9.5368614921       -0.4392345238
H             9.1978160651        9.5368616075       -0.4392364280



     Writing output data file ./NH3_ESM_VA12.save/
     NEW-OLD atomic charge density approx. for the potential

     negative rho (up, down):  2.123E-04 2.123E-04

     Adding external electric field
        E field amplitude [Ha a.u.]: -2.3644E-02
        Potential amp.       -1.6085 Ry
        Total length         34.0151 bohr

     Generating pointlists ...

     total cpu time spent up to now is      757.2 secs

     Self-consistent Calculation

     iteration #  1     ecut=    60.00 Ry     beta= 0.70
     CG style diagonalization
     ethr =  1.00E-06,  avg # of iterations =  2.0

     Threshold (ethr) on eigenvalues was too large:
     Diagonalizing with lowered threshold

     CG style diagonalization
     ethr =  1.16E-09,  avg # of iterations =  2.8

     negative rho (up, down):  2.123E-04 2.123E-04

     total cpu time spent up to now is      781.6 secs

     total energy              =     -23.80262586 Ry
     estimated scf accuracy    <       0.00000016 Ry

     total magnetization       =     0.00 Bohr mag/cell
     absolute magnetization    =     0.00 Bohr mag/cell

     iteration #  2     ecut=    60.00 Ry     beta= 0.70
     CG style diagonalization
     ethr =  2.03E-09,  avg # of iterations =  3.8

     negative rho (up, down):  2.123E-04 2.123E-04

     total cpu time spent up to now is      800.9 secs

     total energy              =     -23.80262590 Ry
     estimated scf accuracy    <       0.00000007 Ry

     total magnetization       =    -0.00 Bohr mag/cell
     absolute magnetization    =     0.00 Bohr mag/cell

     iteration #  3     ecut=    60.00 Ry     beta= 0.70
     CG style diagonalization
     ethr =  8.67E-10,  avg # of iterations =  3.5

     negative rho (up, down):  2.123E-04 2.123E-04

     Magnetic moment per site:
     atom:    1    charge:    1.3543    magn:    0.0000    constr:    0.0000
     atom:    2    charge:    0.4442    magn:    0.0000    constr:    0.0000
     atom:    3    charge:    0.4448    magn:    0.0000    constr:    0.0000
     atom:    4    charge:    0.4448    magn:    0.0000    constr:    0.0000

     total cpu time spent up to now is      818.0 secs

     End of self-consistent calculation

 ------ SPIN UP ------------


          k = 0.0000 0.0000 0.0000 (423701 PWs)   bands (ev):

   -29.4365 -19.3111 -19.3111 -14.8451  -8.7460  -8.0185  -7.9022  -7.9021

          k = 0.0000 0.2500 0.0000 (423725 PWs)   bands (ev):

   -29.4365 -19.3111 -19.3111 -14.8451  -8.7449  -8.0519  -7.8940  -7.8900

          k = 0.0000-0.5000 0.0000 (423542 PWs)   bands (ev):

   -29.4365 -19.3111 -19.3111 -14.8451  -8.7438  -8.0776  -7.8748  -7.8724

          k = 0.2500 0.0000 0.0000 (423725 PWs)   bands (ev):

   -29.4365 -19.3111 -19.3111 -14.8451  -8.7449  -8.0519  -7.8956  -7.8883

          k = 0.2500 0.2500 0.0000 (423766 PWs)   bands (ev):

   -29.4365 -19.3111 -19.3111 -14.8451  -8.7439  -8.0477  -7.9801  -7.7949

          k = 0.2500-0.5000 0.0000 (423782 PWs)   bands (ev):

   -29.4365 -19.3111 -19.3111 -14.8451  -8.7429  -8.0574  -7.9827  -7.8567

          k = 0.2500-0.2500 0.0000 (423766 PWs)   bands (ev):

   -29.4365 -19.3111 -19.3111 -14.8451  -8.7439  -8.0477  -7.9801  -7.7943

          k =-0.5000 0.0000 0.0000 (423542 PWs)   bands (ev):

   -29.4365 -19.3111 -19.3111 -14.8451  -8.7438  -8.0776  -7.8771  -7.8698

          k =-0.5000 0.2500 0.0000 (423782 PWs)   bands (ev):

   -29.4365 -19.3111 -19.3111 -14.8451  -8.7429  -8.0575  -7.9827  -7.8567

          k =-0.5000-0.5000 0.0000 (423708 PWs)   bands (ev):

   -29.4365 -19.3111 -19.3111 -14.8451  -8.7419  -8.0209  -8.0207  -7.9371

 ------ SPIN DOWN ----------


          k = 0.0000 0.0000 0.0000 (423701 PWs)   bands (ev):

   -29.4365 -19.3111 -19.3111 -14.8451  -8.7460  -8.0185  -7.9022  -7.9021

          k = 0.0000 0.2500 0.0000 (423725 PWs)   bands (ev):

   -29.4365 -19.3111 -19.3111 -14.8451  -8.7449  -8.0519  -7.8940  -7.8900

          k = 0.0000-0.5000 0.0000 (423542 PWs)   bands (ev):

   -29.4365 -19.3111 -19.3111 -14.8451  -8.7438  -8.0776  -7.8748  -7.8724

          k = 0.2500 0.0000 0.0000 (423725 PWs)   bands (ev):

   -29.4365 -19.3111 -19.3111 -14.8451  -8.7449  -8.0519  -7.8956  -7.8883

          k = 0.2500 0.2500 0.0000 (423766 PWs)   bands (ev):

   -29.4365 -19.3111 -19.3111 -14.8451  -8.7439  -8.0477  -7.9801  -7.7949

          k = 0.2500-0.5000 0.0000 (423782 PWs)   bands (ev):

   -29.4365 -19.3111 -19.3111 -14.8451  -8.7429  -8.0574  -7.9827  -7.8567

          k = 0.2500-0.2500 0.0000 (423766 PWs)   bands (ev):

   -29.4365 -19.3111 -19.3111 -14.8451  -8.7439  -8.0477  -7.9801  -7.7946

          k =-0.5000 0.0000 0.0000 (423542 PWs)   bands (ev):

   -29.4365 -19.3111 -19.3111 -14.8451  -8.7438  -8.0776  -7.8771  -7.8698

          k =-0.5000 0.2500 0.0000 (423782 PWs)   bands (ev):

   -29.4365 -19.3111 -19.3111 -14.8451  -8.7429  -8.0575  -7.9827  -7.8567

          k =-0.5000-0.5000 0.0000 (423708 PWs)   bands (ev):

   -29.4365 -19.3111 -19.3111 -14.8451  -8.7419  -8.0209  -8.0207  -7.9371

     the Fermi energy is   -13.0688 ev

!    total energy              =     -23.80262592 Ry
     estimated scf accuracy    <          1.5E-09 Ry
     smearing contrib. (-TS)   =       0.00000000 Ry
     internal energy E=F+TS    =     -23.80262592 Ry

     The total energy is F=E-TS. E is the sum of the following terms:
     one-electron contribution =     -64.80402193 Ry
     hartree contribution      =      31.02961000 Ry
     xc contribution           =      -7.58118705 Ry
     ewald contribution        =      12.66684058 Ry
     Dispersion Correction     =      -0.00026593 Ry
     electric field correction =       4.88639842 Ry

     total magnetization       =    -0.00 Bohr mag/cell
     absolute magnetization    =     0.00 Bohr mag/cell

     convergence has been achieved in   3 iterations

     negative rho (up, down):  2.123E-04 2.123E-04

     Forces acting on atoms (cartesian axes, Ry/au):

     atom    1 type  1   force =    -0.00000044    0.00000005   -0.00151606
     atom    2 type  2   force =     0.00000013   -0.00029121    0.00050548
     atom    3 type  2   force =    -0.00025172    0.00014553    0.00050521
     atom    4 type  2   force =     0.00025203    0.00014563    0.00050536

     Total force =     0.001010     Total SCF correction =     0.000012
     Energy error            =      1.9E-07
     Gradient error          =      5.1E-04

     number of scf cycles    =  60
     number of bfgs steps    =   8

     energy   old            =     -23.8026261162 Ry
     energy   new            =     -23.8026259225 Ry

     CASE: energy  _new > energy  _old

     new trust radius        =       0.0000768760 bohr

     trust_radius < trust_radius_min

     resetting bfgs history

     new conv_thr            =       0.0000000100 Ry


ATOMIC_POSITIONS (angstrom)
N            10.0000000000       10.0000000000        0.0000000000    0   0   0
H            10.0000003596       10.9261303089       -0.4390177923
H            10.8020503850        9.5369392367       -0.4390259515
H             9.1979505733        9.5369393334       -0.4390278380



     Writing output data file ./NH3_ESM_VA12.save/
     NEW-OLD atomic charge density approx. for the potential

     negative rho (up, down):  2.124E-04 2.124E-04

     Adding external electric field
        E field amplitude [Ha a.u.]: -2.3644E-02
        Potential amp.       -1.6085 Ry
        Total length         34.0151 bohr

     Generating pointlists ...

     total cpu time spent up to now is      838.6 secs

     Self-consistent Calculation

     iteration #  1     ecut=    60.00 Ry     beta= 0.70
     CG style diagonalization
     ethr =  1.00E-06,  avg # of iterations =  2.0

     Threshold (ethr) on eigenvalues was too large:
     Diagonalizing with lowered threshold

     CG style diagonalization
     ethr =  1.26E-09,  avg # of iterations =  2.8

     negative rho (up, down):  2.124E-04 2.124E-04

     total cpu time spent up to now is      862.9 secs

     total energy              =     -23.80262512 Ry
     estimated scf accuracy    <       0.00000018 Ry

     total magnetization       =     0.00 Bohr mag/cell
     absolute magnetization    =     0.00 Bohr mag/cell

     iteration #  2     ecut=    60.00 Ry     beta= 0.70
     CG style diagonalization
     ethr =  2.29E-09,  avg # of iterations =  3.8

     negative rho (up, down):  2.124E-04 2.124E-04

     total cpu time spent up to now is      882.2 secs

     total energy              =     -23.80262515 Ry
     estimated scf accuracy    <       0.00000008 Ry

     total magnetization       =    -0.00 Bohr mag/cell
     absolute magnetization    =     0.00 Bohr mag/cell

     iteration #  3     ecut=    60.00 Ry     beta= 0.70
     CG style diagonalization
     ethr =  9.89E-10,  avg # of iterations =  3.5

     negative rho (up, down):  2.124E-04 2.124E-04

     Magnetic moment per site:
     atom:    1    charge:    1.3544    magn:    0.0000    constr:    0.0000
     atom:    2    charge:    0.4444    magn:   -0.0000    constr:    0.0000
     atom:    3    charge:    0.4450    magn:   -0.0000    constr:    0.0000
     atom:    4    charge:    0.4450    magn:   -0.0000    constr:    0.0000

     total cpu time spent up to now is      899.4 secs

     End of self-consistent calculation

 ------ SPIN UP ------------


          k = 0.0000 0.0000 0.0000 (423701 PWs)   bands (ev):

   -29.4389 -19.3133 -19.3133 -14.8450  -8.7455  -8.0185  -7.9022  -7.9020

          k = 0.0000 0.2500 0.0000 (423725 PWs)   bands (ev):

[...]

          k = 0.2500-0.5000 0.0000 (423782 PWs)   bands (ev):

   -29.4365 -19.3112 -19.3112 -14.8452  -8.7429  -8.0574  -7.9827  -7.8567

          k = 0.2500-0.2500 0.0000 (423766 PWs)   bands (ev):

   -29.4365 -19.3112 -19.3112 -14.8452  -8.7439  -8.0477  -7.9801  -7.7954

          k =-0.5000 0.0000 0.0000 (423542 PWs)   bands (ev):

   -29.4365 -19.3112 -19.3112 -14.8452  -8.7439  -8.0776  -7.8771  -7.8698

          k =-0.5000 0.2500 0.0000 (423782 PWs)   bands (ev):

   -29.4365 -19.3112 -19.3112 -14.8452  -8.7429  -8.0575  -7.9827  -7.8567

          k =-0.5000-0.5000 0.0000 (423708 PWs)   bands (ev):

   -29.4365 -19.3112 -19.3112 -14.8452  -8.7419  -8.0209  -8.0207  -7.9371

     the Fermi energy is   -13.0696 ev

!    total energy              =     -23.80262592 Ry
     estimated scf accuracy    <          8.6E-10 Ry
     smearing contrib. (-TS)   =       0.00000000 Ry
     internal energy E=F+TS    =     -23.80262592 Ry

     The total energy is F=E-TS. E is the sum of the following terms:
     one-electron contribution =     -64.80408069 Ry
     hartree contribution      =      31.02968235 Ry
     xc contribution           =      -7.58120155 Ry
     ewald contribution        =      12.66684147 Ry
     Dispersion Correction     =      -0.00026593 Ry
     electric field correction =       4.88639843 Ry

     total magnetization       =     0.00 Bohr mag/cell
     absolute magnetization    =     0.00 Bohr mag/cell

     convergence has been achieved in   3 iterations

     negative rho (up, down):  2.123E-04 2.123E-04

     Forces acting on atoms (cartesian axes, Ry/au):

     atom    1 type  1   force =     0.00000003   -0.00000067   -0.00152147
     atom    2 type  2   force =     0.00000001   -0.00029278    0.00050736
     atom    3 type  2   force =    -0.00025356    0.00014674    0.00050699
     atom    4 type  2   force =     0.00025352    0.00014671    0.00050711

     Total force =     0.001014     Total SCF correction =     0.000004
     Energy error            =      1.9E-07
     Gradient error          =      5.1E-04

     number of scf cycles    = 248
     number of bfgs steps    =   8

     energy   old            =     -23.8026261162 Ry
     energy   new            =     -23.8026259235 Ry

     CASE: energy  _new > energy  _old

     new trust radius        =       0.0000770452 bohr

     trust_radius < trust_radius_min

     resetting bfgs history

     new conv_thr            =       0.0000000100 Ry


ATOMIC_POSITIONS (angstrom)
N            10.0000000000       10.0000000000        0.0000000000    0   0   0
H            10.0000003596       10.9261303089       -0.4390177923
H            10.8020503850        9.5369392367       -0.4390259515
H             9.1979505733        9.5369393334       -0.4390278380



     Writing output data file ./NH3_ESM_VA12.save/
     NEW-OLD atomic charge density approx. for the potential

     negative rho (up, down):  2.124E-04 2.124E-04

     Adding external electric field
        E field amplitude [Ha a.u.]: -2.3644E-02
        Potential amp.       -1.6085 Ry
        Total length         34.0151 bohr

     Generating pointlists ...

     total cpu time spent up to now is    16148.2 secs

     Self-consistent Calculation

     iteration #  1     ecut=    60.00 Ry     beta= 0.70
     CG style diagonalization
     ethr =  1.00E-06,  avg # of iterations =  2.0

     Threshold (ethr) on eigenvalues was too large:
     Diagonalizing with lowered threshold

     CG style diagonalization
     ethr =  1.04E-09,  avg # of iterations =  2.8

     negative rho (up, down):  2.124E-04 2.124E-04

     total cpu time spent up to now is    16172.3 secs

     total energy              =     -23.80262512 Ry
     estimated scf accuracy    <       0.00000017 Ry

     total magnetization       =     0.00 Bohr mag/cell
     absolute magnetization    =     0.00 Bohr mag/cell

     iteration #  2     ecut=    60.00 Ry     beta= 0.70
     CG style diagonalization
     ethr =  2.17E-09,  avg # of iterations =  3.8

     negative rho (up, down):  2.124E-04 2.124E-04

     total cpu time spent up to now is    16191.7 secs

     total energy              =     -23.80262515 Ry
     estimated scf accuracy    <       0.00000008 Ry

     total magnetization       =     0.00 Bohr mag/cell
     absolute magnetization    =     0.00 Bohr mag/cell

     iteration #  3     ecut=    60.00 Ry     beta= 0.70
     CG style diagonalization
     ethr =  1.06E-09,  avg # of iterations =  3.5

     negative rho (up, down):  2.124E-04 2.124E-04

     Magnetic moment per site:
     atom:    1    charge:    1.3544    magn:    0.0000    constr:    0.0000
     atom:    2    charge:    0.4444    magn:   -0.0000    constr:    0.0000
     atom:    3    charge:    0.4450    magn:    0.0000    constr:    0.0000
     atom:    4    charge:    0.4450    magn:    0.0000    constr:    0.0000

     total cpu time spent up to now is    16208.8 secs

     End of self-consistent calculation

 ------ SPIN UP ------------


          k = 0.0000 0.0000 0.0000 (423701 PWs)   bands (ev):

   -29.4389 -19.3133 -19.3133 -14.8450  -8.7455  -8.0185  -7.9022  -7.9020

          k = 0.0000 0.2500 0.0000 (423725 PWs)   bands (ev):

   -29.4389 -19.3133 -19.3133 -14.8450  -8.7444  -8.0519  -7.8939  -7.8900

          k = 0.0000-0.5000 0.0000 (423542 PWs)   bands (ev):

   -29.4389 -19.3133 -19.3133 -14.8450  -8.7434  -8.0776  -7.8747  -7.8723

          k = 0.2500 0.0000 0.0000 (423725 PWs)   bands (ev):

   -29.4389 -19.3133 -19.3133 -14.8450  -8.7444  -8.0519  -7.8955  -7.8883

          k = 0.2500 0.2500 0.0000 (423766 PWs)   bands (ev):

   -29.4389 -19.3133 -19.3133 -14.8450  -8.7434  -8.0477  -7.9801  -7.7953

          k = 0.2500-0.5000 0.0000 (423782 PWs)   bands (ev):

   -29.4389 -19.3133 -19.3133 -14.8450  -8.7424  -8.0574  -7.9827  -7.8567

          k = 0.2500-0.2500 0.0000 (423766 PWs)   bands (ev):

   -29.4389 -19.3133 -19.3133 -14.8450  -8.7434  -8.0477  -7.9801  -7.7953

          k =-0.5000 0.0000 0.0000 (423542 PWs)   bands (ev):

   -29.4389 -19.3133 -19.3133 -14.8450  -8.7434  -8.0776  -7.8770  -7.8697

          k =-0.5000 0.2500 0.0000 (423782 PWs)   bands (ev):

   -29.4389 -19.3133 -19.3133 -14.8450  -8.7424  -8.0575  -7.9826  -7.8566

          k =-0.5000-0.5000 0.0000 (423708 PWs)   bands (ev):

   -29.4389 -19.3133 -19.3133 -14.8450  -8.7414  -8.0208  -8.0207  -7.9371

 ------ SPIN DOWN ----------


          k = 0.0000 0.0000 0.0000 (423701 PWs)   bands (ev):

   -29.4389 -19.3133 -19.3133 -14.8450  -8.7455  -8.0185  -7.9022  -7.9020

          k = 0.0000 0.2500 0.0000 (423725 PWs)   bands (ev):

   -29.4389 -19.3133 -19.3133 -14.8450  -8.7444  -8.0519  -7.8939  -7.8900

          k = 0.0000-0.5000 0.0000 (423542 PWs)   bands (ev):

   -29.4389 -19.3133 -19.3133 -14.8450  -8.7434  -8.0776  -7.8747  -7.8723

          k = 0.2500 0.0000 0.0000 (423725 PWs)   bands (ev):

   -29.4389 -19.3133 -19.3133 -14.8450  -8.7444  -8.0519  -7.8955  -7.8883

          k = 0.2500 0.2500 0.0000 (423766 PWs)   bands (ev):

   -29.4389 -19.3133 -19.3133 -14.8450  -8.7434  -8.0477  -7.9801  -7.7953

          k = 0.2500-0.5000 0.0000 (423782 PWs)   bands (ev):

   -29.4389 -19.3133 -19.3133 -14.8450  -8.7424  -8.0574  -7.9827  -7.8567

          k = 0.2500-0.2500 0.0000 (423766 PWs)   bands (ev):

   -29.4389 -19.3133 -19.3133 -14.8450  -8.7434  -8.0477  -7.9801  -7.7953

          k =-0.5000 0.0000 0.0000 (423542 PWs)   bands (ev):

   -29.4389 -19.3133 -19.3133 -14.8450  -8.7434  -8.0776  -7.8770  -7.8697

          k =-0.5000 0.2500 0.0000 (423782 PWs)   bands (ev):

   -29.4389 -19.3133 -19.3133 -14.8450  -8.7424  -8.0575  -7.9826  -7.8566

          k =-0.5000-0.5000 0.0000 (423708 PWs)   bands (ev):

   -29.4389 -19.3133 -19.3133 -14.8450  -8.7414  -8.0208  -8.0207  -7.9371

     the Fermi energy is   -13.0702 ev

!    total energy              =     -23.80262517 Ry
     estimated scf accuracy    <          9.2E-10 Ry
     smearing contrib. (-TS)   =       0.00000000 Ry
     internal energy E=F+TS    =     -23.80262517 Ry

     The total energy is F=E-TS. E is the sum of the following terms:
     one-electron contribution =     -64.81048193 Ry
     hartree contribution      =      31.03278988 Ry
     xc contribution           =      -7.58176286 Ry
     ewald contribution        =      12.67064090 Ry
     Dispersion Correction     =      -0.00026551 Ry
     electric field correction =       4.88645433 Ry

     total magnetization       =     0.00 Bohr mag/cell
     absolute magnetization    =     0.00 Bohr mag/cell

     convergence has been achieved in   3 iterations

     negative rho (up, down):  2.124E-04 2.124E-04

     Forces acting on atoms (cartesian axes, Ry/au):

     atom    1 type  1   force =     0.00000030   -0.00000097   -0.00109600
     atom    2 type  2   force =    -0.00000018    0.00003932    0.00036587
     atom    3 type  2   force =     0.00003414   -0.00001925    0.00036482
     atom    4 type  2   force =    -0.00003426   -0.00001910    0.00036531

     Total force =     0.000636     Total SCF correction =     0.000006
     Energy error            =      9.5E-07
     Gradient error          =      3.7E-04

     number of scf cycles    = 249
     number of bfgs steps    =   8

     energy   old            =     -23.8026261162 Ry
     energy   new            =     -23.8026251695 Ry

     CASE: energy  _new > energy  _old

     new trust radius        =       0.0002180215 bohr
     new conv_thr            =       0.0000000100 Ry


ATOMIC_POSITIONS (angstrom)
N            10.0000000000       10.0000000000        0.0000000000    0   0   0
H            10.0000003427       10.9262856060       -0.4392263745
H            10.8021848710        9.5368615038       -0.4392344924
H             9.1978160853        9.5368616192       -0.4392363966



     Writing output data file ./NH3_ESM_VA12.save/
     NEW-OLD atomic charge density approx. for the potential

     negative rho (up, down):  2.123E-04 2.123E-04

     Adding external electric field
        E field amplitude [Ha a.u.]: -2.3644E-02
        Potential amp.       -1.6085 Ry
        Total length         34.0151 bohr

     Generating pointlists ...

     total cpu time spent up to now is    16229.4 secs

     Self-consistent Calculation

     iteration #  1     ecut=    60.00 Ry     beta= 0.70
     CG style diagonalization
     ethr =  1.00E-06,  avg # of iterations =  2.0

     Threshold (ethr) on eigenvalues was too large:
     Diagonalizing with lowered threshold

     CG style diagonalization
     ethr =  1.10E-09,  avg # of iterations =  2.8

     negative rho (up, down):  2.123E-04 2.123E-04

     total cpu time spent up to now is    16253.6 secs

     total energy              =     -23.80262586 Ry
     estimated scf accuracy    <       0.00000017 Ry

     total magnetization       =     0.00 Bohr mag/cell
     absolute magnetization    =     0.00 Bohr mag/cell

     iteration #  2     ecut=    60.00 Ry     beta= 0.70
     CG style diagonalization
     ethr =  2.17E-09,  avg # of iterations =  3.8

     negative rho (up, down):  2.123E-04 2.123E-04

     total cpu time spent up to now is    16273.0 secs

     total energy              =     -23.80262590 Ry
     estimated scf accuracy    <       0.00000008 Ry

     total magnetization       =    -0.00 Bohr mag/cell
     absolute magnetization    =     0.00 Bohr mag/cell

     iteration #  3     ecut=    60.00 Ry     beta= 0.70
     CG style diagonalization
     ethr =  9.54E-10,  avg # of iterations =  3.5

     negative rho (up, down):  2.123E-04 2.123E-04

     Magnetic moment per site:
     atom:    1    charge:    1.3543    magn:   -0.0000    constr:    0.0000
     atom:    2    charge:    0.4442    magn:    0.0000    constr:    0.0000
     atom:    3    charge:    0.4448    magn:   -0.0000    constr:    0.0000
     atom:    4    charge:    0.4448    magn:   -0.0000    constr:    0.0000

     total cpu time spent up to now is    16290.2 secs

     End of self-consistent calculation

 ------ SPIN UP ------------


          k = 0.0000 0.0000 0.0000 (423701 PWs)   bands (ev):

   -29.4365 -19.3112 -19.3112 -14.8452  -8.7460  -8.0185  -7.9022  -7.9021

          k = 0.0000 0.2500 0.0000 (423725 PWs)   bands (ev):

   -29.4365 -19.3112 -19.3112 -14.8452  -8.7449  -8.0519  -7.8940  -7.8901

          k = 0.0000-0.5000 0.0000 (423542 PWs)   bands (ev):

   -29.4365 -19.3112 -19.3112 -14.8452  -8.7439  -8.0776  -7.8748  -7.8724

          k = 0.2500 0.0000 0.0000 (423725 PWs)   bands (ev):

   -29.4365 -19.3112 -19.3112 -14.8452  -8.7449  -8.0519  -7.8956  -7.8883

          k = 0.2500 0.2500 0.0000 (423766 PWs)   bands (ev):

   -29.4365 -19.3112 -19.3112 -14.8452  -8.7439  -8.0477  -7.9801  -7.7954

          k = 0.2500-0.5000 0.0000 (423782 PWs)   bands (ev):

   -29.4365 -19.3112 -19.3112 -14.8452  -8.7429  -8.0574  -7.9827  -7.8567

          k = 0.2500-0.2500 0.0000 (423766 PWs)   bands (ev):

   -29.4365 -19.3112 -19.3112 -14.8452  -8.7439  -8.0477  -7.9801  -7.7954

          k =-0.5000 0.0000 0.0000 (423542 PWs)   bands (ev):

   -29.4365 -19.3112 -19.3112 -14.8452  -8.7439  -8.0776  -7.8771  -7.8698

          k =-0.5000 0.2500 0.0000 (423782 PWs)   bands (ev):

   -29.4365 -19.3112 -19.3112 -14.8452  -8.7429  -8.0575  -7.9827  -7.8567

          k =-0.5000-0.5000 0.0000 (423708 PWs)   bands (ev):

   -29.4365 -19.3112 -19.3112 -14.8452  -8.7419  -8.0209  -8.0207  -7.9371

 ------ SPIN DOWN ----------


          k = 0.0000 0.0000 0.0000 (423701 PWs)   bands (ev):

   -29.4365 -19.3112 -19.3112 -14.8452  -8.7460  -8.0185  -7.9022  -7.9021

          k = 0.0000 0.2500 0.0000 (423725 PWs)   bands (ev):

   -29.4365 -19.3112 -19.3112 -14.8452  -8.7449  -8.0519  -7.8940  -7.8901

          k = 0.0000-0.5000 0.0000 (423542 PWs)   bands (ev):

   -29.4365 -19.3112 -19.3112 -14.8452  -8.7439  -8.0776  -7.8748  -7.8724

          k = 0.2500 0.0000 0.0000 (423725 PWs)   bands (ev):

   -29.4365 -19.3112 -19.3112 -14.8452  -8.7449  -8.0519  -7.8956  -7.8883

          k = 0.2500 0.2500 0.0000 (423766 PWs)   bands (ev):

   -29.4365 -19.3112 -19.3112 -14.8452  -8.7439  -8.0477  -7.9801  -7.7954

          k = 0.2500-0.5000 0.0000 (423782 PWs)   bands (ev):

   -29.4365 -19.3112 -19.3112 -14.8452  -8.7429  -8.0574  -7.9827  -7.8567

          k = 0.2500-0.2500 0.0000 (423766 PWs)   bands (ev):

   -29.4365 -19.3112 -19.3112 -14.8452  -8.7439  -8.0477  -7.9801  -7.7954

          k =-0.5000 0.0000 0.0000 (423542 PWs)   bands (ev):

   -29.4365 -19.3112 -19.3112 -14.8452  -8.7439  -8.0776  -7.8771  -7.8698

          k =-0.5000 0.2500 0.0000 (423782 PWs)   bands (ev):

   -29.4365 -19.3112 -19.3112 -14.8452  -8.7429  -8.0575  -7.9827  -7.8567

          k =-0.5000-0.5000 0.0000 (423708 PWs)   bands (ev):

   -29.4365 -19.3112 -19.3112 -14.8452  -8.7419  -8.0209  -8.0207  -7.9371

     the Fermi energy is   -13.0696 ev

!    total energy              =     -23.80262592 Ry
     estimated scf accuracy    <          8.6E-10 Ry
     smearing contrib. (-TS)   =       0.00000000 Ry
     internal energy E=F+TS    =     -23.80262592 Ry

     The total energy is F=E-TS. E is the sum of the following terms:
     one-electron contribution =     -64.80407356 Ry
     hartree contribution      =      31.02967407 Ry
     xc contribution           =      -7.58120007 Ry
     ewald contribution        =      12.66684115 Ry
     Dispersion Correction     =      -0.00026593 Ry
     electric field correction =       4.88639842 Ry

     total magnetization       =     0.00 Bohr mag/cell
     absolute magnetization    =     0.00 Bohr mag/cell

     convergence has been achieved in   3 iterations

     negative rho (up, down):  2.123E-04 2.123E-04

     Forces acting on atoms (cartesian axes, Ry/au):

     atom    1 type  1   force =     0.00000001   -0.00000033   -0.00152128
     atom    2 type  2   force =     0.00000002   -0.00029242    0.00050704
     atom    3 type  2   force =    -0.00025330    0.00014643    0.00050709
     atom    4 type  2   force =     0.00025327    0.00014632    0.00050715

     Total force =     0.001014     Total SCF correction =     0.000005
     Energy error            =      1.9E-07
     Gradient error          =      5.1E-04

     number of scf cycles    = 250
     number of bfgs steps    =   8

     energy   old            =     -23.8026261162 Ry
     energy   new            =     -23.8026259237 Ry

     CASE: energy  _new > energy  _old

     new trust radius        =       0.0000770486 bohr

     trust_radius < trust_radius_min

     resetting bfgs history


     The maximum number of steps has been reached.

     End of BFGS Geometry Optimization

ATOMIC_POSITIONS (angstrom)
N            10.0000000000       10.0000000000        0.0000000000    0   0   0
H            10.0000003596       10.9261303089       -0.4390177923
H            10.8020503850        9.5369392367       -0.4390259515
H             9.1979505733        9.5369393334       -0.4390278380



     Writing output data file ./NH3_ESM_VA12.save/
     NEW-OLD atomic charge density approx. for the potential

     negative rho (up, down):  2.124E-04 2.124E-04

     Adding external electric field
        E field amplitude [Ha a.u.]: -2.3644E-02
        Potential amp.       -1.6085 Ry
        Total length         34.0151 bohr

     Generating pointlists ...

     Writing output data file ./NH3_ESM_VA12.save/

     init_run     :     18.43s CPU     21.00s WALL (       1 calls)
     electrons    :  11535.18s CPU  12452.39s WALL (     200 calls)
     update_pot   :   1545.77s CPU   1671.30s WALL (     200 calls)
     forces       :   1612.38s CPU   1750.46s WALL (     200 calls)

     Called by init_run:
     wfcinit      :      0.22s CPU      1.07s WALL (       1 calls)
     potinit      :      7.11s CPU      8.27s WALL (       1 calls)
     hinit0       :      1.31s CPU      1.59s WALL (       1 calls)

     Called by electrons:
     c_bands      :   4651.68s CPU   4787.43s WALL (     800 calls)
     sum_band     :   1816.18s CPU   1885.24s WALL (     800 calls)
     v_of_rho     :   4533.84s CPU   4963.78s WALL (     801 calls)
     newd         :    510.48s CPU    543.97s WALL (     801 calls)
     mix_rho      :    527.26s CPU    631.59s WALL (     800 calls)

     Called by c_bands:
     init_us_2    :     33.11s CPU     34.52s WALL (    5400 calls)
     ccgdiagg     :   3907.31s CPU   3959.94s WALL (    2400 calls)
     wfcrot       :    664.82s CPU    673.58s WALL (    1200 calls)

     Called by *cgdiagg:
     h_psi        :   3918.94s CPU   3971.92s WALL (   49513 calls)
     s_psi        :    264.13s CPU    267.37s WALL (   97826 calls)

     Called by h_psi:
     h_psi:calbec :    170.71s CPU    173.15s WALL (   49513 calls)
     vloc_psi     :   3543.76s CPU   3591.85s WALL (   49513 calls)
     add_vuspsi   :    185.77s CPU    188.20s WALL (   49513 calls)
     hs_1psi      :   3437.92s CPU   3484.43s WALL (   48313 calls)
     s_1psi       :    294.75s CPU    298.37s WALL (   48313 calls)

     General routines
     calbec       :    348.79s CPU    353.89s WALL (  102626 calls)
     fft          :   5434.40s CPU   5617.38s WALL (   23223 calls)
     ffts         :    253.05s CPU    256.26s WALL (    3202 calls)
     fftw         :   3410.91s CPU   3455.58s WALL (  135026 calls)
     interpolate  :    540.49s CPU    601.45s WALL (    1602 calls)
     davcio       :      1.56s CPU     56.96s WALL (    9406 calls)

     Parallel routines
     fft_scatt_xy :   1416.48s CPU   1435.88s WALL (  161451 calls)
     fft_scatt_yz :   3142.64s CPU   3190.97s WALL (  161451 calls)

     PWSCF        :      4h11m CPU      4h31m WALL


   This run was terminated on:   5: 8: 8  29Sep2022            

=------------------------------------------------------------------------------=
   JOB DONE.
=------------------------------------------------------------------------------=
