
     Program PHONON v.6.7MaX starts on 29Sep2022 at 11:58:34 

     This program is part of the open-source Quantum ESPRESSO suite
     for quantum simulation of materials; please cite
         "P. Giannozzi et al., J. Phys.:Condens. Matter 21 395502 (2009);
         "P. Giannozzi et al., J. Phys.:Condens. Matter 29 465901 (2017);
          URL http://www.quantum-espresso.org", 
     in publications or presentations arising from this work. More details at
     http://www.quantum-espresso.org/quote

     Parallel version (MPI), running on   120 processors

     MPI processes distributed on     1 nodes
     K-points division:     npool     =       8
     R & G space division:  proc/nbgrp/npool/nimage =      15
     Waiting for input...
     Reading input from standard input

     Reading xml data from directory:

     ./NH3_ESM_VA12.save/

     IMPORTANT: XC functional enforced from input :
     Exchange-correlation= PBE
                           (   1   4   3   4   0   0   0)
     Any further DFT definition will be discarded
     Please, verify this is what you really want


     Parallelization info
     --------------------
     sticks:   dense  smooth     PW     G-vecs:    dense   smooth      PW
     Min        3636    1818    468               639190   225950   29545
     Max        3637    1819    470               639197   225953   29547
     Sum       54553   27281   7033              9587919  3389267  443191


     Adding external electric field
        E field amplitude [Ha a.u.]: -2.3644E-02
        Potential amp.       -1.6085 Ry
        Total length         34.0151 bohr


     negative rho (up, down):  2.124E-04 2.124E-04
     Reading collected, re-writing distributed wavefunctions

     Calculation of q =    0.0000000   0.0000000   0.0000000

     phonons (vibrational modes) for NH3                                        

     bravais-lattice index     =            0
     lattice parameter (alat)  =      37.7945  a.u.
     unit-cell volume          =   53986.6760 (a.u.)^3
     number of atoms/cell      =            4
     number of atomic types    =            2
     kinetic-energy cut-off    =      60.0000  Ry
     charge density cut-off    =     480.0000  Ry
     convergence threshold     =      1.0E-12
     beta                      =       0.7000
     number of iterations used =            4
     Exchange-correlation= PBE
                           (   1   4   3   4   0   0   0)


     celldm(1)=   37.79452  celldm(2)=    0.00000  celldm(3)=    0.00000
     celldm(4)=    0.00000  celldm(5)=    0.00000  celldm(6)=    0.00000

     crystal axes: (cart. coord. in units of alat)
               a(1) = (  1.0000  0.0000  0.0000 )  
               a(2) = (  0.0000  1.0000  0.0000 )  
               a(3) = (  0.0000  0.0000  1.0000 )  

     reciprocal axes: (cart. coord. in units 2 pi/alat)
               b(1) = (  1.0000  0.0000  0.0000 )  
               b(2) = (  0.0000  1.0000  0.0000 )  
               b(3) = (  0.0000  0.0000  1.0000 )  


     Atoms inside the unit cell: 

     Cartesian axes

     site n.  atom      mass           positions (alat units)
        1     N   14.0067   tau(    1) = (    0.50000    0.50000    0.00000  )
        2     H    1.0078   tau(    2) = (    0.50000    0.54631   -0.02195  )
        3     H    1.0078   tau(    3) = (    0.54010    0.47685   -0.02195  )
        4     H    1.0078   tau(    4) = (    0.45990    0.47685   -0.02195  )

     Computing dynamical matrix for 
                    q = (   0.0000000   0.0000000   0.0000000 )

      2 Sym.Ops. (with q -> -q+G )


     G cutoff =17367.5767  ( 639197 G-vectors)     FFT grid: (270,270,270)
     G cutoff = 8683.7884  ( 225950 G-vectors)  smooth grid: (192,192,192)

     number of k points=    20  Methfessel-Paxton smearing, width (Ry)=  0.0100
                       cart. coord. in units 2pi/alat
        k(    1) = (   0.0000000   0.0000000   0.0000000), wk =   0.0625000
        k(    2) = (   0.0000000   0.2500000   0.0000000), wk =   0.1250000
        k(    3) = (   0.0000000  -0.5000000   0.0000000), wk =   0.0625000
        k(    4) = (   0.2500000   0.0000000   0.0000000), wk =   0.1250000
        k(    5) = (   0.2500000   0.2500000   0.0000000), wk =   0.1250000
        k(    6) = (   0.2500000  -0.5000000   0.0000000), wk =   0.1250000
        k(    7) = (   0.2500000  -0.2500000   0.0000000), wk =   0.1250000
        k(    8) = (  -0.5000000   0.0000000   0.0000000), wk =   0.0625000
        k(    9) = (  -0.5000000   0.2500000   0.0000000), wk =   0.1250000
        k(   10) = (  -0.5000000  -0.5000000   0.0000000), wk =   0.0625000
        k(   11) = (   0.0000000   0.0000000   0.0000000), wk =   0.0625000
        k(   12) = (   0.0000000   0.2500000   0.0000000), wk =   0.1250000
        k(   13) = (   0.0000000  -0.5000000   0.0000000), wk =   0.0625000
        k(   14) = (   0.2500000   0.0000000   0.0000000), wk =   0.1250000
        k(   15) = (   0.2500000   0.2500000   0.0000000), wk =   0.1250000
        k(   16) = (   0.2500000  -0.5000000   0.0000000), wk =   0.1250000
        k(   17) = (   0.2500000  -0.2500000   0.0000000), wk =   0.1250000
        k(   18) = (  -0.5000000   0.0000000   0.0000000), wk =   0.0625000
        k(   19) = (  -0.5000000   0.2500000   0.0000000), wk =   0.1250000
        k(   20) = (  -0.5000000  -0.5000000   0.0000000), wk =   0.0625000

     PseudoPot. # 1 for N  read from file:
     ../../SSSP/N.pbe-n-radius_5.UPF
     MD5 check sum: 16739722b17309cd8fe442a2ace49922
     Pseudo is Ultrasoft + core correction, Zval =  5.0
     Generated using "atomic" code by A. Dal Corso  v.5.1
     Using radial grid of 1085 points,  4 beta functions with: 
                l(1) =   0
                l(2) =   0
                l(3) =   1
                l(4) =   1
     Q(r) pseudized with 0 coefficients 


     PseudoPot. # 2 for H  read from file:
     ../../SSSP/H.pbe-rrkjus_psl.1.0.0.UPF
     MD5 check sum: f52b6d4d1c606e5624b1dc7b2218f220
     Pseudo is Ultrasoft, Zval =  1.0
     Generated using "atomic" code by A. Dal Corso  v.5.1
     Using radial grid of  929 points,  2 beta functions with: 
                l(1) =   0
                l(2) =   0
     Q(r) pseudized with 0 coefficients 


     Mode symmetry, C_1 (1)     point group:


     Atomic displacements:
     There are   12 irreducible representations

     Representation     1      1 modes -  To be done

     Representation     2      1 modes -  To be done

     Representation     3      1 modes -  To be done

     Representation     4      1 modes -  To be done

     Representation     5      1 modes -  To be done

     Representation     6      1 modes -  To be done

     Representation     7      1 modes -  To be done

     Representation     8      1 modes -  To be done

     Representation     9      1 modes -  To be done

     Representation    10      1 modes -  To be done

     Representation    11      1 modes -  To be done

     Representation    12      1 modes -  To be done



     Alpha used in Ewald sum =   2.8000

     -------------------------------------------------
     Parameters for Dispersion (Grimme-D2) Correction:
     -------------------------------------------------
       atom      VdW radius       C_6     

        N          2.640         42.670
        H          1.892          4.857

     Calculating the D2 contribution to the dynamical matrix.
     D2 energy =       -0.00026551 Ry
     Done.


     negative rho (up, down):  2.124E-04 2.124E-04
     PHONON       :   3m30.47s CPU   3m39.07s WALL



     Representation #   1 mode #   1

     Self-consistent Calculation

     Pert. #  1: Fermi energy shift (Ry) =     0.0000E+00     0.0000E+00

      iter #   1 total cpu time :   268.2 secs   av.it.:   8.0
      thresh= 1.000E-02 alpha_mix =  0.700 |ddv_scf|^2 =  2.086E-06

     Pert. #  1: Fermi energy shift (Ry) =     0.0000E+00     0.0000E+00

      iter #   2 total cpu time :   307.7 secs   av.it.:  13.0
      thresh= 1.444E-04 alpha_mix =  0.700 |ddv_scf|^2 =  2.655E-07

     Pert. #  1: Fermi energy shift (Ry) =     0.0000E+00     0.0000E+00

      iter #   3 total cpu time :   349.4 secs   av.it.:  13.0
      thresh= 5.153E-05 alpha_mix =  0.700 |ddv_scf|^2 =  3.718E-09

     Pert. #  1: Fermi energy shift (Ry) =     0.0000E+00     0.0000E+00

      iter #   4 total cpu time :   396.2 secs   av.it.:  15.0
      thresh= 6.097E-06 alpha_mix =  0.700 |ddv_scf|^2 =  1.575E-12

     Pert. #  1: Fermi energy shift (Ry) =     0.0000E+00     0.0000E+00

      iter #   5 total cpu time :   441.9 secs   av.it.:  15.1
      thresh= 1.255E-07 alpha_mix =  0.700 |ddv_scf|^2 =  6.401E-13

     End of self-consistent calculation

     Convergence has been achieved 


     Representation #   2 mode #   2

     Self-consistent Calculation

     Pert. #  1: Fermi energy shift (Ry) =     0.0000E+00     0.0000E+00

      iter #   1 total cpu time :   508.0 secs   av.it.:   8.0
      thresh= 1.000E-02 alpha_mix =  0.700 |ddv_scf|^2 =  2.532E-06

     Pert. #  1: Fermi energy shift (Ry) =     0.0000E+00     0.0000E+00

      iter #   2 total cpu time :   546.7 secs   av.it.:  12.0
      thresh= 1.591E-04 alpha_mix =  0.700 |ddv_scf|^2 =  3.272E-07

     Pert. #  1: Fermi energy shift (Ry) =     0.0000E+00     0.0000E+00

      iter #   3 total cpu time :   589.5 secs   av.it.:  13.0
      thresh= 5.720E-05 alpha_mix =  0.700 |ddv_scf|^2 =  5.311E-09

     Pert. #  1: Fermi energy shift (Ry) =     0.0000E+00     0.0000E+00

      iter #   4 total cpu time :   635.4 secs   av.it.:  14.2
      thresh= 7.287E-06 alpha_mix =  0.700 |ddv_scf|^2 =  3.607E-11

     Pert. #  1: Fermi energy shift (Ry) =     0.0000E+00     0.0000E+00

      iter #   5 total cpu time :   678.5 secs   av.it.:  16.0
      thresh= 6.006E-07 alpha_mix =  0.700 |ddv_scf|^2 =  5.887E-13

     End of self-consistent calculation

     Convergence has been achieved 


     Representation #   3 mode #   3

     Self-consistent Calculation

     Pert. #  1: Fermi energy shift (Ry) =     0.0000E+00     0.0000E+00

      iter #   1 total cpu time :   743.6 secs   av.it.:   8.0
      thresh= 1.000E-02 alpha_mix =  0.700 |ddv_scf|^2 =  6.431E-06

     Pert. #  1: Fermi energy shift (Ry) =     0.0000E+00     0.0000E+00

      iter #   2 total cpu time :   783.8 secs   av.it.:  12.0
      thresh= 2.536E-04 alpha_mix =  0.700 |ddv_scf|^2 =  8.499E-07

     Pert. #  1: Fermi energy shift (Ry) =     0.0000E+00     0.0000E+00

      iter #   3 total cpu time :   825.8 secs   av.it.:  11.0
      thresh= 9.219E-05 alpha_mix =  0.700 |ddv_scf|^2 =  1.604E-08

     Pert. #  1: Fermi energy shift (Ry) =     0.0000E+00     0.0000E+00

      iter #   4 total cpu time :   873.1 secs   av.it.:  14.0
      thresh= 1.267E-05 alpha_mix =  0.700 |ddv_scf|^2 =  1.110E-09

     Pert. #  1: Fermi energy shift (Ry) =     0.0000E+00     0.0000E+00

      iter #   5 total cpu time :   917.7 secs   av.it.:  14.0
      thresh= 3.331E-06 alpha_mix =  0.700 |ddv_scf|^2 =  1.818E-12

     Pert. #  1: Fermi energy shift (Ry) =     0.0000E+00     0.0000E+00

      iter #   6 total cpu time :   972.6 secs   av.it.:  14.0
      thresh= 1.348E-07 alpha_mix =  0.700 |ddv_scf|^2 =  1.130E-12

     Pert. #  1: Fermi energy shift (Ry) =     0.0000E+00     0.0000E+00

      iter #   7 total cpu time :  1012.8 secs   av.it.:  13.0
      thresh= 1.063E-07 alpha_mix =  0.700 |ddv_scf|^2 =  3.065E-16

     End of self-consistent calculation

     Convergence has been achieved 


     Representation #   4 mode #   4

     Self-consistent Calculation

     Pert. #  1: Fermi energy shift (Ry) =     0.0000E+00     0.0000E+00

      iter #   1 total cpu time :  1074.8 secs   av.it.:   5.0
      thresh= 1.000E-02 alpha_mix =  0.700 |ddv_scf|^2 =  1.250E-08

     Pert. #  1: Fermi energy shift (Ry) =     0.0000E+00     0.0000E+00

      iter #   2 total cpu time :  1114.4 secs   av.it.:  12.0
      thresh= 1.118E-05 alpha_mix =  0.700 |ddv_scf|^2 =  1.092E-09

     Pert. #  1: Fermi energy shift (Ry) =     0.0000E+00     0.0000E+00

      iter #   3 total cpu time :  1156.9 secs   av.it.:  13.0
      thresh= 3.305E-06 alpha_mix =  0.700 |ddv_scf|^2 =  5.298E-12

     Pert. #  1: Fermi energy shift (Ry) =     0.0000E+00     0.0000E+00

      iter #   4 total cpu time :  1205.1 secs   av.it.:  16.2
      thresh= 2.302E-07 alpha_mix =  0.700 |ddv_scf|^2 =  4.396E-14

     End of self-consistent calculation

     Convergence has been achieved 


     Representation #   5 mode #   5

     Self-consistent Calculation

     Pert. #  1: Fermi energy shift (Ry) =     0.0000E+00     0.0000E+00

      iter #   1 total cpu time :  1268.5 secs   av.it.:   6.0
      thresh= 1.000E-02 alpha_mix =  0.700 |ddv_scf|^2 =  5.155E-08

     Pert. #  1: Fermi energy shift (Ry) =     0.0000E+00     0.0000E+00

      iter #   2 total cpu time :  1310.2 secs   av.it.:  14.0
      thresh= 2.270E-05 alpha_mix =  0.700 |ddv_scf|^2 =  5.868E-09

     Pert. #  1: Fermi energy shift (Ry) =     0.0000E+00     0.0000E+00

      iter #   3 total cpu time :  1354.0 secs   av.it.:  16.1
      thresh= 7.661E-06 alpha_mix =  0.700 |ddv_scf|^2 =  1.156E-09

     Pert. #  1: Fermi energy shift (Ry) =     0.0000E+00     0.0000E+00

      iter #   4 total cpu time :  1401.8 secs   av.it.:  16.0
      thresh= 3.399E-06 alpha_mix =  0.700 |ddv_scf|^2 =  1.172E-11

     Pert. #  1: Fermi energy shift (Ry) =     0.0000E+00     0.0000E+00

      iter #   5 total cpu time :  1450.4 secs   av.it.:  16.0
      thresh= 3.424E-07 alpha_mix =  0.700 |ddv_scf|^2 =  3.010E-13

     End of self-consistent calculation

     Convergence has been achieved 


     Representation #   6 mode #   6

     Self-consistent Calculation

     Pert. #  1: Fermi energy shift (Ry) =     0.0000E+00     0.0000E+00

      iter #   1 total cpu time :  1512.9 secs   av.it.:   5.1
      thresh= 1.000E-02 alpha_mix =  0.700 |ddv_scf|^2 =  1.060E-07

     Pert. #  1: Fermi energy shift (Ry) =     0.0000E+00     0.0000E+00

      iter #   2 total cpu time :  1554.0 secs   av.it.:  13.0
      thresh= 3.256E-05 alpha_mix =  0.700 |ddv_scf|^2 =  7.590E-09

     Pert. #  1: Fermi energy shift (Ry) =     0.0000E+00     0.0000E+00

      iter #   3 total cpu time :  1599.3 secs   av.it.:  15.3
      thresh= 8.712E-06 alpha_mix =  0.700 |ddv_scf|^2 =  4.791E-10

     Pert. #  1: Fermi energy shift (Ry) =     0.0000E+00     0.0000E+00

      iter #   4 total cpu time :  1648.9 secs   av.it.:  16.0
      thresh= 2.189E-06 alpha_mix =  0.700 |ddv_scf|^2 =  3.151E-12

     Pert. #  1: Fermi energy shift (Ry) =     0.0000E+00     0.0000E+00

      iter #   5 total cpu time :  1697.5 secs   av.it.:  17.0
      thresh= 1.775E-07 alpha_mix =  0.700 |ddv_scf|^2 =  6.517E-14

     End of self-consistent calculation

     Convergence has been achieved 


     Representation #   7 mode #   7

     Self-consistent Calculation

     Pert. #  1: Fermi energy shift (Ry) =     0.0000E+00     0.0000E+00

      iter #   1 total cpu time :  1760.7 secs   av.it.:   6.0
      thresh= 1.000E-02 alpha_mix =  0.700 |ddv_scf|^2 =  4.695E-08

     Pert. #  1: Fermi energy shift (Ry) =     0.0000E+00     0.0000E+00

      iter #   2 total cpu time :  1801.5 secs   av.it.:  13.6
      thresh= 2.167E-05 alpha_mix =  0.700 |ddv_scf|^2 =  3.356E-09

     Pert. #  1: Fermi energy shift (Ry) =     0.0000E+00     0.0000E+00

      iter #   3 total cpu time :  1845.4 secs   av.it.:  16.8
      thresh= 5.793E-06 alpha_mix =  0.700 |ddv_scf|^2 =  8.195E-10

     Pert. #  1: Fermi energy shift (Ry) =     0.0000E+00     0.0000E+00

      iter #   4 total cpu time :  1893.7 secs   av.it.:  16.0
      thresh= 2.863E-06 alpha_mix =  0.700 |ddv_scf|^2 =  2.819E-12

     Pert. #  1: Fermi energy shift (Ry) =     0.0000E+00     0.0000E+00

      iter #   5 total cpu time :  1942.7 secs   av.it.:  17.0
      thresh= 1.679E-07 alpha_mix =  0.700 |ddv_scf|^2 =  1.491E-13

     End of self-consistent calculation

     Convergence has been achieved 


     Representation #   8 mode #   8

     Self-consistent Calculation

     Pert. #  1: Fermi energy shift (Ry) =     0.0000E+00     0.0000E+00

      iter #   1 total cpu time :  2005.6 secs   av.it.:   5.1
      thresh= 1.000E-02 alpha_mix =  0.700 |ddv_scf|^2 =  1.899E-08

     Pert. #  1: Fermi energy shift (Ry) =     0.0000E+00     0.0000E+00

      iter #   2 total cpu time :  2047.3 secs   av.it.:  13.3
      thresh= 1.378E-05 alpha_mix =  0.700 |ddv_scf|^2 =  1.337E-09

     Pert. #  1: Fermi energy shift (Ry) =     0.0000E+00     0.0000E+00

      iter #   3 total cpu time :  2092.0 secs   av.it.:  16.8
      thresh= 3.656E-06 alpha_mix =  0.700 |ddv_scf|^2 =  2.074E-10

     Pert. #  1: Fermi energy shift (Ry) =     0.0000E+00     0.0000E+00

      iter #   4 total cpu time :  2139.1 secs   av.it.:  17.0
      thresh= 1.440E-06 alpha_mix =  0.700 |ddv_scf|^2 =  3.503E-12

     Pert. #  1: Fermi energy shift (Ry) =     0.0000E+00     0.0000E+00

      iter #   5 total cpu time :  2187.1 secs   av.it.:  16.2
      thresh= 1.872E-07 alpha_mix =  0.700 |ddv_scf|^2 =  4.541E-14

     End of self-consistent calculation

     Convergence has been achieved 


     Representation #   9 mode #   9

     Self-consistent Calculation

     Pert. #  1: Fermi energy shift (Ry) =     0.0000E+00     0.0000E+00

      iter #   1 total cpu time :  2250.4 secs   av.it.:   5.2
      thresh= 1.000E-02 alpha_mix =  0.700 |ddv_scf|^2 =  7.727E-08

     Pert. #  1: Fermi energy shift (Ry) =     0.0000E+00     0.0000E+00

      iter #   2 total cpu time :  2291.7 secs   av.it.:  13.1
      thresh= 2.780E-05 alpha_mix =  0.700 |ddv_scf|^2 =  4.826E-09

     Pert. #  1: Fermi energy shift (Ry) =     0.0000E+00     0.0000E+00

      iter #   3 total cpu time :  2336.5 secs   av.it.:  16.0
      thresh= 6.947E-06 alpha_mix =  0.700 |ddv_scf|^2 =  4.699E-10

     Pert. #  1: Fermi energy shift (Ry) =     0.0000E+00     0.0000E+00

      iter #   4 total cpu time :  2384.7 secs   av.it.:  16.0
      thresh= 2.168E-06 alpha_mix =  0.700 |ddv_scf|^2 =  6.420E-12

     Pert. #  1: Fermi energy shift (Ry) =     0.0000E+00     0.0000E+00

      iter #   5 total cpu time :  2431.4 secs   av.it.:  15.0
      thresh= 2.534E-07 alpha_mix =  0.700 |ddv_scf|^2 =  2.354E-13

     End of self-consistent calculation

     Convergence has been achieved 


     Representation #  10 mode #  10

     Self-consistent Calculation

     Pert. #  1: Fermi energy shift (Ry) =     0.0000E+00     0.0000E+00

      iter #   1 total cpu time :  2494.1 secs   av.it.:   6.0
      thresh= 1.000E-02 alpha_mix =  0.700 |ddv_scf|^2 =  3.545E-08

     Pert. #  1: Fermi energy shift (Ry) =     0.0000E+00     0.0000E+00

      iter #   2 total cpu time :  2533.7 secs   av.it.:  13.2
      thresh= 1.883E-05 alpha_mix =  0.700 |ddv_scf|^2 =  2.378E-09

     Pert. #  1: Fermi energy shift (Ry) =     0.0000E+00     0.0000E+00

      iter #   3 total cpu time :  2578.1 secs   av.it.:  17.0
      thresh= 4.876E-06 alpha_mix =  0.700 |ddv_scf|^2 =  7.286E-10

     Pert. #  1: Fermi energy shift (Ry) =     0.0000E+00     0.0000E+00

      iter #   4 total cpu time :  2624.6 secs   av.it.:  16.0
      thresh= 2.699E-06 alpha_mix =  0.700 |ddv_scf|^2 =  1.380E-12

     Pert. #  1: Fermi energy shift (Ry) =     0.0000E+00     0.0000E+00

      iter #   5 total cpu time :  2673.0 secs   av.it.:  16.0
      thresh= 1.175E-07 alpha_mix =  0.700 |ddv_scf|^2 =  6.475E-14

     End of self-consistent calculation

     Convergence has been achieved 


     Representation #  11 mode #  11

     Self-consistent Calculation

     Pert. #  1: Fermi energy shift (Ry) =     0.0000E+00     0.0000E+00

      iter #   1 total cpu time :  2733.4 secs   av.it.:   5.0
      thresh= 1.000E-02 alpha_mix =  0.700 |ddv_scf|^2 =  2.518E-08

     Pert. #  1: Fermi energy shift (Ry) =     0.0000E+00     0.0000E+00

      iter #   2 total cpu time :  2774.3 secs   av.it.:  13.9
      thresh= 1.587E-05 alpha_mix =  0.700 |ddv_scf|^2 =  2.645E-09

     Pert. #  1: Fermi energy shift (Ry) =     0.0000E+00     0.0000E+00

      iter #   3 total cpu time :  2818.5 secs   av.it.:  16.0
      thresh= 5.143E-06 alpha_mix =  0.700 |ddv_scf|^2 =  2.462E-10

     Pert. #  1: Fermi energy shift (Ry) =     0.0000E+00     0.0000E+00

      iter #   4 total cpu time :  2865.0 secs   av.it.:  17.0
      thresh= 1.569E-06 alpha_mix =  0.700 |ddv_scf|^2 =  4.362E-12

     Pert. #  1: Fermi energy shift (Ry) =     0.0000E+00     0.0000E+00

      iter #   5 total cpu time :  2913.7 secs   av.it.:  17.0
      thresh= 2.089E-07 alpha_mix =  0.700 |ddv_scf|^2 =  1.361E-13

     End of self-consistent calculation

     Convergence has been achieved 


     Representation #  12 mode #  12

     Self-consistent Calculation

     Pert. #  1: Fermi energy shift (Ry) =     0.0000E+00     0.0000E+00

      iter #   1 total cpu time :  2976.5 secs   av.it.:   5.0
      thresh= 1.000E-02 alpha_mix =  0.700 |ddv_scf|^2 =  8.616E-08

     Pert. #  1: Fermi energy shift (Ry) =     0.0000E+00     0.0000E+00

      iter #   2 total cpu time :  3017.0 secs   av.it.:  13.0
      thresh= 2.935E-05 alpha_mix =  0.700 |ddv_scf|^2 =  7.054E-09

     Pert. #  1: Fermi energy shift (Ry) =     0.0000E+00     0.0000E+00

      iter #   3 total cpu time :  3059.7 secs   av.it.:  16.0
      thresh= 8.399E-06 alpha_mix =  0.700 |ddv_scf|^2 =  3.765E-10

     Pert. #  1: Fermi energy shift (Ry) =     0.0000E+00     0.0000E+00

      iter #   4 total cpu time :  3106.6 secs   av.it.:  16.4
      thresh= 1.940E-06 alpha_mix =  0.700 |ddv_scf|^2 =  1.432E-11

     Pert. #  1: Fermi energy shift (Ry) =     0.0000E+00     0.0000E+00

      iter #   5 total cpu time :  3153.8 secs   av.it.:  17.0
      thresh= 3.784E-07 alpha_mix =  0.700 |ddv_scf|^2 =  1.745E-13

     End of self-consistent calculation

     Convergence has been achieved 

     Number of q in the star =    1
     List of q in the star:
          1   0.000000000   0.000000000   0.000000000

     Diagonalizing the dynamical matrix

     q = (    0.000000000   0.000000000   0.000000000 ) 

 **************************************************************************
     freq (    1) =      -5.040702 [THz] =    -168.139733 [cm-1]
     freq (    2) =      -3.126294 [THz] =    -104.281958 [cm-1]
     freq (    3) =       4.290210 [THz] =     143.106002 [cm-1]
     freq (    4) =       4.966806 [THz] =     165.674813 [cm-1]
     freq (    5) =       7.343571 [THz] =     244.955162 [cm-1]
     freq (    6) =       7.563613 [THz] =     252.294966 [cm-1]
     freq (    7) =      36.165789 [THz] =    1206.360867 [cm-1]
     freq (    8) =      48.899393 [THz] =    1631.108167 [cm-1]
     freq (    9) =      48.925232 [THz] =    1631.970085 [cm-1]
     freq (   10) =     101.747648 [THz] =    3393.936216 [cm-1]
     freq (   11) =     103.704440 [THz] =    3459.207781 [cm-1]
     freq (   12) =     103.732741 [THz] =    3460.151803 [cm-1]
 **************************************************************************

     Mode symmetry, C_1 (1)     point group:

     freq (   1-   1) =       -168.1  [cm-1]   --> A               I+R
     freq (   2-   2) =       -104.3  [cm-1]   --> A               I+R
     freq (   3-   3) =        143.1  [cm-1]   --> A               I+R
     freq (   4-   4) =        165.7  [cm-1]   --> A               I+R
     freq (   5-   5) =        245.0  [cm-1]   --> A               I+R
     freq (   6-   6) =        252.3  [cm-1]   --> A               I+R
     freq (   7-   7) =       1206.4  [cm-1]   --> A               I+R
     freq (   8-   8) =       1631.1  [cm-1]   --> A               I+R
     freq (   9-   9) =       1632.0  [cm-1]   --> A               I+R
     freq (  10-  10) =       3393.9  [cm-1]   --> A               I+R
     freq (  11-  11) =       3459.2  [cm-1]   --> A               I+R
     freq (  12-  12) =       3460.2  [cm-1]   --> A               I+R

     PHONON       :  45m45.98s CPU  53m 2.81s WALL

     INITIALIZATION: 
     phq_setup    :     12.82s CPU     14.38s WALL (       1 calls)
     phq_init     :    179.93s CPU    184.45s WALL (       1 calls)

     phq_init     :    179.93s CPU    184.45s WALL (       1 calls)
     set_drhoc    :     23.86s CPU     23.97s WALL (       3 calls)
     init_vloc    :      0.31s CPU      0.32s WALL (       1 calls)
     init_us_1    :      0.03s CPU      0.03s WALL (       1 calls)
     newd         :      0.99s CPU      1.06s WALL (       1 calls)
     dvanqq       :     73.51s CPU     74.35s WALL (       1 calls)
     drho         :     58.38s CPU     61.27s WALL (       1 calls)

     DYNAMICAL MATRIX:
     dynmat0      :     25.71s CPU     26.39s WALL (       1 calls)
     phqscf       :   2535.49s CPU   2953.98s WALL (       1 calls)
     dynmatrix    :      0.03s CPU      0.05s WALL (       1 calls)

     phqscf       :   2535.49s CPU   2953.98s WALL (       1 calls)
     solve_linter :   2518.37s CPU   2909.40s WALL (      12 calls)
     drhodv       :     17.12s CPU     17.65s WALL (      12 calls)

     dynmat0      :     25.71s CPU     26.39s WALL (       1 calls)
     dynmat_us    :      2.73s CPU      2.77s WALL (       1 calls)
     d2ionq       :      0.98s CPU      0.98s WALL (       1 calls)
     dynmatcc     :     21.84s CPU     22.47s WALL (       1 calls)

     dynmat_us    :      2.73s CPU      2.77s WALL (       1 calls)
     addusdynmat  :      0.00s CPU      0.00s WALL (       1 calls)

     phqscf       :   2535.49s CPU   2953.98s WALL (       1 calls)
     solve_linter :   2518.37s CPU   2909.40s WALL (      12 calls)

     solve_linter :   2518.37s CPU   2909.40s WALL (      12 calls)
     dvqpsi_us    :     24.98s CPU     25.49s WALL (      36 calls)
     ortho        :      4.84s CPU      4.95s WALL (     183 calls)
     cgsolve      :    821.29s CPU    830.55s WALL (     183 calls)
     incdrhoscf   :     51.85s CPU     52.84s WALL (     183 calls)
     addusddens   :    146.24s CPU    154.77s WALL (      73 calls)
     vpsifft      :     42.49s CPU     43.38s WALL (     147 calls)
     dv_of_drho   :    405.69s CPU    424.71s WALL (      61 calls)
     mix_pot      :     29.23s CPU     98.72s WALL (      61 calls)
     ef_shift     :     57.78s CPU     58.84s WALL (      73 calls)
     localdos     :     64.12s CPU     67.03s WALL (      12 calls)
     psymdvscf    :    314.91s CPU    491.23s WALL (      61 calls)
     newdq        :    194.04s CPU    203.16s WALL (      61 calls)
     adddvscf     :      1.52s CPU      1.54s WALL (     147 calls)
     drhodvus     :     23.56s CPU     61.85s WALL (      12 calls)

     dvqpsi_us    :     24.98s CPU     25.49s WALL (      36 calls)
     dvqpsi_us_on :      0.41s CPU      0.42s WALL (      36 calls)

     cgsolve      :    821.29s CPU    830.55s WALL (     183 calls)
     ch_psi       :    794.57s CPU    803.53s WALL (    3141 calls)

     ch_psi       :    794.57s CPU    803.53s WALL (    3141 calls)
     h_psi        :    715.31s CPU    723.40s WALL (    3141 calls)
     last         :     56.54s CPU     57.14s WALL (    3141 calls)

     h_psi        :    715.31s CPU    723.40s WALL (    3141 calls)
     add_vuspsi   :     14.28s CPU     14.44s WALL (    3141 calls)

     incdrhoscf   :     51.85s CPU     52.84s WALL (     183 calls)
     addusdbec    :      1.70s CPU      1.71s WALL (     219 calls)

     drhodvus     :     23.56s CPU     61.85s WALL (      12 calls)

      General routines
     calbec       :     37.58s CPU     38.20s WALL (    6894 calls)
     fft          :    712.30s CPU    726.35s WALL (    2565 calls)
     ffts         :     47.23s CPU     47.97s WALL (     630 calls)
     fftw         :    662.41s CPU    670.27s WALL (   23230 calls)
     davcio       :      0.37s CPU     98.07s WALL (    1431 calls)
     write_rec    :      0.01s CPU     57.67s WALL (      73 calls)


     PHONON       :  45m45.98s CPU  53m 2.82s WALL


   This run was terminated on:  12:51:36  29Sep2022            

=------------------------------------------------------------------------------=
   JOB DONE.
=------------------------------------------------------------------------------=
