
     Program PHONON v.6.7MaX starts on 29Sep2022 at  0:54: 7 

     This program is part of the open-source Quantum ESPRESSO suite
     for quantum simulation of materials; please cite
         "P. Giannozzi et al., J. Phys.:Condens. Matter 21 395502 (2009);
         "P. Giannozzi et al., J. Phys.:Condens. Matter 29 465901 (2017);
          URL http://www.quantum-espresso.org", 
     in publications or presentations arising from this work. More details at
     http://www.quantum-espresso.org/quote

     Parallel version (MPI), running on   120 processors

     MPI processes distributed on     1 nodes
     K-points division:     npool     =       8
     R & G space division:  proc/nbgrp/npool/nimage =      15
     Waiting for input...
     Reading input from standard input

     Reading xml data from directory:

     ./NH3_ESM_VA8.save/

     IMPORTANT: XC functional enforced from input :
     Exchange-correlation= PBE
                           (   1   4   3   4   0   0   0)
     Any further DFT definition will be discarded
     Please, verify this is what you really want


     Parallelization info
     --------------------
     sticks:   dense  smooth     PW     G-vecs:    dense   smooth      PW
     Min        3636    1818    468               639190   225950   29545
     Max        3637    1819    470               639197   225953   29547
     Sum       54553   27281   7033              9587919  3389267  443191


     Adding external electric field
        E field amplitude [Ha a.u.]: -1.5762E-02
        Potential amp.       -1.0723 Ry
        Total length         34.0151 bohr


     negative rho (up, down):  2.102E-04 2.102E-04
     Reading collected, re-writing distributed wavefunctions

     Calculation of q =    0.0000000   0.0000000   0.0000000

     phonons (vibrational modes) for NH3                                        

     bravais-lattice index     =            0
     lattice parameter (alat)  =      37.7945  a.u.
     unit-cell volume          =   53986.6760 (a.u.)^3
     number of atoms/cell      =            4
     number of atomic types    =            2
     kinetic-energy cut-off    =      60.0000  Ry
     charge density cut-off    =     480.0000  Ry
     convergence threshold     =      1.0E-12
     beta                      =       0.7000
     number of iterations used =            4
     Exchange-correlation= PBE
                           (   1   4   3   4   0   0   0)


     celldm(1)=   37.79452  celldm(2)=    0.00000  celldm(3)=    0.00000
     celldm(4)=    0.00000  celldm(5)=    0.00000  celldm(6)=    0.00000

     crystal axes: (cart. coord. in units of alat)
               a(1) = (  1.0000  0.0000  0.0000 )  
               a(2) = (  0.0000  1.0000  0.0000 )  
               a(3) = (  0.0000  0.0000  1.0000 )  

     reciprocal axes: (cart. coord. in units 2 pi/alat)
               b(1) = (  1.0000  0.0000  0.0000 )  
               b(2) = (  0.0000  1.0000  0.0000 )  
               b(3) = (  0.0000  0.0000  1.0000 )  


     Atoms inside the unit cell: 

     Cartesian axes

     site n.  atom      mass           positions (alat units)
        1     N   14.0067   tau(    1) = (    0.50000    0.50000    0.00000  )
        2     H    1.0078   tau(    2) = (    0.50000    0.54657   -0.02124  )
        3     H    1.0078   tau(    3) = (    0.54033    0.47671   -0.02124  )
        4     H    1.0078   tau(    4) = (    0.45967    0.47671   -0.02124  )

     Computing dynamical matrix for 
                    q = (   0.0000000   0.0000000   0.0000000 )

      2 Sym.Ops. (with q -> -q+G )


     G cutoff =17367.5767  ( 639197 G-vectors)     FFT grid: (270,270,270)
     G cutoff = 8683.7884  ( 225950 G-vectors)  smooth grid: (192,192,192)

     number of k points=    20  Methfessel-Paxton smearing, width (Ry)=  0.0100
                       cart. coord. in units 2pi/alat
        k(    1) = (   0.0000000   0.0000000   0.0000000), wk =   0.0625000
        k(    2) = (   0.0000000   0.2500000   0.0000000), wk =   0.1250000
        k(    3) = (   0.0000000  -0.5000000   0.0000000), wk =   0.0625000
        k(    4) = (   0.2500000   0.0000000   0.0000000), wk =   0.1250000
        k(    5) = (   0.2500000   0.2500000   0.0000000), wk =   0.1250000
        k(    6) = (   0.2500000  -0.5000000   0.0000000), wk =   0.1250000
        k(    7) = (   0.2500000  -0.2500000   0.0000000), wk =   0.1250000
        k(    8) = (  -0.5000000   0.0000000   0.0000000), wk =   0.0625000
        k(    9) = (  -0.5000000   0.2500000   0.0000000), wk =   0.1250000
        k(   10) = (  -0.5000000  -0.5000000   0.0000000), wk =   0.0625000
        k(   11) = (   0.0000000   0.0000000   0.0000000), wk =   0.0625000
        k(   12) = (   0.0000000   0.2500000   0.0000000), wk =   0.1250000
        k(   13) = (   0.0000000  -0.5000000   0.0000000), wk =   0.0625000
        k(   14) = (   0.2500000   0.0000000   0.0000000), wk =   0.1250000
        k(   15) = (   0.2500000   0.2500000   0.0000000), wk =   0.1250000
        k(   16) = (   0.2500000  -0.5000000   0.0000000), wk =   0.1250000
        k(   17) = (   0.2500000  -0.2500000   0.0000000), wk =   0.1250000
        k(   18) = (  -0.5000000   0.0000000   0.0000000), wk =   0.0625000
        k(   19) = (  -0.5000000   0.2500000   0.0000000), wk =   0.1250000
        k(   20) = (  -0.5000000  -0.5000000   0.0000000), wk =   0.0625000

     PseudoPot. # 1 for N  read from file:
     ../../SSSP/N.pbe-n-radius_5.UPF
     MD5 check sum: 16739722b17309cd8fe442a2ace49922
     Pseudo is Ultrasoft + core correction, Zval =  5.0
     Generated using "atomic" code by A. Dal Corso  v.5.1
     Using radial grid of 1085 points,  4 beta functions with: 
                l(1) =   0
                l(2) =   0
                l(3) =   1
                l(4) =   1
     Q(r) pseudized with 0 coefficients 


     PseudoPot. # 2 for H  read from file:
     ../../SSSP/H.pbe-rrkjus_psl.1.0.0.UPF
     MD5 check sum: f52b6d4d1c606e5624b1dc7b2218f220
     Pseudo is Ultrasoft, Zval =  1.0
     Generated using "atomic" code by A. Dal Corso  v.5.1
     Using radial grid of  929 points,  2 beta functions with: 
                l(1) =   0
                l(2) =   0
     Q(r) pseudized with 0 coefficients 


     Mode symmetry, C_1 (1)     point group:


     Atomic displacements:
     There are   12 irreducible representations

     Representation     1      1 modes -  To be done

     Representation     2      1 modes -  To be done

     Representation     3      1 modes -  To be done

     Representation     4      1 modes -  To be done

     Representation     5      1 modes -  To be done

     Representation     6      1 modes -  To be done

     Representation     7      1 modes -  To be done

     Representation     8      1 modes -  To be done

     Representation     9      1 modes -  To be done

     Representation    10      1 modes -  To be done

     Representation    11      1 modes -  To be done

     Representation    12      1 modes -  To be done



     Alpha used in Ewald sum =   2.8000

     -------------------------------------------------
     Parameters for Dispersion (Grimme-D2) Correction:
     -------------------------------------------------
       atom      VdW radius       C_6     

        N          2.640         42.670
        H          1.892          4.857

     Calculating the D2 contribution to the dynamical matrix.
     D2 energy =       -0.00028033 Ry
     Done.


     negative rho (up, down):  2.102E-04 2.102E-04
     PHONON       :   3m30.99s CPU   3m39.64s WALL



     Representation #   1 mode #   1

     Self-consistent Calculation

     Pert. #  1: Fermi energy shift (Ry) =     0.0000E+00     0.0000E+00

      iter #   1 total cpu time :   267.5 secs   av.it.:   8.0
      thresh= 1.000E-02 alpha_mix =  0.700 |ddv_scf|^2 =  7.774E-07

     Pert. #  1: Fermi energy shift (Ry) =     0.0000E+00     0.0000E+00

      iter #   2 total cpu time :   306.3 secs   av.it.:  13.0
      thresh= 8.817E-05 alpha_mix =  0.700 |ddv_scf|^2 =  1.057E-07

     Pert. #  1: Fermi energy shift (Ry) =     0.0000E+00     0.0000E+00

      iter #   3 total cpu time :   348.3 secs   av.it.:  13.0
      thresh= 3.252E-05 alpha_mix =  0.700 |ddv_scf|^2 =  2.682E-09

     Pert. #  1: Fermi energy shift (Ry) =     0.0000E+00     0.0000E+00

      iter #   4 total cpu time :   395.6 secs   av.it.:  15.0
      thresh= 5.178E-06 alpha_mix =  0.700 |ddv_scf|^2 =  4.316E-12

     Pert. #  1: Fermi energy shift (Ry) =     0.0000E+00     0.0000E+00

      iter #   5 total cpu time :   444.8 secs   av.it.:  15.8
      thresh= 2.077E-07 alpha_mix =  0.700 |ddv_scf|^2 =  1.187E-14

     End of self-consistent calculation

     Convergence has been achieved 


     Representation #   2 mode #   2

     Self-consistent Calculation

     Pert. #  1: Fermi energy shift (Ry) =     0.0000E+00     0.0000E+00

      iter #   1 total cpu time :   507.2 secs   av.it.:   8.0
      thresh= 1.000E-02 alpha_mix =  0.700 |ddv_scf|^2 =  1.870E-07

     Pert. #  1: Fermi energy shift (Ry) =     0.0000E+00     0.0000E+00

      iter #   2 total cpu time :   549.1 secs   av.it.:  13.2
      thresh= 4.325E-05 alpha_mix =  0.700 |ddv_scf|^2 =  2.917E-08

     Pert. #  1: Fermi energy shift (Ry) =     0.0000E+00     0.0000E+00

      iter #   3 total cpu time :   592.2 secs   av.it.:  14.0
      thresh= 1.708E-05 alpha_mix =  0.700 |ddv_scf|^2 =  1.484E-09

     Pert. #  1: Fermi energy shift (Ry) =     0.0000E+00     0.0000E+00

      iter #   4 total cpu time :   639.9 secs   av.it.:  15.0
      thresh= 3.852E-06 alpha_mix =  0.700 |ddv_scf|^2 =  3.592E-12

     Pert. #  1: Fermi energy shift (Ry) =     0.0000E+00     0.0000E+00

      iter #   5 total cpu time :   686.8 secs   av.it.:  16.0
      thresh= 1.895E-07 alpha_mix =  0.700 |ddv_scf|^2 =  4.129E-14

     End of self-consistent calculation

     Convergence has been achieved 


     Representation #   3 mode #   3

     Self-consistent Calculation

     Pert. #  1: Fermi energy shift (Ry) =     0.0000E+00     0.0000E+00

      iter #   1 total cpu time :   749.9 secs   av.it.:   7.0
      thresh= 1.000E-02 alpha_mix =  0.700 |ddv_scf|^2 =  1.270E-06

     Pert. #  1: Fermi energy shift (Ry) =     0.0000E+00     0.0000E+00

      iter #   2 total cpu time :   790.8 secs   av.it.:  13.0
      thresh= 1.127E-04 alpha_mix =  0.700 |ddv_scf|^2 =  1.692E-07

     Pert. #  1: Fermi energy shift (Ry) =     0.0000E+00     0.0000E+00

      iter #   3 total cpu time :   832.2 secs   av.it.:  12.0
      thresh= 4.114E-05 alpha_mix =  0.700 |ddv_scf|^2 =  3.640E-09

     Pert. #  1: Fermi energy shift (Ry) =     0.0000E+00     0.0000E+00

      iter #   4 total cpu time :   878.2 secs   av.it.:  14.9
      thresh= 6.033E-06 alpha_mix =  0.700 |ddv_scf|^2 =  1.958E-10

     Pert. #  1: Fermi energy shift (Ry) =     0.0000E+00     0.0000E+00

      iter #   5 total cpu time :   924.0 secs   av.it.:  14.0
      thresh= 1.399E-06 alpha_mix =  0.700 |ddv_scf|^2 =  2.603E-13

     End of self-consistent calculation

     Convergence has been achieved 


     Representation #   4 mode #   4

     Self-consistent Calculation

     Pert. #  1: Fermi energy shift (Ry) =     0.0000E+00     0.0000E+00

      iter #   1 total cpu time :   985.7 secs   av.it.:   5.0
      thresh= 1.000E-02 alpha_mix =  0.700 |ddv_scf|^2 =  2.803E-08

     Pert. #  1: Fermi energy shift (Ry) =     0.0000E+00     0.0000E+00

      iter #   2 total cpu time :  1024.9 secs   av.it.:  12.0
      thresh= 1.674E-05 alpha_mix =  0.700 |ddv_scf|^2 =  2.627E-09

     Pert. #  1: Fermi energy shift (Ry) =     0.0000E+00     0.0000E+00

      iter #   3 total cpu time :  1066.6 secs   av.it.:  12.9
      thresh= 5.125E-06 alpha_mix =  0.700 |ddv_scf|^2 =  3.531E-12

     Pert. #  1: Fermi energy shift (Ry) =     0.0000E+00     0.0000E+00

      iter #   4 total cpu time :  1113.1 secs   av.it.:  16.6
      thresh= 1.879E-07 alpha_mix =  0.700 |ddv_scf|^2 =  9.510E-15

     End of self-consistent calculation

     Convergence has been achieved 


     Representation #   5 mode #   5

     Self-consistent Calculation

     Pert. #  1: Fermi energy shift (Ry) =     0.0000E+00     0.0000E+00

      iter #   1 total cpu time :  1174.8 secs   av.it.:   6.0
      thresh= 1.000E-02 alpha_mix =  0.700 |ddv_scf|^2 =  2.918E-08

     Pert. #  1: Fermi energy shift (Ry) =     0.0000E+00     0.0000E+00

      iter #   2 total cpu time :  1216.7 secs   av.it.:  14.0
      thresh= 1.708E-05 alpha_mix =  0.700 |ddv_scf|^2 =  3.302E-09

     Pert. #  1: Fermi energy shift (Ry) =     0.0000E+00     0.0000E+00

      iter #   3 total cpu time :  1260.3 secs   av.it.:  16.7
      thresh= 5.746E-06 alpha_mix =  0.700 |ddv_scf|^2 =  9.285E-10

     Pert. #  1: Fermi energy shift (Ry) =     0.0000E+00     0.0000E+00

      iter #   4 total cpu time :  1302.6 secs   av.it.:  15.7
      thresh= 3.047E-06 alpha_mix =  0.700 |ddv_scf|^2 =  3.745E-13

     End of self-consistent calculation

     Convergence has been achieved 


     Representation #   6 mode #   6

     Self-consistent Calculation

     Pert. #  1: Fermi energy shift (Ry) =     0.0000E+00     0.0000E+00

      iter #   1 total cpu time :  1363.6 secs   av.it.:   5.8
      thresh= 1.000E-02 alpha_mix =  0.700 |ddv_scf|^2 =  3.408E-08

     Pert. #  1: Fermi energy shift (Ry) =     0.0000E+00     0.0000E+00

      iter #   2 total cpu time :  1404.4 secs   av.it.:  13.2
      thresh= 1.846E-05 alpha_mix =  0.700 |ddv_scf|^2 =  3.361E-09

     Pert. #  1: Fermi energy shift (Ry) =     0.0000E+00     0.0000E+00

      iter #   3 total cpu time :  1449.9 secs   av.it.:  15.9
      thresh= 5.798E-06 alpha_mix =  0.700 |ddv_scf|^2 =  3.139E-10

     Pert. #  1: Fermi energy shift (Ry) =     0.0000E+00     0.0000E+00

      iter #   4 total cpu time :  1493.1 secs   av.it.:  16.0
      thresh= 1.772E-06 alpha_mix =  0.700 |ddv_scf|^2 =  8.691E-13

     End of self-consistent calculation

     Convergence has been achieved 


     Representation #   7 mode #   7

     Self-consistent Calculation

     Pert. #  1: Fermi energy shift (Ry) =     0.0000E+00     0.0000E+00

      iter #   1 total cpu time :  1555.4 secs   av.it.:   6.0
      thresh= 1.000E-02 alpha_mix =  0.700 |ddv_scf|^2 =  3.101E-08

     Pert. #  1: Fermi energy shift (Ry) =     0.0000E+00     0.0000E+00

      iter #   2 total cpu time :  1597.5 secs   av.it.:  14.8
      thresh= 1.761E-05 alpha_mix =  0.700 |ddv_scf|^2 =  3.216E-09

     Pert. #  1: Fermi energy shift (Ry) =     0.0000E+00     0.0000E+00

      iter #   3 total cpu time :  1641.9 secs   av.it.:  16.0
      thresh= 5.671E-06 alpha_mix =  0.700 |ddv_scf|^2 =  6.806E-10

     Pert. #  1: Fermi energy shift (Ry) =     0.0000E+00     0.0000E+00

      iter #   4 total cpu time :  1685.9 secs   av.it.:  16.0
      thresh= 2.609E-06 alpha_mix =  0.700 |ddv_scf|^2 =  4.240E-13

     End of self-consistent calculation

     Convergence has been achieved 


     Representation #   8 mode #   8

     Self-consistent Calculation

     Pert. #  1: Fermi energy shift (Ry) =     0.0000E+00     0.0000E+00

      iter #   1 total cpu time :  1746.1 secs   av.it.:   5.0
      thresh= 1.000E-02 alpha_mix =  0.700 |ddv_scf|^2 =  8.541E-09

     Pert. #  1: Fermi energy shift (Ry) =     0.0000E+00     0.0000E+00

      iter #   2 total cpu time :  1788.9 secs   av.it.:  15.0
      thresh= 9.242E-06 alpha_mix =  0.700 |ddv_scf|^2 =  9.667E-10

     Pert. #  1: Fermi energy shift (Ry) =     0.0000E+00     0.0000E+00

      iter #   3 total cpu time :  1836.6 secs   av.it.:  16.3
      thresh= 3.109E-06 alpha_mix =  0.700 |ddv_scf|^2 =  1.995E-10

     Pert. #  1: Fermi energy shift (Ry) =     0.0000E+00     0.0000E+00

      iter #   4 total cpu time :  1880.8 secs   av.it.:  16.9
      thresh= 1.412E-06 alpha_mix =  0.700 |ddv_scf|^2 =  6.394E-12

     Pert. #  1: Fermi energy shift (Ry) =     0.0000E+00     0.0000E+00

      iter #   5 total cpu time :  1926.5 secs   av.it.:  16.8
      thresh= 2.529E-07 alpha_mix =  0.700 |ddv_scf|^2 =  3.703E-14

     End of self-consistent calculation

     Convergence has been achieved 


     Representation #   9 mode #   9

     Self-consistent Calculation

     Pert. #  1: Fermi energy shift (Ry) =     0.0000E+00     0.0000E+00

      iter #   1 total cpu time :  1992.0 secs   av.it.:   5.7
      thresh= 1.000E-02 alpha_mix =  0.700 |ddv_scf|^2 =  3.113E-08

     Pert. #  1: Fermi energy shift (Ry) =     0.0000E+00     0.0000E+00

      iter #   2 total cpu time :  2032.2 secs   av.it.:  13.3
      thresh= 1.764E-05 alpha_mix =  0.700 |ddv_scf|^2 =  3.767E-09

     Pert. #  1: Fermi energy shift (Ry) =     0.0000E+00     0.0000E+00

      iter #   3 total cpu time :  2077.8 secs   av.it.:  15.8
      thresh= 6.137E-06 alpha_mix =  0.700 |ddv_scf|^2 =  4.234E-10

     Pert. #  1: Fermi energy shift (Ry) =     0.0000E+00     0.0000E+00

      iter #   4 total cpu time :  2124.5 secs   av.it.:  16.0
      thresh= 2.058E-06 alpha_mix =  0.700 |ddv_scf|^2 =  1.616E-12

     Pert. #  1: Fermi energy shift (Ry) =     0.0000E+00     0.0000E+00

      iter #   5 total cpu time :  2173.4 secs   av.it.:  16.0
      thresh= 1.271E-07 alpha_mix =  0.700 |ddv_scf|^2 =  6.940E-14

     End of self-consistent calculation

     Convergence has been achieved 


     Representation #  10 mode #  10

     Self-consistent Calculation

     Pert. #  1: Fermi energy shift (Ry) =     0.0000E+00     0.0000E+00

      iter #   1 total cpu time :  2235.4 secs   av.it.:   6.0
      thresh= 1.000E-02 alpha_mix =  0.700 |ddv_scf|^2 =  2.603E-08

     Pert. #  1: Fermi energy shift (Ry) =     0.0000E+00     0.0000E+00

      iter #   2 total cpu time :  2277.1 secs   av.it.:  14.2
      thresh= 1.613E-05 alpha_mix =  0.700 |ddv_scf|^2 =  2.762E-09

     Pert. #  1: Fermi energy shift (Ry) =     0.0000E+00     0.0000E+00

      iter #   3 total cpu time :  2320.3 secs   av.it.:  16.4
      thresh= 5.256E-06 alpha_mix =  0.700 |ddv_scf|^2 =  6.634E-10

     Pert. #  1: Fermi energy shift (Ry) =     0.0000E+00     0.0000E+00

      iter #   4 total cpu time :  2365.9 secs   av.it.:  16.0
      thresh= 2.576E-06 alpha_mix =  0.700 |ddv_scf|^2 =  1.035E-12

     Pert. #  1: Fermi energy shift (Ry) =     0.0000E+00     0.0000E+00

      iter #   5 total cpu time :  2415.0 secs   av.it.:  17.0
      thresh= 1.017E-07 alpha_mix =  0.700 |ddv_scf|^2 =  4.244E-14

     End of self-consistent calculation

     Convergence has been achieved 


     Representation #  11 mode #  11

     Self-consistent Calculation

     Pert. #  1: Fermi energy shift (Ry) =     0.0000E+00     0.0000E+00

      iter #   1 total cpu time :  2477.2 secs   av.it.:   5.0
      thresh= 1.000E-02 alpha_mix =  0.700 |ddv_scf|^2 =  1.920E-08

     Pert. #  1: Fermi energy shift (Ry) =     0.0000E+00     0.0000E+00

      iter #   2 total cpu time :  2518.8 secs   av.it.:  14.6
      thresh= 1.386E-05 alpha_mix =  0.700 |ddv_scf|^2 =  1.643E-09

     Pert. #  1: Fermi energy shift (Ry) =     0.0000E+00     0.0000E+00

      iter #   3 total cpu time :  2563.9 secs   av.it.:  16.0
      thresh= 4.053E-06 alpha_mix =  0.700 |ddv_scf|^2 =  1.953E-10

     Pert. #  1: Fermi energy shift (Ry) =     0.0000E+00     0.0000E+00

      iter #   4 total cpu time :  2609.7 secs   av.it.:  16.8
      thresh= 1.397E-06 alpha_mix =  0.700 |ddv_scf|^2 =  1.873E-12

     Pert. #  1: Fermi energy shift (Ry) =     0.0000E+00     0.0000E+00

      iter #   5 total cpu time :  2658.4 secs   av.it.:  16.8
      thresh= 1.369E-07 alpha_mix =  0.700 |ddv_scf|^2 =  3.928E-14

     End of self-consistent calculation

     Convergence has been achieved 


     Representation #  12 mode #  12

     Self-consistent Calculation

     Pert. #  1: Fermi energy shift (Ry) =     0.0000E+00     0.0000E+00

      iter #   1 total cpu time :  2718.9 secs   av.it.:   6.0
      thresh= 1.000E-02 alpha_mix =  0.700 |ddv_scf|^2 =  1.135E-08

     Pert. #  1: Fermi energy shift (Ry) =     0.0000E+00     0.0000E+00

      iter #   2 total cpu time :  2762.8 secs   av.it.:  14.6
      thresh= 1.065E-05 alpha_mix =  0.700 |ddv_scf|^2 =  1.006E-09

     Pert. #  1: Fermi energy shift (Ry) =     0.0000E+00     0.0000E+00

      iter #   3 total cpu time :  2809.1 secs   av.it.:  16.8
      thresh= 3.172E-06 alpha_mix =  0.700 |ddv_scf|^2 =  2.650E-10

     Pert. #  1: Fermi energy shift (Ry) =     0.0000E+00     0.0000E+00

      iter #   4 total cpu time :  2856.8 secs   av.it.:  16.0
      thresh= 1.628E-06 alpha_mix =  0.700 |ddv_scf|^2 =  3.033E-12

     Pert. #  1: Fermi energy shift (Ry) =     0.0000E+00     0.0000E+00

      iter #   5 total cpu time :  2905.6 secs   av.it.:  16.3
      thresh= 1.741E-07 alpha_mix =  0.700 |ddv_scf|^2 =  5.886E-14

     End of self-consistent calculation

     Convergence has been achieved 

     Number of q in the star =    1
     List of q in the star:
          1   0.000000000   0.000000000   0.000000000

     Diagonalizing the dynamical matrix

     q = (    0.000000000   0.000000000   0.000000000 ) 

 **************************************************************************
     freq (    1) =      -7.401768 [THz] =    -246.896393 [cm-1]
     freq (    2) =      -2.569538 [THz] =     -85.710552 [cm-1]
     freq (    3) =       3.525311 [THz] =     117.591701 [cm-1]
     freq (    4) =       4.538326 [THz] =     151.382259 [cm-1]
     freq (    5) =       6.528095 [THz] =     217.753802 [cm-1]
     freq (    6) =       7.963486 [THz] =     265.633295 [cm-1]
     freq (    7) =      34.790557 [THz] =    1160.488063 [cm-1]
     freq (    8) =      48.841661 [THz] =    1629.182432 [cm-1]
     freq (    9) =      48.882073 [THz] =    1630.530434 [cm-1]
     freq (   10) =     102.370931 [THz] =    3414.726693 [cm-1]
     freq (   11) =     104.298613 [THz] =    3479.027249 [cm-1]
     freq (   12) =     104.376668 [THz] =    3481.630886 [cm-1]
 **************************************************************************

     Mode symmetry, C_1 (1)     point group:

     freq (   1-   1) =       -246.9  [cm-1]   --> A               I+R
     freq (   2-   2) =        -85.7  [cm-1]   --> A               I+R
     freq (   3-   3) =        117.6  [cm-1]   --> A               I+R
     freq (   4-   4) =        151.4  [cm-1]   --> A               I+R
     freq (   5-   5) =        217.8  [cm-1]   --> A               I+R
     freq (   6-   6) =        265.6  [cm-1]   --> A               I+R
     freq (   7-   7) =       1160.5  [cm-1]   --> A               I+R
     freq (   8-   8) =       1629.2  [cm-1]   --> A               I+R
     freq (   9-   9) =       1630.5  [cm-1]   --> A               I+R
     freq (  10-  10) =       3414.7  [cm-1]   --> A               I+R
     freq (  11-  11) =       3479.0  [cm-1]   --> A               I+R
     freq (  12-  12) =       3481.6  [cm-1]   --> A               I+R

     PHONON       :  42m14.25s CPU  48m55.35s WALL

     INITIALIZATION: 
     phq_setup    :     12.84s CPU     14.45s WALL (       1 calls)
     phq_init     :    180.47s CPU    184.93s WALL (       1 calls)

     phq_init     :    180.47s CPU    184.93s WALL (       1 calls)
     set_drhoc    :     24.01s CPU     24.11s WALL (       3 calls)
     init_vloc    :      0.32s CPU      0.32s WALL (       1 calls)
     init_us_1    :      0.03s CPU      0.03s WALL (       1 calls)
     newd         :      1.28s CPU      1.34s WALL (       1 calls)
     dvanqq       :     73.63s CPU     74.40s WALL (       1 calls)
     drho         :     59.04s CPU     61.88s WALL (       1 calls)

     DYNAMICAL MATRIX:
     dynmat0      :     25.32s CPU     26.05s WALL (       1 calls)
     phqscf       :   2323.26s CPU   2705.88s WALL (       1 calls)
     dynmatrix    :      0.00s CPU      0.14s WALL (       1 calls)

     phqscf       :   2323.26s CPU   2705.88s WALL (       1 calls)
     solve_linter :   2305.06s CPU   2659.91s WALL (      12 calls)
     drhodv       :     18.17s CPU     18.57s WALL (      12 calls)

     dynmat0      :     25.32s CPU     26.05s WALL (       1 calls)
     dynmat_us    :      2.16s CPU      2.23s WALL (       1 calls)
     d2ionq       :      1.00s CPU      1.00s WALL (       1 calls)
     dynmatcc     :     22.06s CPU     22.69s WALL (       1 calls)

     dynmat_us    :      2.16s CPU      2.23s WALL (       1 calls)
     addusdynmat  :      0.00s CPU      0.00s WALL (       1 calls)

     phqscf       :   2323.26s CPU   2705.88s WALL (       1 calls)
     solve_linter :   2305.06s CPU   2659.91s WALL (      12 calls)

     solve_linter :   2305.06s CPU   2659.91s WALL (      12 calls)
     dvqpsi_us    :     24.64s CPU     25.13s WALL (      36 calls)
     ortho        :      4.69s CPU      4.79s WALL (     168 calls)
     cgsolve      :    753.70s CPU    762.63s WALL (     168 calls)
     incdrhoscf   :     47.46s CPU     48.45s WALL (     168 calls)
     addusddens   :    137.02s CPU    146.09s WALL (      68 calls)
     vpsifft      :     37.35s CPU     38.08s WALL (     132 calls)
     dv_of_drho   :    372.86s CPU    392.36s WALL (      56 calls)
     mix_pot      :     22.14s CPU     70.50s WALL (      56 calls)
     ef_shift     :     54.53s CPU     55.96s WALL (      68 calls)
     localdos     :     64.11s CPU     66.47s WALL (      12 calls)
     psymdvscf    :    292.54s CPU    445.85s WALL (      56 calls)
     newdq        :    178.29s CPU    186.55s WALL (      56 calls)
     adddvscf     :      1.32s CPU      1.34s WALL (     132 calls)
     drhodvus     :     19.02s CPU     65.90s WALL (      12 calls)

     dvqpsi_us    :     24.64s CPU     25.13s WALL (      36 calls)
     dvqpsi_us_on :      0.39s CPU      0.40s WALL (      36 calls)

     cgsolve      :    753.70s CPU    762.63s WALL (     168 calls)
     ch_psi       :    730.07s CPU    738.72s WALL (    2915 calls)

     ch_psi       :    730.07s CPU    738.72s WALL (    2915 calls)
     h_psi        :    656.08s CPU    663.89s WALL (    2915 calls)
     last         :     52.10s CPU     52.68s WALL (    2915 calls)

     h_psi        :    656.08s CPU    663.89s WALL (    2915 calls)
     add_vuspsi   :     13.73s CPU     13.88s WALL (    2915 calls)

     incdrhoscf   :     47.46s CPU     48.45s WALL (     168 calls)
     addusdbec    :      2.08s CPU      2.09s WALL (     204 calls)

     drhodvus     :     19.02s CPU     65.90s WALL (      12 calls)

      General routines
     calbec       :     35.17s CPU     35.67s WALL (    6412 calls)
     fft          :    654.95s CPU    667.89s WALL (    2395 calls)
     ffts         :     46.17s CPU     46.95s WALL (     610 calls)
     fftw         :    602.25s CPU    609.62s WALL (   21382 calls)
     davcio       :      0.35s CPU     94.04s WALL (    1312 calls)
     write_rec    :      0.03s CPU     60.39s WALL (      68 calls)


     PHONON       :  42m14.25s CPU  48m55.36s WALL


   This run was terminated on:   1:43: 3  29Sep2022            

=------------------------------------------------------------------------------=
   JOB DONE.
=------------------------------------------------------------------------------=
