
     Program PHONON v.6.7MaX starts on 20Sep2022 at 23: 0:54 

     This program is part of the open-source Quantum ESPRESSO suite
     for quantum simulation of materials; please cite
         "P. Giannozzi et al., J. Phys.:Condens. Matter 21 395502 (2009);
         "P. Giannozzi et al., J. Phys.:Condens. Matter 29 465901 (2017);
          URL http://www.quantum-espresso.org", 
     in publications or presentations arising from this work. More details at
     http://www.quantum-espresso.org/quote

     Parallel version (MPI), running on   120 processors

     MPI processes distributed on     1 nodes
     K-points division:     npool     =       8
     R & G space division:  proc/nbgrp/npool/nimage =      15
     Waiting for input...
     Reading input from standard input

     Reading xml data from directory:

     ./H2_ESM_p25.save/

     IMPORTANT: XC functional enforced from input :
     Exchange-correlation= PBE
                           (   1   4   3   4   0   0   0)
     Any further DFT definition will be discarded
     Please, verify this is what you really want


     Parallelization info
     --------------------
     sticks:   dense  smooth     PW     G-vecs:    dense   smooth      PW
     Min        3636    1818    468               639190   225950   29545
     Max        3637    1819    470               639197   225953   29547
     Sum       54553   27281   7033              9587919  3389267  443191


     negative rho (up, down):  6.256E-05 6.256E-05
     Reading collected, re-writing distributed wavefunctions

     Calculation of q =    0.0000000   0.0000000   0.0000000

     phonons (vibrational modes) for H2                                         

     bravais-lattice index     =            0
     lattice parameter (alat)  =      37.7945  a.u.
     unit-cell volume          =   53986.6760 (a.u.)^3
     number of atoms/cell      =            2
     number of atomic types    =            1
     kinetic-energy cut-off    =      60.0000  Ry
     charge density cut-off    =     480.0000  Ry
     convergence threshold     =      1.0E-12
     beta                      =       0.7000
     number of iterations used =            4
     Exchange-correlation= PBE
                           (   1   4   3   4   0   0   0)


     celldm(1)=   37.79452  celldm(2)=    0.00000  celldm(3)=    0.00000
     celldm(4)=    0.00000  celldm(5)=    0.00000  celldm(6)=    0.00000

     crystal axes: (cart. coord. in units of alat)
               a(1) = (  1.0000  0.0000  0.0000 )  
               a(2) = (  0.0000  1.0000  0.0000 )  
               a(3) = (  0.0000  0.0000  1.0000 )  

     reciprocal axes: (cart. coord. in units 2 pi/alat)
               b(1) = (  1.0000  0.0000  0.0000 )  
               b(2) = (  0.0000  1.0000  0.0000 )  
               b(3) = (  0.0000  0.0000  1.0000 )  


     Atoms inside the unit cell: 

     Cartesian axes

     site n.  atom      mass           positions (alat units)
        1     H    1.0078   tau(    1) = (    0.50000    0.50000    0.00000  )
        2     H    1.0078   tau(    2) = (    0.50000    0.50000   -0.03753  )

     Computing dynamical matrix for 
                    q = (   0.0000000   0.0000000   0.0000000 )

      2 Sym.Ops. (with q -> -q+G )


     G cutoff =17367.5767  ( 639197 G-vectors)     FFT grid: (270,270,270)
     G cutoff = 8683.7884  ( 225950 G-vectors)  smooth grid: (192,192,192)

     number of k points=    20  Methfessel-Paxton smearing, width (Ry)=  0.0100
                       cart. coord. in units 2pi/alat
        k(    1) = (   0.0000000   0.0000000   0.0000000), wk =   0.0625000
        k(    2) = (   0.0000000   0.2500000   0.0000000), wk =   0.1250000
        k(    3) = (   0.0000000  -0.5000000   0.0000000), wk =   0.0625000
        k(    4) = (   0.2500000   0.0000000   0.0000000), wk =   0.1250000
        k(    5) = (   0.2500000   0.2500000   0.0000000), wk =   0.1250000
        k(    6) = (   0.2500000  -0.5000000   0.0000000), wk =   0.1250000
        k(    7) = (   0.2500000  -0.2500000   0.0000000), wk =   0.1250000
        k(    8) = (  -0.5000000   0.0000000   0.0000000), wk =   0.0625000
        k(    9) = (  -0.5000000   0.2500000   0.0000000), wk =   0.1250000
        k(   10) = (  -0.5000000  -0.5000000   0.0000000), wk =   0.0625000
        k(   11) = (   0.0000000   0.0000000   0.0000000), wk =   0.0625000
        k(   12) = (   0.0000000   0.2500000   0.0000000), wk =   0.1250000
        k(   13) = (   0.0000000  -0.5000000   0.0000000), wk =   0.0625000
        k(   14) = (   0.2500000   0.0000000   0.0000000), wk =   0.1250000
        k(   15) = (   0.2500000   0.2500000   0.0000000), wk =   0.1250000
        k(   16) = (   0.2500000  -0.5000000   0.0000000), wk =   0.1250000
        k(   17) = (   0.2500000  -0.2500000   0.0000000), wk =   0.1250000
        k(   18) = (  -0.5000000   0.0000000   0.0000000), wk =   0.0625000
        k(   19) = (  -0.5000000   0.2500000   0.0000000), wk =   0.1250000
        k(   20) = (  -0.5000000  -0.5000000   0.0000000), wk =   0.0625000

     PseudoPot. # 1 for H  read from file:
     ../../SSSP/H.pbe-rrkjus_psl.1.0.0.UPF
     MD5 check sum: f52b6d4d1c606e5624b1dc7b2218f220
     Pseudo is Ultrasoft, Zval =  1.0
     Generated using "atomic" code by A. Dal Corso  v.5.1
     Using radial grid of  929 points,  2 beta functions with: 
                l(1) =   0
                l(2) =   0
     Q(r) pseudized with 0 coefficients 


     Mode symmetry, C_1 (1)     point group:


     Atomic displacements:
     There are    6 irreducible representations

     Representation     1      1 modes -  To be done

     Representation     2      1 modes -  To be done

     Representation     3      1 modes -  To be done

     Representation     4      1 modes -  To be done

     Representation     5      1 modes -  To be done

     Representation     6      1 modes -  To be done



     Alpha used in Ewald sum =   2.8000

     -------------------------------------------------
     Parameters for Dispersion (Grimme-D2) Correction:
     -------------------------------------------------
       atom      VdW radius       C_6     

        H          1.892          4.857

     Calculating the D2 contribution to the dynamical matrix.
     D2 energy =       -0.00000168 Ry
     Done.

     PHONON       :     56.59s CPU   1m 2.34s WALL



     Representation #   1 mode #   1

     Self-consistent Calculation

     Pert. #  1: Fermi energy shift (Ry) =     0.0000E+00     0.0000E+00

      iter #   1 total cpu time :    88.4 secs   av.it.:   5.0
      thresh= 1.000E-02 alpha_mix =  0.700 |ddv_scf|^2 =  4.368E-08

     Pert. #  1: Fermi energy shift (Ry) =     0.0000E+00     0.0000E+00

      iter #   2 total cpu time :   110.7 secs   av.it.:   9.0
      thresh= 2.090E-05 alpha_mix =  0.700 |ddv_scf|^2 =  3.929E-09

     Pert. #  1: Fermi energy shift (Ry) =     0.0000E+00     0.0000E+00

      iter #   3 total cpu time :   134.9 secs   av.it.:   9.0
      thresh= 6.268E-06 alpha_mix =  0.700 |ddv_scf|^2 =  1.090E-14

     End of self-consistent calculation

     Convergence has been achieved 


     Representation #   2 mode #   2

     Self-consistent Calculation

     Pert. #  1: Fermi energy shift (Ry) =     0.0000E+00     0.0000E+00

      iter #   1 total cpu time :   164.4 secs   av.it.:   5.0
      thresh= 1.000E-02 alpha_mix =  0.700 |ddv_scf|^2 =  4.368E-08

     Pert. #  1: Fermi energy shift (Ry) =     0.0000E+00     0.0000E+00

      iter #   2 total cpu time :   187.9 secs   av.it.:   9.0
      thresh= 2.090E-05 alpha_mix =  0.700 |ddv_scf|^2 =  3.929E-09

     Pert. #  1: Fermi energy shift (Ry) =     0.0000E+00     0.0000E+00

      iter #   3 total cpu time :   211.8 secs   av.it.:   9.0
      thresh= 6.268E-06 alpha_mix =  0.700 |ddv_scf|^2 =  1.090E-14

     End of self-consistent calculation

     Convergence has been achieved 


     Representation #   3 mode #   3

     Self-consistent Calculation

     Pert. #  1: Fermi energy shift (Ry) =     0.0000E+00     0.0000E+00

      iter #   1 total cpu time :   242.4 secs   av.it.:  10.0
      thresh= 1.000E-02 alpha_mix =  0.700 |ddv_scf|^2 =  1.331E-07

     Pert. #  1: Fermi energy shift (Ry) =     0.0000E+00     0.0000E+00

      iter #   2 total cpu time :   267.0 secs   av.it.:  15.0
      thresh= 3.649E-05 alpha_mix =  0.700 |ddv_scf|^2 =  9.435E-09

     Pert. #  1: Fermi energy shift (Ry) =     0.0000E+00     0.0000E+00

      iter #   3 total cpu time :   292.4 secs   av.it.:  16.0
      thresh= 9.713E-06 alpha_mix =  0.700 |ddv_scf|^2 =  1.522E-10

     Pert. #  1: Fermi energy shift (Ry) =     0.0000E+00     0.0000E+00

      iter #   4 total cpu time :   323.1 secs   av.it.:  17.0
      thresh= 1.234E-06 alpha_mix =  0.700 |ddv_scf|^2 =  1.363E-13

     End of self-consistent calculation

     Convergence has been achieved 


     Representation #   4 mode #   4

     Self-consistent Calculation

     Pert. #  1: Fermi energy shift (Ry) =     0.0000E+00     0.0000E+00

      iter #   1 total cpu time :   352.4 secs   av.it.:   5.0
      thresh= 1.000E-02 alpha_mix =  0.700 |ddv_scf|^2 =  1.055E-07

     Pert. #  1: Fermi energy shift (Ry) =     0.0000E+00     0.0000E+00

      iter #   2 total cpu time :   375.8 secs   av.it.:   9.0
      thresh= 3.248E-05 alpha_mix =  0.700 |ddv_scf|^2 =  9.514E-09

     Pert. #  1: Fermi energy shift (Ry) =     0.0000E+00     0.0000E+00

      iter #   3 total cpu time :   402.3 secs   av.it.:   8.0
      thresh= 9.754E-06 alpha_mix =  0.700 |ddv_scf|^2 =  1.022E-14

     End of self-consistent calculation

     Convergence has been achieved 


     Representation #   5 mode #   5

     Self-consistent Calculation

     Pert. #  1: Fermi energy shift (Ry) =     0.0000E+00     0.0000E+00

      iter #   1 total cpu time :   431.6 secs   av.it.:   5.0
      thresh= 1.000E-02 alpha_mix =  0.700 |ddv_scf|^2 =  1.055E-07

     Pert. #  1: Fermi energy shift (Ry) =     0.0000E+00     0.0000E+00

      iter #   2 total cpu time :   455.1 secs   av.it.:   9.0
      thresh= 3.248E-05 alpha_mix =  0.700 |ddv_scf|^2 =  9.514E-09

     Pert. #  1: Fermi energy shift (Ry) =     0.0000E+00     0.0000E+00

      iter #   3 total cpu time :   478.6 secs   av.it.:   8.0
      thresh= 9.754E-06 alpha_mix =  0.700 |ddv_scf|^2 =  1.022E-14

     End of self-consistent calculation

     Convergence has been achieved 


     Representation #   6 mode #   6

     Self-consistent Calculation

     Pert. #  1: Fermi energy shift (Ry) =     0.0000E+00     0.0000E+00

      iter #   1 total cpu time :   508.1 secs   av.it.:   6.0
      thresh= 1.000E-02 alpha_mix =  0.700 |ddv_scf|^2 =  1.206E-07

     Pert. #  1: Fermi energy shift (Ry) =     0.0000E+00     0.0000E+00

      iter #   2 total cpu time :   536.7 secs   av.it.:  14.0
      thresh= 3.472E-05 alpha_mix =  0.700 |ddv_scf|^2 =  8.350E-09

     Pert. #  1: Fermi energy shift (Ry) =     0.0000E+00     0.0000E+00

      iter #   3 total cpu time :   566.2 secs   av.it.:  14.0
      thresh= 9.138E-06 alpha_mix =  0.700 |ddv_scf|^2 =  1.082E-10

     Pert. #  1: Fermi energy shift (Ry) =     0.0000E+00     0.0000E+00

      iter #   4 total cpu time :   594.2 secs   av.it.:  16.0
      thresh= 1.040E-06 alpha_mix =  0.700 |ddv_scf|^2 =  2.247E-12

     Pert. #  1: Fermi energy shift (Ry) =     0.0000E+00     0.0000E+00

      iter #   5 total cpu time :   622.0 secs   av.it.:  17.0
      thresh= 1.499E-07 alpha_mix =  0.700 |ddv_scf|^2 =  2.029E-12

     Pert. #  1: Fermi energy shift (Ry) =     0.0000E+00     0.0000E+00

      iter #   6 total cpu time :   650.8 secs   av.it.:  16.0
      thresh= 1.424E-07 alpha_mix =  0.700 |ddv_scf|^2 =  6.066E-16

     End of self-consistent calculation

     Convergence has been achieved 

     Number of q in the star =    1
     List of q in the star:
          1   0.000000000   0.000000000   0.000000000

     Diagonalizing the dynamical matrix

     q = (    0.000000000   0.000000000   0.000000000 ) 

 **************************************************************************
     freq (    1) =     -58.329921 [THz] =   -1945.676743 [cm-1]
     freq (    2) =     -58.329921 [THz] =   -1945.676743 [cm-1]
     freq (    3) =     -50.795948 [THz] =   -1694.370455 [cm-1]
     freq (    4) =     -27.757979 [THz] =    -925.906514 [cm-1]
     freq (    5) =     -27.757979 [THz] =    -925.906514 [cm-1]
     freq (    6) =     115.680153 [THz] =    3858.674563 [cm-1]
 **************************************************************************

     Mode symmetry, C_1 (1)     point group:

     freq (   1-   1) =      -1945.7  [cm-1]   --> A               I+R
     freq (   2-   2) =      -1945.7  [cm-1]   --> A               I+R
     freq (   3-   3) =      -1694.4  [cm-1]   --> A               I+R
     freq (   4-   4) =       -925.9  [cm-1]   --> A               I+R
     freq (   5-   5) =       -925.9  [cm-1]   --> A               I+R
     freq (   6-   6) =       3858.7  [cm-1]   --> A               I+R

     PHONON       :   9m16.11s CPU  11m 1.99s WALL

     INITIALIZATION: 
     phq_setup    :     12.78s CPU     14.42s WALL (       1 calls)
     phq_init     :     26.89s CPU     28.47s WALL (       1 calls)

     phq_init     :     26.89s CPU     28.47s WALL (       1 calls)
     init_vloc    :      0.15s CPU      0.15s WALL (       1 calls)
     init_us_1    :      0.04s CPU      0.04s WALL (       1 calls)
     newd         :      0.76s CPU      0.79s WALL (       1 calls)
     dvanqq       :      6.97s CPU      7.12s WALL (       1 calls)
     drho         :     11.90s CPU     13.17s WALL (       1 calls)

     DYNAMICAL MATRIX:
     dynmat0      :      1.16s CPU      1.29s WALL (       1 calls)
     phqscf       :    499.26s CPU    593.97s WALL (       1 calls)
     dynmatrix    :      0.19s CPU      0.26s WALL (       1 calls)

     phqscf       :    499.26s CPU    593.97s WALL (       1 calls)
     solve_linter :    495.36s CPU    580.12s WALL (       6 calls)
     drhodv       :      3.90s CPU      4.04s WALL (       6 calls)

     dynmat0      :      1.16s CPU      1.29s WALL (       1 calls)
     dynmat_us    :      0.96s CPU      0.97s WALL (       1 calls)
     d2ionq       :      0.20s CPU      0.20s WALL (       1 calls)

     dynmat_us    :      0.96s CPU      0.97s WALL (       1 calls)
     addusdynmat  :      0.00s CPU      0.00s WALL (       1 calls)

     phqscf       :    499.26s CPU    593.97s WALL (       1 calls)
     solve_linter :    495.36s CPU    580.12s WALL (       6 calls)

     solve_linter :    495.36s CPU    580.12s WALL (       6 calls)
     dvqpsi_us    :      8.18s CPU      8.33s WALL (      18 calls)
     ortho        :      0.90s CPU      0.93s WALL (      66 calls)
     cgsolve      :     54.07s CPU     54.67s WALL (      66 calls)
     incdrhoscf   :      5.25s CPU      5.40s WALL (      66 calls)
     addusddens   :     16.37s CPU     18.30s WALL (      28 calls)
     vpsifft      :      3.59s CPU      3.69s WALL (      48 calls)
     dv_of_drho   :    170.75s CPU    175.98s WALL (      22 calls)
     mix_pot      :      7.13s CPU     26.51s WALL (      22 calls)
     ef_shift     :     21.79s CPU     22.17s WALL (      28 calls)
     localdos     :     12.51s CPU     13.22s WALL (       6 calls)
     psymdvscf    :    113.67s CPU    143.66s WALL (      22 calls)
     newdq        :     18.07s CPU     19.63s WALL (      22 calls)
     adddvscf     :      0.09s CPU      0.09s WALL (      48 calls)
     drhodvus     :      3.48s CPU     13.74s WALL (       6 calls)

     dvqpsi_us    :      8.18s CPU      8.33s WALL (      18 calls)
     dvqpsi_us_on :      0.08s CPU      0.08s WALL (      18 calls)

     cgsolve      :     54.07s CPU     54.67s WALL (      66 calls)
     ch_psi       :     53.03s CPU     53.60s WALL (     693 calls)

     ch_psi       :     53.03s CPU     53.60s WALL (     693 calls)
     h_psi        :     51.42s CPU     51.97s WALL (     693 calls)
     last         :      1.39s CPU      1.41s WALL (     693 calls)

     h_psi        :     51.42s CPU     51.97s WALL (     693 calls)
     add_vuspsi   :      0.51s CPU      0.52s WALL (     693 calls)

     incdrhoscf   :      5.25s CPU      5.40s WALL (      66 calls)
     addusdbec    :      0.90s CPU      0.92s WALL (      84 calls)

     drhodvus     :      3.48s CPU     13.74s WALL (       6 calls)

      General routines
     calbec       :      3.22s CPU      3.40s WALL (    1656 calls)
     fft          :    222.53s CPU    226.85s WALL (     805 calls)
     ffts         :     15.34s CPU     15.80s WALL (     192 calls)
     fftw         :     55.48s CPU     56.12s WALL (    1827 calls)
     davcio       :      0.10s CPU     24.95s WALL (     498 calls)
     write_rec    :      0.00s CPU     19.57s WALL (      28 calls)


     PHONON       :   9m16.11s CPU  11m 2.00s WALL


   This run was terminated on:  23:11:56  20Sep2022            

=------------------------------------------------------------------------------=
   JOB DONE.
=------------------------------------------------------------------------------=
