
     Program PWSCF v.6.4.1 starts on 12Jun2022 at 21: 0:44 

     This program is part of the open-source Quantum ESPRESSO suite
     for quantum simulation of materials; please cite
         "P. Giannozzi et al., J. Phys.:Condens. Matter 21 395502 (2009);
         "P. Giannozzi et al., J. Phys.:Condens. Matter 29 465901 (2017);
          URL http://www.quantum-espresso.org", 
     in publications or presentations arising from this work. More details at
     http://www.quantum-espresso.org/quote

     Parallel version (MPI), running on   160 processors

     MPI processes distributed on     8 nodes
     K-points division:     npool     =       8
     R & G space division:  proc/nbgrp/npool/nimage =      20
     Waiting for input...
     Reading input from standard input
Warning: card &CELL ignored
Warning: card / ignored

     Current dimensions of program PWSCF are:
     Max number of different atomic species (ntypx) = 10
     Max number of k-points (npk) =  40000
     Max angular momentum in pseudopotentials (lmaxx) =  3

     IMPORTANT: XC functional enforced from input :
     Exchange-correlation      = PBE ( 1  4  3  4 0 0)
     Any further DFT definition will be discarded
     Please, verify this is what you really want

               file Fe.pbe-spn-kjpaw_psl.0.2.1.UPF: wavefunction(s)  3D renormalized

     -------------------------------------------------
     Parameters for Dispersion (Grimme-D2) Correction:
     -------------------------------------------------
       atom      VdW radius       C_6     

        Fe         2.952        374.666
        H          1.892          4.857

     Subspace diagonalization in iterative solution of the eigenvalue problem:
     one sub-group per band group will be used
     scalapack distributed-memory algorithm (size of sub-group:  3*  3 procs)


     Parallelization info
     --------------------
     sticks:   dense  smooth     PW     G-vecs:    dense   smooth      PW
     Min         634     317     83               145278    51361    6989
     Max         635     318     84               145287    51370    7000
     Sum       12685    6351   1677              2905599  1027285  139897



     bravais-lattice index     =            0
     lattice parameter (alat)  =      18.7640  a.u.
     unit-cell volume          =   16360.3163 (a.u.)^3
     number of atoms/cell      =           65
     number of atomic types    =            2
     number of electrons       =      1025.00
     number of Kohn-Sham states=          616
     kinetic-energy cutoff     =      60.0000  Ry
     charge density cutoff     =     480.0000  Ry
     convergence threshold     =      1.0E-08
     mixing beta               =       0.2000
     number of iterations used =           10  local-TF  mixing
     Exchange-correlation      = PBE ( 1  4  3  4 0 0)
     nstep                     =           50


     Effective Screening Medium Method
     =================================
     Boundary Conditions: Metal-Slab-Metal
     field strength                   =    -0.01 Ry/a.u.
     grid points for fit at edges     =        4 


     celldm(1)=  18.764036  celldm(2)=   0.000000  celldm(3)=   0.000000
     celldm(4)=   0.000000  celldm(5)=   0.000000  celldm(6)=   0.000000

     crystal axes: (cart. coord. in units of alat)
               a(1) = (   1.000000   0.000000   0.000000 )  
               a(2) = (   0.333330   0.942807   0.000000 )  
               a(3) = (   0.000000   0.000000   2.626577 )  

     reciprocal axes: (cart. coord. in units 2 pi/alat)
               b(1) = (  1.000000 -0.353551  0.000000 )  
               b(2) = (  0.000000  1.060663  0.000000 )  
               b(3) = (  0.000000  0.000000  0.380724 )  


     PseudoPot. # 1 for Fe read from file:
     ../../SSSP/Fe.pbe-spn-kjpaw_psl.0.2.1.UPF
     MD5 check sum: e86618425769142926afa95317d90200
     Pseudo is Projector augmented-wave + core cor, Zval = 16.0
     Generated using "atomic" code by A. Dal Corso v.5.0.99 svn rev. 10869
     Shape of augmentation charge: PSQ
     Using radial grid of 1191 points,  6 beta functions with: 
                l(1) =   0
                l(2) =   0
                l(3) =   1
                l(4) =   1
                l(5) =   2
                l(6) =   2
     Q(r) pseudized with 0 coefficients 


     PseudoPot. # 2 for H  read from file:
     ../../SSSP/H.pbe-rrkjus_psl.1.0.0.UPF
     MD5 check sum: f52b6d4d1c606e5624b1dc7b2218f220
     Pseudo is Ultrasoft, Zval =  1.0
     Generated using "atomic" code by A. Dal Corso v.5.1
     Using radial grid of  929 points,  2 beta functions with: 
                l(1) =   0
                l(2) =   0
     Q(r) pseudized with 0 coefficients 


     atomic species   valence    mass     pseudopotential
        Fe            16.00    55.84500     Fe( 1.00)
        H              1.00     1.00800     H ( 1.00)

     Starting magnetic structure 
     atomic species   magnetization
        Fe           0.100
        H            0.100

     No symmetry found



   Cartesian axes

     site n.     atom                  positions (alat units)
         1           Fe  tau(   1) = (   0.1666663   0.1178509   0.0000000  )
         2           Fe  tau(   2) = (   0.0000000   0.0000000   0.2041376  )
         3           Fe  tau(   3) = (   0.4999989   0.3535526   0.0000000  )
         4           Fe  tau(   4) = (   0.3333326   0.2357017   0.2041376  )
         5           Fe  tau(   5) = (   0.1662163   0.1176789   0.4055273  )
         6           Fe  tau(   6) = (   0.3327662   0.9435526   0.6050216  )
         7           Fe  tau(   7) = (   0.4997900   0.3534247   0.4057801  )
         8           Fe  tau(   8) = (   0.3323031   0.2356835   0.6043978  )
         9           Fe  tau(   9) = (   0.2499989   0.3535526   0.0000000  )
        10           Fe  tau(  10) = (   0.4166663   0.1178509   0.0000000  )
        11           Fe  tau(  11) = (   0.0833326   0.2357017   0.2041376  )
        12           Fe  tau(  12) = (   0.2500000   0.0000000   0.2041376  )
        13           Fe  tau(  13) = (   0.2498401   0.3535715   0.4056206  )
        14           Fe  tau(  14) = (   0.4163942   0.1177110   0.4055971  )
        15           Fe  tau(  15) = (   0.0831164   0.2358857   0.6048612  )
        16           Fe  tau(  16) = (   0.2493488  -0.0003718   0.6053070  )
        17           Fe  tau(  17) = (   0.6666663   0.1178509   0.0000000  )
        18           Fe  tau(  18) = (   0.5000000   0.0000000   0.2041376  )
        19           Fe  tau(  19) = (   0.9999989   0.3535526   0.0000000  )
        20           Fe  tau(  20) = (   0.8333326   0.2357017   0.2041376  )
        21           Fe  tau(  21) = (   0.6664408   0.1177548   0.4057781  )
        22           Fe  tau(  22) = (   0.4995554  -0.0008614   0.6043702  )
        23           Fe  tau(  23) = (   1.0001106   0.3537276   0.4054156  )
        24           Fe  tau(  24) = (   0.8333013   0.2360492   0.6053495  )
        25           Fe  tau(  25) = (   0.7499989   0.3535526   0.0000000  )
        26           Fe  tau(  26) = (   0.9166663   0.1178509   0.0000000  )
        27           Fe  tau(  27) = (   0.5833326   0.2357017   0.2041376  )
        28           Fe  tau(  28) = (   0.7500000   0.0000000   0.2041376  )
        29           Fe  tau(  29) = (   0.7498124   0.3534280   0.4048858  )
        30           Fe  tau(  30) = (   0.9161444   0.1182566   0.4061480  )
        31           Fe  tau(  31) = (   0.5816520   0.2346034   0.6047666  )
        32           Fe  tau(  32) = (   1.0835909   0.9433361   0.6048677  )
        33           Fe  tau(  33) = (   0.3333315   0.5892543   0.0000000  )
        34           Fe  tau(  34) = (   0.1666652   0.4714034   0.2041376  )
        35           Fe  tau(  35) = (   0.6666640   0.8249560   0.0000000  )
        36           Fe  tau(  36) = (   0.4999978   0.7071052   0.2041376  )
        37           Fe  tau(  37) = (   0.3335035   0.5893486   0.4056103  )
        38           Fe  tau(  38) = (   1.1663567   0.4719375   0.6045836  )
        39           Fe  tau(  39) = (   0.6663217   0.8246640   0.4055441  )
        40           Fe  tau(  40) = (   0.5003916   0.7064710   0.6051021  )
        41           Fe  tau(  41) = (   0.4166640   0.8249560   0.0000000  )
        42           Fe  tau(  42) = (   0.5833315   0.5892543   0.0000000  )
        43           Fe  tau(  43) = (   0.2499978   0.7071052   0.2041376  )
        44           Fe  tau(  44) = (   0.4166652   0.4714034   0.2041376  )
        45           Fe  tau(  45) = (   0.4165385   0.8249250   0.4057426  )
        46           Fe  tau(  46) = (   0.5834692   0.5887186   0.4061500  )
        47           Fe  tau(  47) = (   1.2503991   0.7075124   0.6048939  )
        48           Fe  tau(  48) = (   0.4171636   0.4715962   0.6048779  )
        49           Fe  tau(  49) = (   0.8333315   0.5892543   0.0000000  )
        50           Fe  tau(  50) = (   0.6666652   0.4714034   0.2041376  )
        51           Fe  tau(  51) = (   1.1666640   0.8249560   0.0000000  )
        52           Fe  tau(  52) = (   0.9999978   0.7071052   0.2041376  )
        53           Fe  tau(  53) = (   0.8334911   0.5893605   0.4054309  )
        54           Fe  tau(  54) = (   0.6668988   0.4713607   0.6052633  )
        55           Fe  tau(  55) = (   1.1667677   0.8251921   0.4055968  )
        56           Fe  tau(  56) = (   1.0003041   0.7067591   0.6046077  )
        57           Fe  tau(  57) = (   0.9166640   0.8249560   0.0000000  )
        58           Fe  tau(  58) = (   1.0833315   0.5892543   0.0000000  )
        59           Fe  tau(  59) = (   0.7499978   0.7071052   0.2041376  )
        60           Fe  tau(  60) = (   0.9166652   0.4714034   0.2041376  )
        61           Fe  tau(  61) = (   0.9166026   0.8248708   0.4056198  )
        62           Fe  tau(  62) = (   1.0833989   0.5893584   0.4056298  )
        63           Fe  tau(  63) = (   0.7499975   0.7069497   0.6049345  )
        64           Fe  tau(  64) = (   0.9169336   0.4716697   0.6043188  )
        65           H   tau(  65) = (   0.7923329   0.3836763   0.6991287  )

     number of k points=    10  Methfessel-Paxton smearing, width (Ry)=  0.0100
                       cart. coord. in units 2pi/alat
        k(    1) = (   0.0000000   0.0000000   0.0000000), wk =   0.0625000
        k(    2) = (   0.0000000   0.2651656   0.0000000), wk =   0.1250000
        k(    3) = (   0.0000000  -0.5303313   0.0000000), wk =   0.0625000
        k(    4) = (   0.2500000  -0.0883878   0.0000000), wk =   0.1250000
        k(    5) = (   0.2500000   0.1767779   0.0000000), wk =   0.1250000
        k(    6) = (   0.2500000  -0.6187190   0.0000000), wk =   0.1250000
        k(    7) = (   0.2500000  -0.3535534   0.0000000), wk =   0.1250000
        k(    8) = (  -0.5000000   0.1767755   0.0000000), wk =   0.0625000
        k(    9) = (  -0.5000000   0.4419412   0.0000000), wk =   0.1250000
        k(   10) = (  -0.5000000  -0.3535558   0.0000000), wk =   0.0625000

     Dense  grid:  2905599 G-vectors     FFT dimensions: ( 135, 135, 360)

     Smooth grid:  1027285 G-vectors     FFT dimensions: (  96,  96, 243)

     Estimated max dynamical RAM per process >    1022.28 MB

     Estimated total dynamical RAM >     159.73 GB
     Generating pointlists ...
     new r_m :   0.0741 (alat units)  1.3896 (a.u.) for type    1
     new r_m :   0.0741 (alat units)  1.3896 (a.u.) for type    2

     Check: negative core charge=   -0.000039

     Initial potential from superposition of free atoms

     starting charge 1024.97193, renormalised to 1025.00000

     negative rho (up, down):  2.478E-02 2.516E-03
     Starting wfcs are  833 randomized atomic wfcs
     Checking if some PAW data can be deallocated... 

     total cpu time spent up to now is       80.5 secs

     Self-consistent Calculation

     iteration #  1     ecut=    60.00 Ry     beta= 0.20
     Davidson diagonalization with overlap
     c_bands:  2 eigenvalues not converged
     ethr =  1.00E-04,  avg # of iterations = 19.0

     negative rho (up, down):  1.312E-02 3.518E-03

     total cpu time spent up to now is     1085.5 secs

     total energy              =  -21068.41901353 Ry
     Harris-Foulkes estimate   =  -21075.23270073 Ry
     estimated scf accuracy    <     336.35920595 Ry

     total magnetization       =   107.70 Bohr mag/cell
     absolute magnetization    =   108.59 Bohr mag/cell

     iteration #  2     ecut=    60.00 Ry     beta= 0.20
     Davidson diagonalization with overlap
     ethr =  1.00E-02,  avg # of iterations =  1.0

     negative rho (up, down):  1.004E-02 4.100E-02

     total cpu time spent up to now is     1222.5 secs

     total energy              =  -21072.08493678 Ry
     Harris-Foulkes estimate   =  -21074.72971974 Ry
     estimated scf accuracy    <     140.12657183 Ry

     total magnetization       =   108.51 Bohr mag/cell
     absolute magnetization    =   109.47 Bohr mag/cell

     iteration #  3     ecut=    60.00 Ry     beta= 0.20
     Davidson diagonalization with overlap
     ethr =  1.00E-02,  avg # of iterations =  1.0

     negative rho (up, down):  5.283E-03 1.715E-02

     total cpu time spent up to now is     1358.2 secs

     total energy              =  -21073.39533048 Ry
     Harris-Foulkes estimate   =  -21073.48667995 Ry
     estimated scf accuracy    <       9.30595471 Ry

     total magnetization       =   133.59 Bohr mag/cell
     absolute magnetization    =   134.01 Bohr mag/cell

     iteration #  4     ecut=    60.00 Ry     beta= 0.20
     Davidson diagonalization with overlap
     ethr =  9.08E-04,  avg # of iterations =  1.0

     negative rho (up, down):  3.410E-03 1.928E-02

     total cpu time spent up to now is     1487.3 secs

     total energy              =  -21073.43744202 Ry
     Harris-Foulkes estimate   =  -21073.48312758 Ry
     estimated scf accuracy    <      14.17058390 Ry

     total magnetization       =   140.37 Bohr mag/cell
     absolute magnetization    =   140.87 Bohr mag/cell

     iteration #  5     ecut=    60.00 Ry     beta= 0.20
     Davidson diagonalization with overlap
     ethr =  9.08E-04,  avg # of iterations =  1.0

     negative rho (up, down):  1.881E-02 2.107E-01

     total cpu time spent up to now is     1617.9 secs

     total energy              =  -21071.38942572 Ry
     Harris-Foulkes estimate   =  -21073.46823753 Ry
     estimated scf accuracy    <      14.75044982 Ry

     total magnetization       =   143.56 Bohr mag/cell
     absolute magnetization    =   144.16 Bohr mag/cell

     iteration #  6     ecut=    60.00 Ry     beta= 0.20
     Davidson diagonalization with overlap
     ethr =  9.08E-04,  avg # of iterations =  7.0

     negative rho (up, down):  2.784E-03 1.096E-01

     total cpu time spent up to now is     1844.8 secs

     total energy              =  -21072.90261935 Ry
     Harris-Foulkes estimate   =  -21072.73668060 Ry
     estimated scf accuracy    <       2.45762901 Ry

     total magnetization       =   158.35 Bohr mag/cell
     absolute magnetization    =   162.56 Bohr mag/cell

     iteration #  7     ecut=    60.00 Ry     beta= 0.20
     Davidson diagonalization with overlap
     ethr =  2.40E-04,  avg # of iterations =  9.1

     negative rho (up, down):  9.963E-04 6.356E-02

     total cpu time spent up to now is     2225.1 secs

     total energy              =  -21073.32856156 Ry
     Harris-Foulkes estimate   =  -21073.32346527 Ry
     estimated scf accuracy    <       0.52792607 Ry

     total magnetization       =   150.98 Bohr mag/cell
     absolute magnetization    =   154.32 Bohr mag/cell

     iteration #  8     ecut=    60.00 Ry     beta= 0.20
     Davidson diagonalization with overlap
     c_bands:  1 eigenvalues not converged
     c_bands:  1 eigenvalues not converged
     ethr =  5.15E-05,  avg # of iterations = 16.7

     negative rho (up, down):  1.843E-04 1.607E-02

     total cpu time spent up to now is     3103.1 secs

     total energy              =  -21073.47492590 Ry
     Harris-Foulkes estimate   =  -21073.54682603 Ry
     estimated scf accuracy    <       0.65785173 Ry

     total magnetization       =   151.82 Bohr mag/cell
     absolute magnetization    =   156.48 Bohr mag/cell

     iteration #  9     ecut=    60.00 Ry     beta= 0.20
     Davidson diagonalization with overlap
     c_bands:  1 eigenvalues not converged
     ethr =  5.15E-05,  avg # of iterations =  5.5

     negative rho (up, down):  2.832E-04 4.079E-02

     total cpu time spent up to now is     3330.7 secs

     total energy              =  -21073.51092053 Ry
     Harris-Foulkes estimate   =  -21073.51021119 Ry
     estimated scf accuracy    <       0.40897491 Ry

     total magnetization       =   152.18 Bohr mag/cell
     absolute magnetization    =   156.56 Bohr mag/cell

     iteration # 10     ecut=    60.00 Ry     beta= 0.20
     Davidson diagonalization with overlap
     ethr =  3.99E-05,  avg # of iterations =  4.4

     negative rho (up, down):  3.837E-04 3.407E-02

     total cpu time spent up to now is     3507.4 secs

     total energy              =  -21073.51257045 Ry
     Harris-Foulkes estimate   =  -21073.53868617 Ry
     estimated scf accuracy    <       0.66577312 Ry

     total magnetization       =   155.85 Bohr mag/cell
     absolute magnetization    =   160.33 Bohr mag/cell

     iteration # 11     ecut=    60.00 Ry     beta= 0.20
     Davidson diagonalization with overlap
     ethr =  3.99E-05,  avg # of iterations =  2.2

     negative rho (up, down):  2.157E-04 3.168E-02

     total cpu time spent up to now is     3661.3 secs

     total energy              =  -21073.52721886 Ry
     Harris-Foulkes estimate   =  -21073.53733393 Ry
     estimated scf accuracy    <       0.42204497 Ry

     total magnetization       =   160.03 Bohr mag/cell
     absolute magnetization    =   164.55 Bohr mag/cell

     iteration # 12     ecut=    60.00 Ry     beta= 0.20
     Davidson diagonalization with overlap
     ethr =  3.99E-05,  avg # of iterations =  1.0

     negative rho (up, down):  2.182E-04 3.216E-02

     total cpu time spent up to now is     3792.6 secs

     total energy              =  -21073.49614444 Ry
     Harris-Foulkes estimate   =  -21073.53355210 Ry
     estimated scf accuracy    <       0.25196200 Ry

     total magnetization       =   160.04 Bohr mag/cell
     absolute magnetization    =   164.64 Bohr mag/cell

     iteration # 13     ecut=    60.00 Ry     beta= 0.20
     Davidson diagonalization with overlap
     c_bands:  2 eigenvalues not converged
     ethr =  2.46E-05,  avg # of iterations = 11.0

     negative rho (up, down):  1.641E-04 2.561E-02

     total cpu time spent up to now is     4139.1 secs

     total energy              =  -21073.53117606 Ry
     Harris-Foulkes estimate   =  -21073.53143205 Ry
     estimated scf accuracy    <       0.12980377 Ry

     total magnetization       =   161.34 Bohr mag/cell
     absolute magnetization    =   166.48 Bohr mag/cell

     iteration # 14     ecut=    60.00 Ry     beta= 0.20
     Davidson diagonalization with overlap
     c_bands:  2 eigenvalues not converged
     ethr =  1.27E-05,  avg # of iterations = 17.9

     negative rho (up, down):  3.859E-03 2.975E-02

     total cpu time spent up to now is     4622.2 secs

     total energy              =  -21073.53244369 Ry
     Harris-Foulkes estimate   =  -21073.54376424 Ry
     estimated scf accuracy    <       0.09074751 Ry

     total magnetization       =   161.00 Bohr mag/cell
     absolute magnetization    =   166.25 Bohr mag/cell

     iteration # 15     ecut=    60.00 Ry     beta= 0.20
     Davidson diagonalization with overlap
     c_bands:  2 eigenvalues not converged
     ethr =  8.85E-06,  avg # of iterations = 12.9

     negative rho (up, down):  1.177E-01 2.621E-02

     total cpu time spent up to now is     4906.5 secs

     total energy              =  -21073.52914818 Ry
     Harris-Foulkes estimate   =  -21073.53741385 Ry
     estimated scf accuracy    <       0.06376121 Ry

     total magnetization       =   161.52 Bohr mag/cell
     absolute magnetization    =   166.69 Bohr mag/cell

     iteration # 16     ecut=    60.00 Ry     beta= 0.20
     Davidson diagonalization with overlap
     c_bands:  1 eigenvalues not converged
     c_bands:  5 eigenvalues not converged
     ethr =  6.22E-06,  avg # of iterations = 20.9

     negative rho (up, down):  1.248E-01 1.942E-02

     total cpu time spent up to now is     5670.0 secs

     total energy              =  -21073.52707583 Ry
     Harris-Foulkes estimate   =  -21073.53764187 Ry
     estimated scf accuracy    <       0.04287699 Ry

     total magnetization       =   162.68 Bohr mag/cell
     absolute magnetization    =   167.96 Bohr mag/cell

     iteration # 17     ecut=    60.00 Ry     beta= 0.20
     Davidson diagonalization with overlap
     c_bands:  1 eigenvalues not converged
     c_bands:  2 eigenvalues not converged
     ethr =  4.18E-06,  avg # of iterations = 17.9

     negative rho (up, down):  1.541E-01 1.953E-02

     total cpu time spent up to now is     6229.5 secs

     total energy              =  -21073.51035820 Ry
     Harris-Foulkes estimate   =  -21073.53127097 Ry
     estimated scf accuracy    <       0.04201138 Ry

     total magnetization       =   162.31 Bohr mag/cell
     absolute magnetization    =   167.73 Bohr mag/cell

     iteration # 18     ecut=    60.00 Ry     beta= 0.20
     Davidson diagonalization with overlap
     c_bands:  1 eigenvalues not converged
     c_bands:  3 eigenvalues not converged
     ethr =  4.10E-06,  avg # of iterations = 14.1

     negative rho (up, down):  2.142E-01 1.475E-02

     total cpu time spent up to now is     6628.2 secs

     total energy              =  -21073.48697299 Ry
     Harris-Foulkes estimate   =  -21073.51397049 Ry
     estimated scf accuracy    <       0.02563345 Ry

     total magnetization       =   163.04 Bohr mag/cell
     absolute magnetization    =   168.75 Bohr mag/cell

     iteration # 19     ecut=    60.00 Ry     beta= 0.20
     Davidson diagonalization with overlap
     c_bands:  3 eigenvalues not converged
     c_bands:  2 eigenvalues not converged
     ethr =  2.50E-06,  avg # of iterations = 37.8

     negative rho (up, down):  1.377E-01 1.629E-02

     total cpu time spent up to now is     8096.9 secs

     total energy              =  -21073.47541025 Ry
     Harris-Foulkes estimate   =  -21073.49341577 Ry
     estimated scf accuracy    <       0.01241531 Ry

     total magnetization       =   162.39 Bohr mag/cell
     absolute magnetization    =   168.60 Bohr mag/cell

     iteration # 20     ecut=    60.00 Ry     beta= 0.20
     Davidson diagonalization with overlap
     c_bands:  2 eigenvalues not converged
     c_bands:  2 eigenvalues not converged
     ethr =  1.21E-06,  avg # of iterations = 18.6

     negative rho (up, down):  1.050E-01 2.414E-02

     total cpu time spent up to now is     8634.5 secs

     total energy              =  -21073.44914222 Ry
     Harris-Foulkes estimate   =  -21073.47742280 Ry
     estimated scf accuracy    <       0.00855885 Ry

     total magnetization       =   162.10 Bohr mag/cell
     absolute magnetization    =   168.41 Bohr mag/cell

     iteration # 21     ecut=    60.00 Ry     beta= 0.20
     Davidson diagonalization with overlap
     c_bands:  1 eigenvalues not converged
     ethr =  8.35E-07,  avg # of iterations = 21.6

     negative rho (up, down):  9.546E-02 2.168E-02

     total cpu time spent up to now is     9610.7 secs

     total energy              =  -21073.44923776 Ry
     Harris-Foulkes estimate   =  -21073.45053800 Ry
     estimated scf accuracy    <       0.00276982 Ry

     total magnetization       =   162.33 Bohr mag/cell
     absolute magnetization    =   168.77 Bohr mag/cell

     iteration # 22     ecut=    60.00 Ry     beta= 0.20
     Davidson diagonalization with overlap
     c_bands:  2 eigenvalues not converged
     ethr =  2.70E-07,  avg # of iterations = 17.5

     negative rho (up, down):  7.097E-02 1.917E-02

     total cpu time spent up to now is    10676.6 secs

     total energy              =  -21073.45361782 Ry
     Harris-Foulkes estimate   =  -21073.45031645 Ry
     estimated scf accuracy    <       0.00212949 Ry

     total magnetization       =   162.33 Bohr mag/cell
     absolute magnetization    =   168.78 Bohr mag/cell

     iteration # 23     ecut=    60.00 Ry     beta= 0.20
     Davidson diagonalization with overlap
     c_bands:  2 eigenvalues not converged
     ethr =  2.08E-07,  avg # of iterations = 10.2

     negative rho (up, down):  5.510E-02 1.914E-02

     total cpu time spent up to now is    10975.6 secs

     total energy              =  -21073.45423417 Ry
     Harris-Foulkes estimate   =  -21073.45373758 Ry
     estimated scf accuracy    <       0.00158207 Ry

     total magnetization       =   162.36 Bohr mag/cell
     absolute magnetization    =   168.80 Bohr mag/cell

     iteration # 24     ecut=    60.00 Ry     beta= 0.20
     Davidson diagonalization with overlap
     c_bands:  5 eigenvalues not converged
     ethr =  1.54E-07,  avg # of iterations =  7.6

     negative rho (up, down):  3.995E-02 1.859E-02

     total cpu time spent up to now is    11265.5 secs

     total energy              =  -21073.45473090 Ry
     Harris-Foulkes estimate   =  -21073.45433332 Ry
     estimated scf accuracy    <       0.00075160 Ry

     total magnetization       =   162.39 Bohr mag/cell
     absolute magnetization    =   168.83 Bohr mag/cell

     iteration # 25     ecut=    60.00 Ry     beta= 0.20
     Davidson diagonalization with overlap
     c_bands:  4 eigenvalues not converged
     ethr =  7.33E-08,  avg # of iterations = 11.9

     negative rho (up, down):  3.703E-02 1.877E-02

     total cpu time spent up to now is    12019.6 secs

     total energy              =  -21073.45549489 Ry
     Harris-Foulkes estimate   =  -21073.45499081 Ry
     estimated scf accuracy    <       0.00056723 Ry

     total magnetization       =   162.40 Bohr mag/cell
     absolute magnetization    =   168.88 Bohr mag/cell

     iteration # 26     ecut=    60.00 Ry     beta= 0.20
     Davidson diagonalization with overlap
     c_bands:  5 eigenvalues not converged
     ethr =  5.53E-08,  avg # of iterations = 10.7

     negative rho (up, down):  2.766E-02 1.843E-02

     total cpu time spent up to now is    12382.9 secs

     total energy              =  -21073.46136577 Ry
     Harris-Foulkes estimate   =  -21073.45557825 Ry
     estimated scf accuracy    <       0.00037911 Ry

     total magnetization       =   162.42 Bohr mag/cell
     absolute magnetization    =   168.91 Bohr mag/cell

     iteration # 27     ecut=    60.00 Ry     beta= 0.20
     Davidson diagonalization with overlap
     c_bands:  4 eigenvalues not converged
     ethr =  3.70E-08,  avg # of iterations = 10.4

     negative rho (up, down):  2.688E-02 1.895E-02

     total cpu time spent up to now is    12701.4 secs

     total energy              =  -21073.46310625 Ry
     Harris-Foulkes estimate   =  -21073.46143073 Ry
     estimated scf accuracy    <       0.00035701 Ry

     total magnetization       =   162.43 Bohr mag/cell
     absolute magnetization    =   168.92 Bohr mag/cell

     iteration # 28     ecut=    60.00 Ry     beta= 0.20
     Davidson diagonalization with overlap
     c_bands:  4 eigenvalues not converged
     ethr =  3.48E-08,  avg # of iterations =  7.5

     negative rho (up, down):  2.656E-02 1.884E-02

     total cpu time spent up to now is    13068.7 secs

     total energy              =  -21073.46346369 Ry
     Harris-Foulkes estimate   =  -21073.46313597 Ry
     estimated scf accuracy    <       0.00010661 Ry

     total magnetization       =   162.49 Bohr mag/cell
     absolute magnetization    =   168.98 Bohr mag/cell

     iteration # 29     ecut=    60.00 Ry     beta= 0.20
     Davidson diagonalization with overlap
     c_bands:  5 eigenvalues not converged
     ethr =  1.04E-08,  avg # of iterations = 11.8

     negative rho (up, down):  2.626E-02 1.871E-02

     total cpu time spent up to now is    13788.0 secs

     total energy              =  -21073.46351001 Ry
     Harris-Foulkes estimate   =  -21073.46354330 Ry
     estimated scf accuracy    <       0.00007495 Ry

     total magnetization       =   162.49 Bohr mag/cell
     absolute magnetization    =   169.00 Bohr mag/cell

     iteration # 30     ecut=    60.00 Ry     beta= 0.20
     Davidson diagonalization with overlap
     c_bands:  5 eigenvalues not converged
     ethr =  7.31E-09,  avg # of iterations =  5.7

     negative rho (up, down):  2.548E-02 1.873E-02

     total cpu time spent up to now is    14043.7 secs

     total energy              =  -21073.46354967 Ry
     Harris-Foulkes estimate   =  -21073.46351347 Ry
     estimated scf accuracy    <       0.00006899 Ry

     total magnetization       =   162.50 Bohr mag/cell
     absolute magnetization    =   169.00 Bohr mag/cell

     iteration # 31     ecut=    60.00 Ry     beta= 0.20
     Davidson diagonalization with overlap
     c_bands:  3 eigenvalues not converged
     ethr =  6.73E-09,  avg # of iterations =  2.9

     negative rho (up, down):  2.442E-02 1.864E-02

     total cpu time spent up to now is    14269.9 secs

     total energy              =  -21073.46413841 Ry
     Harris-Foulkes estimate   =  -21073.46355159 Ry
     estimated scf accuracy    <       0.00006399 Ry

     total magnetization       =   162.50 Bohr mag/cell
     absolute magnetization    =   169.00 Bohr mag/cell

     iteration # 32     ecut=    60.00 Ry     beta= 0.20
     Davidson diagonalization with overlap
     c_bands:  3 eigenvalues not converged
     ethr =  6.24E-09,  avg # of iterations =  2.4

     negative rho (up, down):  2.482E-02 1.861E-02

     total cpu time spent up to now is    14471.9 secs

     total energy              =  -21073.46400038 Ry
     Harris-Foulkes estimate   =  -21073.46414062 Ry
     estimated scf accuracy    <       0.00004626 Ry

     total magnetization       =   162.48 Bohr mag/cell
     absolute magnetization    =   168.98 Bohr mag/cell

     iteration # 33     ecut=    60.00 Ry     beta= 0.20
     Davidson diagonalization with overlap
     c_bands:  2 eigenvalues not converged
     ethr =  4.51E-09,  avg # of iterations =  2.1

     negative rho (up, down):  2.620E-02 1.865E-02

     total cpu time spent up to now is    14658.6 secs

     total energy              =  -21073.46349232 Ry
     Harris-Foulkes estimate   =  -21073.46400173 Ry
     estimated scf accuracy    <       0.00004120 Ry

     total magnetization       =   162.47 Bohr mag/cell
     absolute magnetization    =   168.97 Bohr mag/cell

     iteration # 34     ecut=    60.00 Ry     beta= 0.20
     Davidson diagonalization with overlap
     c_bands:  2 eigenvalues not converged
     ethr =  4.02E-09,  avg # of iterations =  6.1

     negative rho (up, down):  2.558E-02 1.876E-02

     total cpu time spent up to now is    14881.9 secs

     total energy              =  -21073.46453878 Ry
     Harris-Foulkes estimate   =  -21073.46349568 Ry
     estimated scf accuracy    <       0.00002189 Ry

     total magnetization       =   162.46 Bohr mag/cell
     absolute magnetization    =   168.96 Bohr mag/cell

     iteration # 35     ecut=    60.00 Ry     beta= 0.20
     Davidson diagonalization with overlap
     ethr =  2.14E-09,  avg # of iterations =  9.3

     negative rho (up, down):  2.519E-02 1.879E-02

     total cpu time spent up to now is    15410.4 secs

     total energy              =  -21073.46514892 Ry
     Harris-Foulkes estimate   =  -21073.46455188 Ry
     estimated scf accuracy    <       0.00001496 Ry

     total magnetization       =   162.49 Bohr mag/cell
     absolute magnetization    =   169.00 Bohr mag/cell

     iteration # 36     ecut=    60.00 Ry     beta= 0.20
     Davidson diagonalization with overlap
     ethr =  1.46E-09,  avg # of iterations =  3.3

     negative rho (up, down):  2.535E-02 1.881E-02

     total cpu time spent up to now is    15571.2 secs

     total energy              =  -21073.46527757 Ry
     Harris-Foulkes estimate   =  -21073.46514999 Ry
     estimated scf accuracy    <       0.00000831 Ry

     total magnetization       =   162.51 Bohr mag/cell
     absolute magnetization    =   169.01 Bohr mag/cell

     iteration # 37     ecut=    60.00 Ry     beta= 0.20
     Davidson diagonalization with overlap
     c_bands:  4 eigenvalues not converged
     ethr =  8.11E-10,  avg # of iterations =  7.1

     negative rho (up, down):  2.550E-02 1.877E-02

     total cpu time spent up to now is    15804.2 secs

     total energy              =  -21073.46527764 Ry
     Harris-Foulkes estimate   =  -21073.46527823 Ry
     estimated scf accuracy    <       0.00000686 Ry

     total magnetization       =   162.51 Bohr mag/cell
     absolute magnetization    =   169.02 Bohr mag/cell

     iteration # 38     ecut=    60.00 Ry     beta= 0.20
     Davidson diagonalization with overlap
     c_bands:  2 eigenvalues not converged
     c_bands:  1 eigenvalues not converged
     ethr =  6.69E-10,  avg # of iterations =  6.4

     negative rho (up, down):  2.548E-02 1.875E-02

     total cpu time spent up to now is    16073.4 secs

     total energy              =  -21073.46521067 Ry
     Harris-Foulkes estimate   =  -21073.46527806 Ry
     estimated scf accuracy    <       0.00000460 Ry

     total magnetization       =   162.51 Bohr mag/cell
     absolute magnetization    =   169.02 Bohr mag/cell

     iteration # 39     ecut=    60.00 Ry     beta= 0.20
     Davidson diagonalization with overlap
     c_bands:  1 eigenvalues not converged
     c_bands:  1 eigenvalues not converged
     ethr =  4.49E-10,  avg # of iterations = 11.5

     negative rho (up, down):  2.531E-02 1.876E-02

     total cpu time spent up to now is    16858.0 secs

     total energy              =  -21073.46521448 Ry
     Harris-Foulkes estimate   =  -21073.46521236 Ry
     estimated scf accuracy    <       0.00000240 Ry

     total magnetization       =   162.51 Bohr mag/cell
     absolute magnetization    =   169.02 Bohr mag/cell

     iteration # 40     ecut=    60.00 Ry     beta= 0.20
     Davidson diagonalization with overlap
     ethr =  2.34E-10,  avg # of iterations = 11.3

     negative rho (up, down):  2.529E-02 1.883E-02

     total cpu time spent up to now is    17622.5 secs

     total energy              =  -21073.46506239 Ry
     Harris-Foulkes estimate   =  -21073.46521527 Ry
     estimated scf accuracy    <       0.00000167 Ry

     total magnetization       =   162.51 Bohr mag/cell
     absolute magnetization    =   169.02 Bohr mag/cell

     iteration # 41     ecut=    60.00 Ry     beta= 0.20
     Davidson diagonalization with overlap
     ethr =  1.63E-10,  avg # of iterations =  6.5

     negative rho (up, down):  2.515E-02 1.884E-02

     total cpu time spent up to now is    17861.8 secs

     total energy              =  -21073.46508448 Ry
     Harris-Foulkes estimate   =  -21073.46506252 Ry
     estimated scf accuracy    <       0.00000064 Ry

     total magnetization       =   162.51 Bohr mag/cell
     absolute magnetization    =   169.02 Bohr mag/cell

     iteration # 42     ecut=    60.00 Ry     beta= 0.20
     Davidson diagonalization with overlap
     ethr =  6.22E-11,  avg # of iterations = 10.7

     negative rho (up, down):  2.500E-02 1.883E-02

     total cpu time spent up to now is    18692.3 secs

     total energy              =  -21073.46524038 Ry
     Harris-Foulkes estimate   =  -21073.46508467 Ry
     estimated scf accuracy    <       0.00000033 Ry

     total magnetization       =   162.51 Bohr mag/cell
     absolute magnetization    =   169.02 Bohr mag/cell

     iteration # 43     ecut=    60.00 Ry     beta= 0.20
     Davidson diagonalization with overlap
     c_bands:  2 eigenvalues not converged
     ethr =  3.24E-11,  avg # of iterations = 13.2

     negative rho (up, down):  2.503E-02 1.885E-02

     total cpu time spent up to now is    19463.7 secs

     total energy              =  -21073.46528211 Ry
     Harris-Foulkes estimate   =  -21073.46524053 Ry
     estimated scf accuracy    <       0.00000009 Ry

     total magnetization       =   162.51 Bohr mag/cell
     absolute magnetization    =   169.02 Bohr mag/cell

     iteration # 44     ecut=    60.00 Ry     beta= 0.20
     Davidson diagonalization with overlap
     c_bands:  2 eigenvalues not converged
     ethr =  8.94E-12,  avg # of iterations = 11.3

     negative rho (up, down):  2.504E-02 1.886E-02

     total cpu time spent up to now is    20384.5 secs

     total energy              =  -21073.46531638 Ry
     Harris-Foulkes estimate   =  -21073.46528214 Ry
     estimated scf accuracy    <       0.00000005 Ry

     total magnetization       =   162.51 Bohr mag/cell
     absolute magnetization    =   169.02 Bohr mag/cell

     iteration # 45     ecut=    60.00 Ry     beta= 0.20
     Davidson diagonalization with overlap
     c_bands:  2 eigenvalues not converged
     ethr =  4.55E-12,  avg # of iterations = 10.3

     negative rho (up, down):  2.498E-02 1.886E-02

     Magnetic moment per site:
     atom:    1    charge:   12.6165    magn:    2.3626    constr:    0.0000
     atom:    2    charge:   12.6057    magn:    2.2141    constr:    0.0000
     atom:    3    charge:   12.6164    magn:    2.3654    constr:    0.0000
     atom:    4    charge:   12.6059    magn:    2.1926    constr:    0.0000
     atom:    5    charge:   12.6081    magn:    2.1782    constr:    0.0000
     atom:    6    charge:   12.6197    magn:    2.3495    constr:    0.0000
     atom:    7    charge:   12.6086    magn:    2.1821    constr:    0.0000
     atom:    8    charge:   12.6207    magn:    2.3432    constr:    0.0000
     atom:    9    charge:   12.6163    magn:    2.3601    constr:    0.0000
     atom:   10    charge:   12.6162    magn:    2.3624    constr:    0.0000
     atom:   11    charge:   12.6063    magn:    2.2047    constr:    0.0000
     atom:   12    charge:   12.6060    magn:    2.1929    constr:    0.0000
     atom:   13    charge:   12.6084    magn:    2.1748    constr:    0.0000
     atom:   14    charge:   12.6079    magn:    2.1722    constr:    0.0000
     atom:   15    charge:   12.6202    magn:    2.3549    constr:    0.0000
     atom:   16    charge:   12.6202    magn:    2.3547    constr:    0.0000
     atom:   17    charge:   12.6162    magn:    2.3654    constr:    0.0000
     atom:   18    charge:   12.6058    magn:    2.1927    constr:    0.0000
     atom:   19    charge:   12.6161    magn:    2.3656    constr:    0.0000
     atom:   20    charge:   12.6062    magn:    2.2008    constr:    0.0000
     atom:   21    charge:   12.6087    magn:    2.1818    constr:    0.0000
     atom:   22    charge:   12.6205    magn:    2.3431    constr:    0.0000
     atom:   23    charge:   12.6085    magn:    2.1962    constr:    0.0000
     atom:   24    charge:   12.6194    magn:    2.2218    constr:    0.0000
     atom:   25    charge:   12.6163    magn:    2.3671    constr:    0.0000
     atom:   26    charge:   12.6163    magn:    2.3627    constr:    0.0000
     atom:   27    charge:   12.6060    magn:    2.2042    constr:    0.0000
     atom:   28    charge:   12.6061    magn:    2.2006    constr:    0.0000
     atom:   29    charge:   12.6091    magn:    2.2030    constr:    0.0000
     atom:   30    charge:   12.6082    magn:    2.1649    constr:    0.0000
     atom:   31    charge:   12.6207    magn:    2.3859    constr:    0.0000
     atom:   32    charge:   12.6197    magn:    2.3527    constr:    0.0000
     atom:   33    charge:   12.6163    magn:    2.3617    constr:    0.0000
     atom:   34    charge:   12.6059    magn:    2.1966    constr:    0.0000
     atom:   35    charge:   12.6164    magn:    2.3625    constr:    0.0000
     atom:   36    charge:   12.6061    magn:    2.2142    constr:    0.0000
     atom:   37    charge:   12.6083    magn:    2.1750    constr:    0.0000
     atom:   38    charge:   12.6192    magn:    2.3561    constr:    0.0000
     atom:   39    charge:   12.6082    magn:    2.1784    constr:    0.0000
     atom:   40    charge:   12.6198    magn:    2.3500    constr:    0.0000
     atom:   41    charge:   12.6165    magn:    2.3728    constr:    0.0000
     atom:   42    charge:   12.6168    magn:    2.3629    constr:    0.0000
     atom:   43    charge:   12.6059    magn:    2.1910    constr:    0.0000
     atom:   44    charge:   12.6060    magn:    2.2008    constr:    0.0000
     atom:   45    charge:   12.6091    magn:    2.1765    constr:    0.0000
     atom:   46    charge:   12.6075    magn:    2.1650    constr:    0.0000
     atom:   47    charge:   12.6206    magn:    2.3461    constr:    0.0000
     atom:   48    charge:   12.6196    magn:    2.3529    constr:    0.0000
     atom:   49    charge:   12.6163    magn:    2.3656    constr:    0.0000
     atom:   50    charge:   12.6068    magn:    2.2012    constr:    0.0000
     atom:   51    charge:   12.6164    magn:    2.3618    constr:    0.0000
     atom:   52    charge:   12.6059    magn:    2.1966    constr:    0.0000
     atom:   53    charge:   12.6083    magn:    2.1967    constr:    0.0000
     atom:   54    charge:   12.6200    magn:    2.2210    constr:    0.0000
     atom:   55    charge:   12.6084    magn:    2.1749    constr:    0.0000
     atom:   56    charge:   12.6193    magn:    2.3562    constr:    0.0000
     atom:   57    charge:   12.6163    magn:    2.3601    constr:    0.0000
     atom:   58    charge:   12.6163    magn:    2.3624    constr:    0.0000
     atom:   59    charge:   12.6063    magn:    2.2047    constr:    0.0000
     atom:   60    charge:   12.6064    magn:    2.2023    constr:    0.0000
     atom:   61    charge:   12.6084    magn:    2.1747    constr:    0.0000
     atom:   62    charge:   12.6079    magn:    2.1614    constr:    0.0000
     atom:   63    charge:   12.6201    magn:    2.3553    constr:    0.0000
     atom:   64    charge:   12.6175    magn:    2.2564    constr:    0.0000
     atom:   65    charge:    0.9803    magn:   -0.0222    constr:    0.0000

     total cpu time spent up to now is    20875.1 secs

     End of self-consistent calculation

 ------ SPIN UP ------------


          k = 0.0000 0.0000 0.0000 (128403 PWs)   bands (ev):

   -95.1178 -95.1070 -95.0929 -95.0901 -95.0891 -95.0886 -95.0884 -95.0818
   -95.0773 -95.0770 -95.0770 -95.0767 -95.0713 -95.0713 -95.0710 -95.0702
   -95.0689 -95.0636 -95.0619 -95.0609 -95.0602 -95.0589 -95.0585 -95.0582
   -95.0527 -95.0487 -95.0469 -95.0449 -95.0418 -95.0374 -95.0323 -95.0210
   -94.9736 -94.9566 -94.9542 -94.9507 -94.9505 -94.9432 -94.9417 -94.9351
   -94.9342 -94.9287 -94.9275 -94.9269 -94.9264 -94.9253 -94.9247 -94.9211
   -94.9205 -94.9194 -94.9177 -94.9166 -94.9160 -94.9136 -94.9133 -94.9096
   -94.9076 -94.9066 -94.9037 -94.8969 -94.8958 -94.8933 -94.8914 -94.8777
   -61.3073 -61.2958 -61.2818 -61.2742 -61.2715 -61.2711 -61.2704 -61.2699
   -61.2695 -61.2694 -61.2687 -61.2637 -61.2605 -61.2603 -61.2593 -61.2579
   -61.2552 -61.2528 -61.2508 -61.2500 -61.2468 -61.2448 -61.2438 -61.2434
   -61.2413 -61.2386 -61.2363 -61.2316 -61.2297 -61.2279 -61.2242 -61.2238
   -61.2224 -61.2198 -61.2165 -61.2152 -61.2096 -61.2031 -61.1934 -61.1927
   -61.1927 -61.1914 -61.1901 -61.1883 -61.1846 -61.1794 -61.1543 -61.1262
   -61.1258 -61.1245 -61.1233 -61.1233 -61.1223 -61.1184 -61.1176 -61.1143
   -61.1139 -61.1123 -61.1110 -61.1104 -61.1060 -61.1054 -61.1036 -61.1031
   -61.0960 -61.0935 -61.0911 -61.0902 -61.0891 -61.0891 -61.0851 -61.0843
   -61.0796 -61.0747 -61.0728 -61.0658 -61.0654 -61.0607 -61.0590 -61.0583
   -61.0528 -61.0497 -61.0497 -61.0495 -61.0491 -61.0484 -61.0455 -61.0450
   -61.0438 -61.0433 -61.0433 -61.0366 -61.0324 -61.0315 -61.0282 -61.0277
   -61.0271 -61.0212 -61.0187 -61.0143 -61.0129 -61.0125 -61.0112 -61.0082
   -60.9969 -60.9960 -60.9937 -60.9937 -60.9935 -60.9917 -60.9882 -60.9878
   -60.9856 -60.9826 -60.9816 -60.9795 -60.9793 -60.9782 -60.9775 -60.9761
   -60.9708 -60.9690 -60.9670 -60.9653 -60.9653 -60.9647 -60.9636 -60.9623
   -60.9618 -60.9608 -60.9603 -60.9568 -60.9553 -60.9462 -60.9458 -60.9414
   -60.9387 -60.9373 -60.9368 -60.9351 -60.9304 -60.9302 -60.9298 -60.9280
   -60.9277 -60.9252 -60.9188 -60.9162 -60.9149 -60.9144 -60.9019 -60.9002
   -60.8993 -60.8989 -60.8952 -60.8941 -60.8924 -60.8899 -60.8835 -60.8834
   -60.8796 -60.8783 -60.8770 -60.8758 -60.8735 -60.8729 -60.8716 -60.8689
   -60.8673 -60.8652 -60.8611 -60.8583 -60.8582 -60.8563 -60.8536 -60.8534
   -60.8474 -60.8350 -60.8342 -60.8323 -60.8317 -60.8279 -60.8275 -60.8261
   -60.8260 -60.8247 -60.8222 -60.8207 -60.8202 -60.8194 -60.8148 -60.8139
   -14.9076 -13.8781 -13.3638 -13.1945 -13.1944 -13.1935 -12.9750 -12.7203
   -12.6695 -12.2392 -12.2115 -12.2105 -12.2091 -11.9800 -11.7838 -11.7745
   -11.6753 -11.5718 -11.5690 -11.5508 -11.5468 -11.5252 -11.4736 -11.4586
   -11.3877 -11.3831 -11.1408 -11.1370 -11.1361 -11.1019 -11.0640 -11.0342
   -10.9944 -10.9927 -10.9915 -10.9913 -10.9892 -10.9888 -10.9797 -10.9789
   -10.9777 -10.9761 -10.9685 -10.9681 -10.9680 -10.9328 -10.9297 -10.9151
   -10.9102 -10.8918 -10.8904 -10.8902 -10.8889 -10.8639 -10.8298 -10.7834
   -10.7819 -10.7815 -10.7151 -10.7097 -10.7070 -10.7069 -10.6218 -10.4298
   -10.4275 -10.3970 -10.3958 -10.3937 -10.3915 -10.2801 -10.2673 -10.2390
   -10.2366 -10.2201 -10.2196 -10.2171 -10.2107 -10.2005 -10.1996 -10.1973
   -10.1864 -10.1781 -10.1678 -10.1675 -10.1643 -10.1636 -10.1625 -10.1564
   -10.1427 -10.1416 -10.1377 -10.1245 -10.1179 -10.1173 -10.1123 -10.1034
   -10.0807 -10.0807 -10.0783 -10.0671 -10.0618 -10.0613 -10.0495 -10.0484
   -10.0250 -10.0237 -10.0218 -10.0217  -9.9896  -9.9469  -9.8772  -9.8465
    -9.8439  -9.8421  -9.8398  -9.8347  -9.7975  -9.7338  -9.7309  -9.6436
    -9.6426  -9.6388  -9.6386  -9.6349  -9.6300  -9.6071  -9.6058  -9.6031
    -9.5613  -9.5607  -9.5577  -9.5572  -9.5485  -9.5353  -9.5051  -9.5034
    -9.5022  -9.5009  -9.4998  -9.4987  -9.4974  -9.4892  -9.4618  -9.4410
    -9.4278  -9.3599  -9.3508  -9.3485  -9.3459  -9.3421  -9.3367  -9.3294
    -9.3290  -9.3071  -9.2864  -9.2805  -9.2630  -9.2288  -9.2177  -9.2155
    -9.1949  -9.1948  -9.1924  -9.1923  -9.1824  -9.1586  -9.1382  -9.1300
    -9.1241  -9.1182  -9.1081  -9.0967  -9.0964  -9.0905  -9.0784  -9.0745
    -9.0671  -9.0609  -9.0604  -9.0588  -9.0581  -9.0238  -9.0207  -9.0197
    -9.0166  -8.9376  -8.9325  -8.8205  -8.8185  -8.6757  -8.6693  -8.5435
    -8.5330  -8.5259  -8.5255  -8.5242  -8.5237  -8.5207  -8.5076  -8.5001
    -8.4960  -8.4926  -8.4860  -8.4562  -8.4461  -8.4395  -8.4139  -8.4071
    -8.3887  -8.3607  -8.3602  -8.3596  -8.3459  -8.3342  -8.3284  -8.3209
    -8.3205  -8.3194  -8.3104  -8.3091  -8.3080  -8.2569  -8.2530  -8.2441
    -8.2310  -8.2213  -8.2205  -8.2197  -8.2152  -8.1878  -8.1849  -8.1823
    -8.1809  -8.1752  -8.1750  -8.1733  -8.1616  -8.1475  -8.1366  -8.1292
    -8.1268  -8.1233  -8.1183  -8.1068  -8.1056  -8.0997  -8.0991  -8.0985
    -8.0961  -8.0959  -8.0947  -8.0866  -8.0806  -8.0774  -8.0762  -8.0745
    -8.0733  -8.0720  -8.0631  -8.0563  -8.0551  -8.0526  -8.0376  -8.0364
    -8.0354  -8.0301  -7.9958  -7.9917  -7.9897  -7.9889  -7.9887  -7.9851
    -7.9840  -7.9828  -7.9775  -7.9771  -7.9760  -7.9620  -7.9352  -7.9323
    -7.9310  -7.9303  -7.8805  -7.8792  -7.8756  -7.8699  -7.8697  -7.8474
    -7.8467  -7.8354  -7.8352  -7.7562  -7.7201  -7.7192  -7.7114  -7.7101
    -7.7089  -7.6930  -7.6909  -7.6868  -7.6866  -7.6842  -7.6829  -7.6768
    -7.6617  -7.6483  -7.6482  -7.6469  -7.6358  -7.6264  -7.6240  -7.6213
    -7.6201  -7.5351  -7.5283  -7.2747  -7.2481  -7.2171  -7.1902  -7.1767
    -7.1739  -7.1117  -7.1012  -7.1008  -7.0994  -7.0335  -7.0329  -7.0268
    -6.9656  -6.9632  -6.9621  -6.9615  -6.8990  -6.8967  -6.8916  -6.8804
    -6.8716  -6.8409  -6.7404  -6.7022  -6.6755  -6.6377  -6.6327  -6.5613
    -6.5584  -6.1202  -6.1060  -5.9550  -5.9364  -5.9104  -5.8975  -5.8961
    -5.7540  -5.3477  -5.0151  -4.9940  -4.9938  -4.9799  -4.9500  -4.9429

          k = 0.0000 0.2652 0.0000 (128375 PWs)   bands (ev):

   -95.1177 -95.1056 -95.0959 -95.0922 -95.0890 -95.0868 -95.0841 -95.0826
   -95.0819 -95.0770 -95.0770 -95.0755 -95.0725 -95.0711 -95.0697 -95.0690
   -95.0656 -95.0650 -95.0637 -95.0612 -95.0610 -95.0600 -95.0589 -95.0543
   -95.0529 -95.0481 -95.0478 -95.0450 -95.0420 -95.0377 -95.0320 -95.0212
   -94.9722 -94.9616 -94.9533 -94.9507 -94.9477 -94.9438 -94.9380 -94.9366
   -94.9340 -94.9305 -94.9292 -94.9278 -94.9266 -94.9249 -94.9232 -94.9214
   -94.9208 -94.9193 -94.9169 -94.9164 -94.9155 -94.9135 -94.9122 -94.9100
   -94.9095 -94.9058 -94.9025 -94.8995 -94.8962 -94.8942 -94.8876 -94.8789
   -61.3061 -61.2949 -61.2823 -61.2797 -61.2757 -61.2730 -61.2720 -61.2691
   -61.2678 -61.2657 -61.2646 -61.2625 -61.2612 -61.2587 -61.2585 -61.2565
   -61.2558 -61.2535 -61.2517 -61.2498 -61.2463 -61.2457 -61.2446 -61.2426
   -61.2382 -61.2376 -61.2360 -61.2321 -61.2293 -61.2242 -61.2225 -61.2209
   -61.2189 -61.2164 -61.2135 -61.2086 -61.2042 -61.2018 -61.2008 -61.1938
   -61.1920 -61.1891 -61.1875 -61.1811 -61.1784 -61.1719 -61.1520 -61.1485
   -61.1399 -61.1357 -61.1327 -61.1305 -61.1266 -61.1231 -61.1177 -61.1149
   -61.1135 -61.1124 -61.1082 -61.1076 -61.1068 -61.1052 -61.1040 -61.1007
   -61.0993 -61.0981 -61.0969 -61.0923 -61.0889 -61.0877 -61.0864 -61.0845
   -61.0829 -61.0815 -61.0803 -61.0792 -61.0767 -61.0694 -61.0639 -61.0619
   -61.0586 -61.0577 -61.0546 -61.0512 -61.0502 -61.0470 -61.0452 -61.0408
   -61.0348 -61.0338 -61.0315 -61.0299 -61.0267 -61.0255 -61.0251 -61.0213
   -61.0203 -61.0184 -61.0173 -61.0138 -61.0131 -61.0110 -61.0069 -61.0019
   -61.0007 -60.9989 -60.9978 -60.9938 -60.9933 -60.9918 -60.9909 -60.9893
   -60.9888 -60.9878 -60.9869 -60.9828 -60.9817 -60.9799 -60.9774 -60.9752
   -60.9717 -60.9706 -60.9677 -60.9665 -60.9613 -60.9597 -60.9577 -60.9573
   -60.9566 -60.9527 -60.9505 -60.9491 -60.9489 -60.9465 -60.9436 -60.9398
   -60.9386 -60.9377 -60.9362 -60.9322 -60.9304 -60.9281 -60.9274 -60.9230
   -60.9220 -60.9190 -60.9171 -60.9151 -60.9135 -60.9127 -60.9077 -60.9012
   -60.8973 -60.8961 -60.8945 -60.8934 -60.8921 -60.8900 -60.8876 -60.8858
   -60.8840 -60.8827 -60.8779 -60.8737 -60.8722 -60.8697 -60.8656 -60.8630
   -60.8617 -60.8587 -60.8584 -60.8569 -60.8564 -60.8546 -60.8528 -60.8524
   -60.8477 -60.8417 -60.8369 -60.8364 -60.8343 -60.8334 -60.8311 -60.8305
   -60.8295 -60.8280 -60.8262 -60.8254 -60.8226 -60.8211 -60.8191 -60.8153
   -14.7931 -13.9609 -13.7330 -13.3720 -13.1787 -13.0136 -12.8512 -12.6244
   -12.4643 -12.2820 -12.2472 -12.0933 -12.0000 -11.8978 -11.8551 -11.7817
   -11.6734 -11.6118 -11.5648 -11.5126 -11.4902 -11.4826 -11.4658 -11.4372
   -11.4206 -11.3730 -11.2808 -11.2052 -11.1583 -11.1390 -11.1366 -11.1158
   -11.1025 -11.0953 -11.0890 -11.0788 -11.0683 -11.0615 -11.0368 -11.0313
   -11.0108 -10.9936 -10.9903 -10.9621 -10.9566 -10.9441 -10.9209 -10.9155
   -10.8962 -10.8799 -10.8608 -10.8424 -10.8226 -10.8191 -10.8104 -10.8067
   -10.7853 -10.7322 -10.6747 -10.6599 -10.6383 -10.6290 -10.6006 -10.5747
   -10.5098 -10.4750 -10.4349 -10.3923 -10.3707 -10.3380 -10.3299 -10.2909
   -10.2433 -10.2320 -10.2292 -10.2198 -10.2089 -10.1998 -10.1880 -10.1801
   -10.1774 -10.1727 -10.1641 -10.1630 -10.1577 -10.1391 -10.1335 -10.1295
   -10.1250 -10.1162 -10.1092 -10.0958 -10.0887 -10.0841 -10.0832 -10.0797
   -10.0783 -10.0759 -10.0708 -10.0632 -10.0348 -10.0072  -9.9977  -9.9833
    -9.9773  -9.9709  -9.9551  -9.9463  -9.9370  -9.9346  -9.9169  -9.9099
    -9.8972  -9.8287  -9.8157  -9.7962  -9.7686  -9.7443  -9.7410  -9.7221
    -9.7112  -9.7076  -9.6379  -9.6334  -9.6197  -9.6131  -9.6107  -9.6000
    -9.5971  -9.5949  -9.5869  -9.5759  -9.5648  -9.5611  -9.5386  -9.5277
    -9.5268  -9.5172  -9.4924  -9.4862  -9.4781  -9.4724  -9.4325  -9.4129
    -9.3999  -9.3948  -9.3730  -9.3661  -9.3462  -9.3409  -9.3373  -9.3303
    -9.3234  -9.3197  -9.3137  -9.3013  -9.2964  -9.2844  -9.2798  -9.2741
    -9.2693  -9.2489  -9.2335  -9.2174  -9.1974  -9.1685  -9.1587  -9.1426
    -9.1275  -9.1224  -9.1041  -9.0891  -9.0819  -9.0779  -9.0650  -9.0527
    -9.0435  -9.0013  -8.9924  -8.9612  -8.9525  -8.9462  -8.9261  -8.8905
    -8.8652  -8.8614  -8.8415  -8.7898  -8.6779  -8.6605  -8.6530  -8.6158
    -8.6091  -8.5903  -8.5758  -8.5602  -8.5411  -8.5239  -8.5194  -8.5030
    -8.4945  -8.4880  -8.4732  -8.4681  -8.4656  -8.4568  -8.4499  -8.4443
    -8.4139  -8.4078  -8.3832  -8.3596  -8.3447  -8.3271  -8.3217  -8.3183
    -8.3169  -8.3127  -8.2955  -8.2935  -8.2853  -8.2839  -8.2817  -8.2707
    -8.2606  -8.2562  -8.2217  -8.2152  -8.2077  -8.2001  -8.1889  -8.1830
    -8.1715  -8.1684  -8.1633  -8.1619  -8.1534  -8.1483  -8.1443  -8.1397
    -8.1375  -8.1276  -8.1211  -8.1157  -8.1122  -8.1032  -8.1011  -8.0908
    -8.0813  -8.0716  -8.0692  -8.0612  -8.0586  -8.0572  -8.0524  -8.0499
    -8.0471  -8.0436  -8.0408  -8.0370  -8.0220  -8.0168  -8.0138  -8.0092
    -7.9986  -7.9913  -7.9883  -7.9854  -7.9831  -7.9767  -7.9739  -7.9712
    -7.9672  -7.9505  -7.9482  -7.9338  -7.9231  -7.9199  -7.9154  -7.8926
    -7.8696  -7.8656  -7.8454  -7.8292  -7.8261  -7.8237  -7.8183  -7.8142
    -7.8003  -7.7938  -7.7868  -7.7839  -7.7819  -7.7809  -7.7608  -7.7286
    -7.7104  -7.7065  -7.7043  -7.7022  -7.7002  -7.6817  -7.6786  -7.6696
    -7.6591  -7.6557  -7.6454  -7.6319  -7.6140  -7.5592  -7.5181  -7.5144
    -7.5108  -7.3828  -7.2959  -7.2811  -7.2723  -7.2549  -7.2351  -7.2265
    -7.2057  -7.2039  -7.1967  -7.1529  -7.1230  -7.1155  -7.0997  -7.0960
    -7.0845  -7.0773  -7.0710  -7.0419  -7.0363  -7.0336  -6.9913  -6.9836
    -6.9707  -6.9015  -6.8743  -6.8663  -6.7997  -6.7451  -6.5829  -6.4967
    -6.2548  -6.1658  -6.0890  -6.0302  -5.9971  -5.8877  -5.8237  -5.7246
    -5.6614  -5.6097  -5.5358  -5.4770  -5.3781  -5.3034  -5.1545  -5.0839

          k = 0.0000-0.5303 0.0000 (128388 PWs)   bands (ev):

   -95.1176 -95.1023 -95.1012 -95.0911 -95.0870 -95.0865 -95.0863 -95.0829
   -95.0821 -95.0769 -95.0763 -95.0756 -95.0751 -95.0691 -95.0679 -95.0674
   -95.0658 -95.0653 -95.0652 -95.0614 -95.0612 -95.0609 -95.0588 -95.0534
   -95.0509 -95.0500 -95.0470 -95.0458 -95.0418 -95.0381 -95.0317 -95.0213
   -94.9690 -94.9666 -94.9525 -94.9512 -94.9464 -94.9431 -94.9373 -94.9352
   -94.9341 -94.9315 -94.9303 -94.9281 -94.9277 -94.9252 -94.9239 -94.9220
   -94.9194 -94.9179 -94.9173 -94.9161 -94.9150 -94.9131 -94.9122 -94.9112
   -94.9090 -94.9053 -94.9031 -94.8998 -94.8967 -94.8949 -94.8839 -94.8812
   -61.3047 -61.2921 -61.2884 -61.2792 -61.2782 -61.2741 -61.2723 -61.2679
   -61.2668 -61.2653 -61.2635 -61.2619 -61.2605 -61.2591 -61.2588 -61.2556
   -61.2542 -61.2521 -61.2511 -61.2494 -61.2484 -61.2463 -61.2441 -61.2423
   -61.2377 -61.2356 -61.2333 -61.2331 -61.2309 -61.2243 -61.2200 -61.2148
   -61.2106 -61.2091 -61.2062 -61.2055 -61.2043 -61.2023 -61.2010 -61.1983
   -61.1881 -61.1852 -61.1764 -61.1703 -61.1692 -61.1680 -61.1641 -61.1584
   -61.1494 -61.1487 -61.1476 -61.1406 -61.1374 -61.1367 -61.1286 -61.1252
   -61.1125 -61.1096 -61.1093 -61.1081 -61.1049 -61.1034 -61.1022 -61.0996
   -61.0983 -61.0947 -61.0904 -61.0893 -61.0886 -61.0880 -61.0829 -61.0821
   -61.0805 -61.0798 -61.0792 -61.0778 -61.0759 -61.0701 -61.0690 -61.0677
   -61.0654 -61.0651 -61.0637 -61.0589 -61.0574 -61.0573 -61.0563 -61.0558
   -61.0473 -61.0429 -61.0332 -61.0314 -61.0234 -61.0205 -61.0182 -61.0172
   -61.0161 -61.0135 -61.0091 -61.0081 -61.0052 -61.0027 -60.9987 -60.9971
   -60.9940 -60.9923 -60.9913 -60.9904 -60.9901 -60.9890 -60.9884 -60.9877
   -60.9870 -60.9860 -60.9842 -60.9819 -60.9786 -60.9767 -60.9752 -60.9744
   -60.9735 -60.9719 -60.9708 -60.9692 -60.9675 -60.9657 -60.9626 -60.9624
   -60.9527 -60.9526 -60.9516 -60.9502 -60.9481 -60.9460 -60.9406 -60.9386
   -60.9352 -60.9343 -60.9297 -60.9281 -60.9236 -60.9228 -60.9218 -60.9204
   -60.9191 -60.9171 -60.9148 -60.9147 -60.9126 -60.9113 -60.9093 -60.9085
   -60.9059 -60.9012 -60.8945 -60.8935 -60.8903 -60.8900 -60.8884 -60.8880
   -60.8812 -60.8806 -60.8704 -60.8686 -60.8600 -60.8594 -60.8584 -60.8566
   -60.8554 -60.8545 -60.8543 -60.8536 -60.8518 -60.8511 -60.8498 -60.8497
   -60.8482 -60.8475 -60.8471 -60.8464 -60.8443 -60.8436 -60.8409 -60.8404
   -60.8380 -60.8361 -60.8290 -60.8285 -60.8258 -60.8215 -60.8187 -60.8161
   -14.4952 -14.4163 -13.6766 -13.2984 -13.2819 -13.2167 -12.7877 -12.3997
   -12.3850 -12.2490 -12.1580 -11.8897 -11.8882 -11.8613 -11.7695 -11.7554
   -11.7058 -11.6222 -11.6162 -11.5913 -11.5462 -11.4647 -11.4206 -11.3511
   -11.3498 -11.3379 -11.3330 -11.3220 -11.3184 -11.2920 -11.2904 -11.2815
   -11.2644 -11.1926 -11.1901 -11.1302 -11.1237 -11.1191 -11.0232 -10.9692
   -10.9681 -10.9628 -10.9600 -10.8935 -10.8866 -10.8810 -10.8726 -10.8631
   -10.8610 -10.8596 -10.8464 -10.8379 -10.8369 -10.8356 -10.7995 -10.7225
   -10.7203 -10.7195 -10.7031 -10.6980 -10.6950 -10.6912 -10.5966 -10.5919
   -10.5626 -10.5247 -10.5040 -10.4844 -10.4757 -10.4101 -10.3712 -10.2657
   -10.2577 -10.2258 -10.2250 -10.2032 -10.2012 -10.1881 -10.1801 -10.1785
   -10.1609 -10.1593 -10.1535 -10.1507 -10.1463 -10.1443 -10.1370 -10.1188
   -10.1167 -10.1159 -10.1148 -10.1146 -10.0994 -10.0732 -10.0632 -10.0210
   -10.0036  -9.9868  -9.9848  -9.9759  -9.9630  -9.9488  -9.9412  -9.9311
    -9.9272  -9.9214  -9.9195  -9.9183  -9.9167  -9.9149  -9.9105  -9.9057
    -9.8897  -9.8588  -9.8567  -9.8547  -9.8529  -9.8492  -9.7884  -9.7000
    -9.6984  -9.6517  -9.6379  -9.6022  -9.5998  -9.5989  -9.5963  -9.5877
    -9.5853  -9.5761  -9.5751  -9.5687  -9.5655  -9.5622  -9.5535  -9.5509
    -9.5415  -9.5390  -9.5380  -9.5116  -9.5071  -9.5037  -9.4971  -9.4955
    -9.4756  -9.4463  -9.4405  -9.4349  -9.4301  -9.4116  -9.4047  -9.3756
    -9.3715  -9.3650  -9.3617  -9.3580  -9.3256  -9.3119  -9.2979  -9.2796
    -9.2600  -9.2563  -9.2421  -9.2318  -9.1713  -9.1211  -9.1106  -9.1047
    -9.0953  -9.0942  -9.0769  -9.0719  -9.0654  -9.0620  -9.0393  -9.0276
    -8.9626  -8.9259  -8.8177  -8.7923  -8.7908  -8.7878  -8.7780  -8.7735
    -8.7563  -8.7293  -8.7248  -8.7136  -8.6837  -8.6389  -8.6338  -8.6245
    -8.6222  -8.6089  -8.5993  -8.5971  -8.5950  -8.5923  -8.5768  -8.5757
    -8.5711  -8.5642  -8.5530  -8.5358  -8.4604  -8.4587  -8.4323  -8.4290
    -8.4254  -8.4241  -8.4171  -8.4159  -8.3933  -8.3847  -8.3165  -8.3134
    -8.2975  -8.2941  -8.2874  -8.2867  -8.2857  -8.2769  -8.2754  -8.2744
    -8.2721  -8.2706  -8.2659  -8.2655  -8.2468  -8.2434  -8.2414  -8.2404
    -8.2370  -8.2349  -8.2344  -8.2305  -8.1539  -8.1520  -8.1202  -8.1154
    -8.1123  -8.1111  -8.1103  -8.1086  -8.0907  -8.0875  -8.0815  -8.0763
    -8.0735  -8.0710  -8.0671  -8.0656  -8.0606  -8.0578  -8.0544  -8.0534
    -8.0461  -8.0338  -8.0296  -8.0276  -7.9958  -7.9933  -7.9868  -7.9843
    -7.9770  -7.9748  -7.9317  -7.9296  -7.9242  -7.9199  -7.9171  -7.9149
    -7.8977  -7.8831  -7.8804  -7.8622  -7.8384  -7.8348  -7.8335  -7.8313
    -7.8297  -7.8280  -7.8237  -7.8165  -7.8148  -7.8142  -7.8107  -7.8081
    -7.8055  -7.8028  -7.8012  -7.7972  -7.7962  -7.7938  -7.7893  -7.7879
    -7.7307  -7.7241  -7.7008  -7.6974  -7.6377  -7.6269  -7.5857  -7.5804
    -7.5429  -7.5385  -7.5347  -7.5314  -7.4293  -7.4116  -7.4109  -7.4093
    -7.3963  -7.3834  -7.3794  -7.3295  -7.3276  -7.3216  -7.3120  -7.3090
    -7.2837  -7.2813  -7.2569  -7.2534  -7.2389  -7.2364  -7.1579  -7.1540
    -7.1262  -7.1233  -7.0894  -7.0832  -7.0615  -7.0482  -7.0414  -7.0396
    -7.0162  -7.0123  -7.0108  -6.9984  -6.9927  -6.9714  -6.7023  -6.6559
    -6.5807  -6.5099  -6.1617  -6.0100  -5.9930  -5.9875  -5.6791  -5.6777
    -5.5657  -5.3653  -5.3414  -5.3229  -5.2332  -5.2005  -5.1464  -5.1164

          k = 0.2500-0.0884 0.0000 (128371 PWs)   bands (ev):

   -95.1177 -95.1056 -95.0959 -95.0922 -95.0890 -95.0868 -95.0843 -95.0826
   -95.0819 -95.0770 -95.0769 -95.0755 -95.0725 -95.0711 -95.0697 -95.0691
   -95.0656 -95.0650 -95.0637 -95.0612 -95.0610 -95.0600 -95.0589 -95.0543
   -95.0530 -95.0481 -95.0478 -95.0450 -95.0419 -95.0377 -95.0320 -95.0212
   -94.9722 -94.9616 -94.9533 -94.9507 -94.9477 -94.9438 -94.9380 -94.9366
   -94.9340 -94.9305 -94.9291 -94.9279 -94.9267 -94.9248 -94.9232 -94.9214
   -94.9208 -94.9193 -94.9169 -94.9164 -94.9155 -94.9135 -94.9122 -94.9100
   -94.9095 -94.9058 -94.9025 -94.8995 -94.8962 -94.8941 -94.8876 -94.8789
   -61.3061 -61.2949 -61.2822 -61.2799 -61.2757 -61.2730 -61.2719 -61.2691
   -61.2678 -61.2657 -61.2646 -61.2625 -61.2612 -61.2587 -61.2585 -61.2565
   -61.2557 -61.2534 -61.2518 -61.2497 -61.2463 -61.2458 -61.2446 -61.2426
   -61.2382 -61.2376 -61.2360 -61.2321 -61.2293 -61.2244 -61.2224 -61.2209
   -61.2188 -61.2165 -61.2134 -61.2087 -61.2042 -61.2017 -61.2008 -61.1938
   -61.1920 -61.1891 -61.1875 -61.1811 -61.1784 -61.1719 -61.1520 -61.1485
   -61.1399 -61.1356 -61.1327 -61.1305 -61.1266 -61.1231 -61.1177 -61.1149
   -61.1135 -61.1124 -61.1082 -61.1076 -61.1068 -61.1052 -61.1040 -61.1007
   -61.0993 -61.0981 -61.0969 -61.0923 -61.0889 -61.0877 -61.0863 -61.0845
   -61.0829 -61.0815 -61.0803 -61.0792 -61.0767 -61.0694 -61.0639 -61.0619
   -61.0586 -61.0577 -61.0546 -61.0512 -61.0502 -61.0470 -61.0451 -61.0408
   -61.0348 -61.0338 -61.0315 -61.0299 -61.0267 -61.0254 -61.0251 -61.0214
   -61.0203 -61.0183 -61.0173 -61.0138 -61.0131 -61.0110 -61.0069 -61.0019
   -61.0007 -60.9989 -60.9978 -60.9938 -60.9933 -60.9918 -60.9909 -60.9893
   -60.9888 -60.9878 -60.9870 -60.9828 -60.9817 -60.9799 -60.9774 -60.9752
   -60.9718 -60.9706 -60.9677 -60.9665 -60.9613 -60.9597 -60.9577 -60.9573
   -60.9566 -60.9527 -60.9505 -60.9491 -60.9489 -60.9465 -60.9436 -60.9398
   -60.9386 -60.9377 -60.9362 -60.9322 -60.9304 -60.9281 -60.9274 -60.9230
   -60.9220 -60.9190 -60.9171 -60.9151 -60.9135 -60.9127 -60.9077 -60.9011
   -60.8973 -60.8961 -60.8944 -60.8934 -60.8921 -60.8900 -60.8876 -60.8858
   -60.8841 -60.8827 -60.8779 -60.8738 -60.8722 -60.8698 -60.8656 -60.8629
   -60.8618 -60.8587 -60.8585 -60.8569 -60.8564 -60.8546 -60.8528 -60.8524
   -60.8477 -60.8417 -60.8369 -60.8364 -60.8343 -60.8334 -60.8311 -60.8305
   -60.8295 -60.8280 -60.8262 -60.8254 -60.8226 -60.8211 -60.8191 -60.8153
   -14.7931 -13.9609 -13.7330 -13.3721 -13.1787 -13.0136 -12.8511 -12.6244
   -12.4643 -12.2820 -12.2472 -12.0933 -12.0000 -11.8978 -11.8551 -11.7818
   -11.6734 -11.6118 -11.5648 -11.5126 -11.4902 -11.4826 -11.4658 -11.4372
   -11.4206 -11.3730 -11.2808 -11.2052 -11.1583 -11.1390 -11.1366 -11.1158
   -11.1025 -11.0953 -11.0890 -11.0788 -11.0683 -11.0615 -11.0368 -11.0313
   -11.0108 -10.9936 -10.9902 -10.9621 -10.9566 -10.9441 -10.9208 -10.9155
   -10.8962 -10.8799 -10.8608 -10.8424 -10.8226 -10.8191 -10.8104 -10.8067
   -10.7853 -10.7322 -10.6747 -10.6599 -10.6382 -10.6290 -10.6007 -10.5746
   -10.5098 -10.4750 -10.4349 -10.3923 -10.3707 -10.3380 -10.3299 -10.2909
   -10.2433 -10.2320 -10.2293 -10.2198 -10.2089 -10.1998 -10.1879 -10.1801
   -10.1774 -10.1727 -10.1641 -10.1630 -10.1576 -10.1391 -10.1334 -10.1295
   -10.1250 -10.1162 -10.1093 -10.0958 -10.0887 -10.0840 -10.0832 -10.0797
   -10.0783 -10.0759 -10.0708 -10.0632 -10.0348 -10.0073  -9.9977  -9.9833
    -9.9773  -9.9709  -9.9551  -9.9463  -9.9370  -9.9347  -9.9169  -9.9099
    -9.8971  -9.8287  -9.8157  -9.7961  -9.7686  -9.7443  -9.7410  -9.7220
    -9.7112  -9.7075  -9.6379  -9.6333  -9.6197  -9.6131  -9.6107  -9.5999
    -9.5971  -9.5950  -9.5869  -9.5759  -9.5648  -9.5611  -9.5386  -9.5277
    -9.5268  -9.5172  -9.4923  -9.4861  -9.4781  -9.4723  -9.4325  -9.4129
    -9.3999  -9.3948  -9.3730  -9.3661  -9.3463  -9.3408  -9.3373  -9.3303
    -9.3235  -9.3196  -9.3137  -9.3013  -9.2964  -9.2844  -9.2797  -9.2741
    -9.2693  -9.2489  -9.2335  -9.2174  -9.1976  -9.1686  -9.1587  -9.1427
    -9.1275  -9.1224  -9.1041  -9.0889  -9.0819  -9.0779  -9.0649  -9.0527
    -9.0435  -9.0013  -8.9924  -8.9612  -8.9525  -8.9462  -8.9262  -8.8905
    -8.8652  -8.8614  -8.8415  -8.7899  -8.6779  -8.6605  -8.6531  -8.6158
    -8.6091  -8.5903  -8.5758  -8.5603  -8.5411  -8.5239  -8.5194  -8.5031
    -8.4945  -8.4880  -8.4732  -8.4681  -8.4656  -8.4568  -8.4499  -8.4443
    -8.4139  -8.4079  -8.3832  -8.3596  -8.3447  -8.3270  -8.3217  -8.3183
    -8.3169  -8.3127  -8.2955  -8.2935  -8.2853  -8.2839  -8.2817  -8.2707
    -8.2606  -8.2562  -8.2217  -8.2152  -8.2077  -8.2001  -8.1889  -8.1829
    -8.1714  -8.1685  -8.1633  -8.1619  -8.1534  -8.1483  -8.1444  -8.1398
    -8.1374  -8.1276  -8.1211  -8.1157  -8.1123  -8.1032  -8.1011  -8.0908
    -8.0812  -8.0716  -8.0692  -8.0612  -8.0586  -8.0572  -8.0524  -8.0499
    -8.0472  -8.0436  -8.0407  -8.0370  -8.0220  -8.0168  -8.0138  -8.0092
    -7.9986  -7.9913  -7.9883  -7.9854  -7.9831  -7.9768  -7.9739  -7.9712
    -7.9672  -7.9505  -7.9483  -7.9338  -7.9231  -7.9199  -7.9154  -7.8926
    -7.8695  -7.8657  -7.8454  -7.8291  -7.8260  -7.8238  -7.8183  -7.8142
    -7.8003  -7.7938  -7.7868  -7.7839  -7.7818  -7.7809  -7.7608  -7.7286
    -7.7103  -7.7065  -7.7043  -7.7022  -7.7002  -7.6818  -7.6785  -7.6696
    -7.6591  -7.6557  -7.6454  -7.6319  -7.6140  -7.5592  -7.5181  -7.5144
    -7.5108  -7.3828  -7.2959  -7.2811  -7.2722  -7.2549  -7.2351  -7.2265
    -7.2057  -7.2040  -7.1967  -7.1529  -7.1230  -7.1155  -7.0997  -7.0960
    -7.0845  -7.0773  -7.0709  -7.0420  -7.0363  -7.0336  -6.9913  -6.9836
    -6.9707  -6.9015  -6.8743  -6.8663  -6.7998  -6.7450  -6.5828  -6.4967
    -6.2548  -6.1657  -6.0890  -6.0302  -5.9976  -5.8877  -5.8237  -5.7245
    -5.6614  -5.6097  -5.5358  -5.4771  -5.3782  -5.3034  -5.1563  -5.0843

          k = 0.2500 0.1768 0.0000 (128340 PWs)   bands (ev):

   -95.1176 -95.1047 -95.0942 -95.0931 -95.0914 -95.0883 -95.0844 -95.0826
   -95.0816 -95.0802 -95.0729 -95.0716 -95.0713 -95.0710 -95.0702 -95.0700
   -95.0665 -95.0652 -95.0650 -95.0637 -95.0621 -95.0590 -95.0549 -95.0538
   -95.0537 -95.0492 -95.0464 -95.0450 -95.0436 -95.0374 -95.0317 -95.0213
   -94.9714 -94.9590 -94.9575 -94.9538 -94.9455 -94.9451 -94.9355 -94.9346
   -94.9319 -94.9295 -94.9287 -94.9269 -94.9266 -94.9260 -94.9255 -94.9251
   -94.9202 -94.9201 -94.9167 -94.9146 -94.9137 -94.9129 -94.9124 -94.9120
   -94.9113 -94.9072 -94.9012 -94.9004 -94.8954 -94.8904 -94.8893 -94.8797
   -61.3060 -61.2946 -61.2810 -61.2786 -61.2761 -61.2752 -61.2740 -61.2683
   -61.2672 -61.2656 -61.2646 -61.2634 -61.2590 -61.2586 -61.2576 -61.2568
   -61.2539 -61.2523 -61.2515 -61.2508 -61.2499 -61.2484 -61.2459 -61.2385
   -61.2385 -61.2364 -61.2345 -61.2332 -61.2302 -61.2235 -61.2204 -61.2167
   -61.2137 -61.2109 -61.2078 -61.2072 -61.2010 -61.2009 -61.1883 -61.1870
   -61.1860 -61.1845 -61.1838 -61.1815 -61.1789 -61.1738 -61.1487 -61.1470
   -61.1442 -61.1426 -61.1416 -61.1399 -61.1384 -61.1318 -61.1314 -61.1267
   -61.1238 -61.1217 -61.1213 -61.1088 -61.1064 -61.1051 -61.1027 -61.1024
   -61.0985 -61.0984 -61.0977 -61.0940 -61.0921 -61.0916 -61.0878 -61.0869
   -61.0861 -61.0850 -61.0798 -61.0794 -61.0713 -61.0659 -61.0638 -61.0618
   -61.0612 -61.0549 -61.0507 -61.0493 -61.0479 -61.0465 -61.0452 -61.0437
   -61.0414 -61.0388 -61.0341 -61.0296 -61.0294 -61.0235 -61.0197 -61.0183
   -61.0172 -61.0124 -61.0103 -61.0097 -61.0095 -61.0073 -61.0060 -61.0030
   -61.0021 -61.0016 -61.0007 -60.9988 -60.9969 -60.9947 -60.9936 -60.9920
   -60.9891 -60.9880 -60.9874 -60.9815 -60.9767 -60.9761 -60.9719 -60.9707
   -60.9706 -60.9674 -60.9653 -60.9617 -60.9606 -60.9600 -60.9599 -60.9592
   -60.9563 -60.9547 -60.9460 -60.9455 -60.9434 -60.9427 -60.9402 -60.9385
   -60.9374 -60.9351 -60.9324 -60.9259 -60.9250 -60.9245 -60.9237 -60.9217
   -60.9201 -60.9197 -60.9194 -60.9143 -60.9101 -60.9094 -60.9090 -60.9054
   -60.9022 -60.9009 -60.8989 -60.8937 -60.8934 -60.8836 -60.8809 -60.8794
   -60.8752 -60.8742 -60.8727 -60.8716 -60.8714 -60.8698 -60.8657 -60.8649
   -60.8644 -60.8599 -60.8589 -60.8575 -60.8552 -60.8534 -60.8525 -60.8523
   -60.8477 -60.8397 -60.8385 -60.8368 -60.8361 -60.8359 -60.8346 -60.8345
   -60.8335 -60.8334 -60.8306 -60.8294 -60.8283 -60.8259 -60.8246 -60.8188
   -14.7545 -13.8556 -13.5687 -13.5627 -13.5372 -13.0601 -12.6155 -12.6047
   -12.4614 -12.4511 -12.2974 -12.0180 -11.9576 -11.8521 -11.7927 -11.6539
   -11.5355 -11.5296 -11.5257 -11.4941 -11.4895 -11.4165 -11.4065 -11.4016
   -11.3991 -11.3065 -11.3020 -11.3010 -11.2626 -11.2023 -11.1691 -11.1681
   -11.1387 -11.0809 -11.0789 -11.0748 -11.0512 -11.0405 -11.0228 -11.0189
   -11.0157 -11.0126 -11.0096 -11.0048 -11.0039 -11.0014 -11.0006 -10.9447
   -10.9265 -10.9164 -10.9156 -10.8731 -10.8421 -10.8345 -10.8302 -10.7981
   -10.7275 -10.6596 -10.6577 -10.6358 -10.6247 -10.5560 -10.5398 -10.5386
   -10.5325 -10.5267 -10.5067 -10.4591 -10.3619 -10.3597 -10.3219 -10.3006
   -10.2557 -10.2525 -10.2412 -10.2381 -10.2356 -10.2279 -10.2256 -10.2179
   -10.2173 -10.2129 -10.2098 -10.2051 -10.2007 -10.1935 -10.1741 -10.1570
   -10.1426 -10.0943 -10.0934 -10.0902 -10.0806 -10.0635 -10.0328 -10.0245
   -10.0235 -10.0210 -10.0175 -10.0123  -9.9969  -9.9958  -9.9800  -9.9684
    -9.9468  -9.9234  -9.9164  -9.8832  -9.8761  -9.8739  -9.8583  -9.8384
    -9.8281  -9.8195  -9.8115  -9.8063  -9.8052  -9.8022  -9.8003  -9.7944
    -9.7835  -9.7778  -9.7161  -9.7084  -9.6935  -9.6791  -9.6164  -9.6151
    -9.6076  -9.6038  -9.6012  -9.5986  -9.5861  -9.5776  -9.5429  -9.5370
    -9.5314  -9.5243  -9.5160  -9.4960  -9.4957  -9.4717  -9.4626  -9.4607
    -9.4468  -9.4436  -9.4250  -9.4150  -9.3784  -9.3553  -9.3346  -9.3320
    -9.3287  -9.3210  -9.3150  -9.3058  -9.3026  -9.2624  -9.2333  -9.2091
    -9.2082  -9.2069  -9.1999  -9.1936  -9.1872  -9.1858  -9.1833  -9.1750
    -9.1740  -9.1713  -9.1708  -9.1613  -9.1537  -9.1487  -9.1218  -9.1075
    -9.0547  -9.0384  -8.9407  -8.8896  -8.8688  -8.8593  -8.8518  -8.8498
    -8.8360  -8.7817  -8.7224  -8.7041  -8.6807  -8.6642  -8.6398  -8.6126
    -8.6067  -8.6066  -8.5871  -8.5817  -8.5437  -8.5324  -8.5143  -8.5102
    -8.5016  -8.4939  -8.4865  -8.4829  -8.4367  -8.4228  -8.4200  -8.4125
    -8.4064  -8.4031  -8.3881  -8.3874  -8.3830  -8.3703  -8.3668  -8.3532
    -8.3404  -8.3340  -8.2950  -8.2812  -8.2653  -8.2605  -8.2575  -8.2499
    -8.2434  -8.2371  -8.2352  -8.2352  -8.2258  -8.2121  -8.2076  -8.1945
    -8.1666  -8.1645  -8.1633  -8.1556  -8.1547  -8.1443  -8.1428  -8.1367
    -8.1340  -8.1295  -8.1291  -8.0881  -8.0857  -8.0796  -8.0784  -8.0742
    -8.0725  -8.0659  -8.0626  -8.0369  -8.0324  -8.0273  -8.0148  -8.0104
    -8.0082  -8.0006  -7.9994  -7.9930  -7.9808  -7.9781  -7.9627  -7.9608
    -7.9465  -7.9379  -7.9366  -7.9335  -7.9314  -7.9298  -7.9290  -7.9257
    -7.9244  -7.8999  -7.8990  -7.8938  -7.8927  -7.8858  -7.8815  -7.8687
    -7.8456  -7.8450  -7.8434  -7.8422  -7.8417  -7.8399  -7.8265  -7.8255
    -7.8154  -7.8036  -7.8025  -7.7965  -7.7958  -7.7702  -7.7697  -7.7430
    -7.7329  -7.7304  -7.6967  -7.6826  -7.6822  -7.6591  -7.6572  -7.6423
    -7.6153  -7.6134  -7.6033  -7.5998  -7.5501  -7.5188  -7.5107  -7.4930
    -7.4904  -7.3919  -7.3454  -7.3230  -7.2671  -7.2602  -7.2358  -7.2309
    -7.1622  -7.1533  -7.1507  -7.1000  -7.0966  -7.0886  -7.0776  -7.0705
    -7.0629  -7.0619  -7.0611  -7.0522  -7.0160  -6.9750  -6.9722  -6.9667
    -6.8843  -6.8688  -6.7581  -6.7578  -6.6650  -6.6562  -6.6556  -6.4385
    -6.3266  -6.2282  -6.1269  -6.0842  -6.0811  -6.0140  -5.9920  -5.9619
    -5.9557  -5.9539  -5.9165  -5.8974  -5.7058  -5.6302  -5.4585  -5.3925

          k = 0.2500-0.6187 0.0000 (128424 PWs)   bands (ev):

   -95.1176 -95.1014 -95.0995 -95.0930 -95.0899 -95.0892 -95.0865 -95.0812
   -95.0801 -95.0766 -95.0760 -95.0742 -95.0710 -95.0706 -95.0695 -95.0693
   -95.0679 -95.0661 -95.0653 -95.0619 -95.0604 -95.0586 -95.0565 -95.0538
   -95.0523 -95.0504 -95.0469 -95.0449 -95.0421 -95.0385 -95.0315 -95.0215
   -94.9684 -94.9647 -94.9583 -94.9527 -94.9444 -94.9402 -94.9366 -94.9355
   -94.9322 -94.9315 -94.9306 -94.9284 -94.9274 -94.9253 -94.9245 -94.9218
   -94.9211 -94.9193 -94.9181 -94.9149 -94.9142 -94.9130 -94.9116 -94.9105
   -94.9095 -94.9064 -94.9046 -94.9018 -94.8952 -94.8908 -94.8850 -94.8820
   -61.3047 -61.2919 -61.2853 -61.2831 -61.2781 -61.2755 -61.2708 -61.2686
   -61.2666 -61.2643 -61.2632 -61.2607 -61.2602 -61.2585 -61.2575 -61.2550
   -61.2545 -61.2541 -61.2530 -61.2504 -61.2494 -61.2465 -61.2446 -61.2398
   -61.2374 -61.2355 -61.2345 -61.2322 -61.2302 -61.2246 -61.2194 -61.2083
   -61.2052 -61.2019 -61.1991 -61.1980 -61.1976 -61.1961 -61.1940 -61.1893
   -61.1868 -61.1808 -61.1774 -61.1756 -61.1725 -61.1650 -61.1620 -61.1586
   -61.1575 -61.1563 -61.1540 -61.1516 -61.1458 -61.1399 -61.1328 -61.1298
   -61.1285 -61.1258 -61.1150 -61.1143 -61.1107 -61.1077 -61.1050 -61.1024
   -61.1010 -61.0992 -61.0968 -61.0916 -61.0851 -61.0837 -61.0826 -61.0817
   -61.0807 -61.0799 -61.0785 -61.0770 -61.0760 -61.0742 -61.0721 -61.0691
   -61.0655 -61.0636 -61.0620 -61.0587 -61.0553 -61.0488 -61.0485 -61.0469
   -61.0459 -61.0440 -61.0412 -61.0396 -61.0305 -61.0260 -61.0187 -61.0178
   -61.0158 -61.0119 -61.0085 -61.0028 -61.0010 -61.0005 -60.9997 -60.9969
   -60.9960 -60.9944 -60.9933 -60.9922 -60.9903 -60.9898 -60.9878 -60.9870
   -60.9857 -60.9812 -60.9801 -60.9788 -60.9755 -60.9744 -60.9732 -60.9711
   -60.9698 -60.9685 -60.9682 -60.9669 -60.9641 -60.9632 -60.9616 -60.9611
   -60.9587 -60.9547 -60.9496 -60.9477 -60.9444 -60.9406 -60.9371 -60.9318
   -60.9308 -60.9299 -60.9294 -60.9269 -60.9265 -60.9230 -60.9224 -60.9215
   -60.9209 -60.9185 -60.9172 -60.9145 -60.9110 -60.9106 -60.9040 -60.9019
   -60.9015 -60.9001 -60.8980 -60.8944 -60.8912 -60.8882 -60.8873 -60.8760
   -60.8732 -60.8701 -60.8677 -60.8653 -60.8610 -60.8604 -60.8585 -60.8576
   -60.8570 -60.8562 -60.8542 -60.8535 -60.8525 -60.8520 -60.8498 -60.8495
   -60.8488 -60.8476 -60.8473 -60.8464 -60.8459 -60.8434 -60.8427 -60.8423
   -60.8401 -60.8382 -60.8349 -60.8341 -60.8333 -60.8290 -60.8277 -60.8213
   -14.4978 -14.2032 -13.9205 -13.5650 -13.1434 -13.0569 -12.8371 -12.6290
   -12.4873 -12.0104 -11.9584 -11.8529 -11.8304 -11.8030 -11.7578 -11.7086
   -11.6869 -11.6037 -11.5703 -11.5220 -11.5057 -11.4975 -11.4545 -11.3967
   -11.3683 -11.3594 -11.3475 -11.3186 -11.3147 -11.3098 -11.2939 -11.2475
   -11.1948 -11.1886 -11.1755 -11.1671 -11.1522 -11.1210 -11.0995 -11.0754
   -11.0694 -11.0592 -11.0397 -11.0056 -10.9453 -10.9283 -10.9042 -10.8815
   -10.8699 -10.8318 -10.8231 -10.8027 -10.7693 -10.7433 -10.7268 -10.7167
   -10.7090 -10.6970 -10.6693 -10.6461 -10.6386 -10.6245 -10.5834 -10.5731
   -10.5518 -10.5369 -10.5288 -10.5213 -10.4742 -10.4311 -10.4226 -10.3654
   -10.3294 -10.2680 -10.2569 -10.2438 -10.2344 -10.2324 -10.2287 -10.2153
   -10.2101 -10.2064 -10.1781 -10.1350 -10.1312 -10.0968 -10.0881 -10.0844
   -10.0776 -10.0676 -10.0579 -10.0274 -10.0239 -10.0212 -10.0169 -10.0118
   -10.0094 -10.0068  -9.9998  -9.9934  -9.9815  -9.9682  -9.9546  -9.9353
    -9.9292  -9.9228  -9.9038  -9.8953  -9.8864  -9.8793  -9.8735  -9.8649
    -9.8511  -9.8390  -9.8201  -9.7933  -9.7826  -9.7785  -9.7745  -9.7613
    -9.7564  -9.7492  -9.7434  -9.7404  -9.7218  -9.7108  -9.7036  -9.7010
    -9.6978  -9.6915  -9.6721  -9.6607  -9.6460  -9.6326  -9.6210  -9.5982
    -9.5875  -9.5357  -9.4861  -9.4634  -9.4547  -9.4528  -9.4494  -9.4336
    -9.4194  -9.4169  -9.4134  -9.4070  -9.4007  -9.3852  -9.3795  -9.3720
    -9.3670  -9.3645  -9.3595  -9.3547  -9.3186  -9.3137  -9.3034  -9.2932
    -9.2878  -9.2824  -9.2425  -9.2011  -9.1815  -9.1542  -9.1429  -9.1208
    -9.1099  -9.0786  -9.0596  -9.0343  -9.0201  -9.0166  -8.9644  -8.9371
    -8.9107  -8.8929  -8.8717  -8.8639  -8.8376  -8.8041  -8.7754  -8.7641
    -8.7456  -8.7196  -8.7077  -8.7040  -8.6982  -8.6805  -8.6680  -8.6531
    -8.6504  -8.6390  -8.6338  -8.6244  -8.5854  -8.5684  -8.5491  -8.5268
    -8.5179  -8.5031  -8.4890  -8.4746  -8.4707  -8.4577  -8.4410  -8.4294
    -8.4245  -8.4133  -8.4016  -8.3940  -8.3908  -8.3768  -8.3656  -8.3605
    -8.3508  -8.3196  -8.3152  -8.2978  -8.2875  -8.2791  -8.2721  -8.2695
    -8.2648  -8.2631  -8.2582  -8.2545  -8.2421  -8.2336  -8.2312  -8.2237
    -8.2116  -8.1890  -8.1678  -8.1628  -8.1545  -8.1436  -8.1370  -8.1264
    -8.1208  -8.1180  -8.1095  -8.1087  -8.0947  -8.0897  -8.0867  -8.0737
    -8.0578  -8.0497  -8.0448  -8.0393  -8.0337  -8.0324  -8.0271  -8.0005
    -7.9957  -7.9913  -7.9865  -7.9842  -7.9801  -7.9708  -7.9557  -7.9501
    -7.9468  -7.9446  -7.9391  -7.9293  -7.9267  -7.9125  -7.9111  -7.8999
    -7.8899  -7.8828  -7.8801  -7.8762  -7.8722  -7.8597  -7.8551  -7.8488
    -7.8473  -7.8437  -7.8359  -7.8323  -7.8305  -7.8168  -7.7972  -7.7752
    -7.7710  -7.7592  -7.7508  -7.7399  -7.7307  -7.7212  -7.7079  -7.6900
    -7.6858  -7.6685  -7.6286  -7.5998  -7.5854  -7.5792  -7.5710  -7.5659
    -7.5221  -7.4906  -7.4849  -7.4763  -7.4343  -7.4253  -7.4151  -7.4070
    -7.3995  -7.3624  -7.3405  -7.3352  -7.3289  -7.3211  -7.2924  -7.2573
    -7.2518  -7.2438  -7.2043  -7.1982  -7.1881  -7.1854  -7.1501  -7.1287
    -7.1181  -7.1133  -7.0926  -7.0840  -7.0774  -7.0673  -7.0541  -7.0344
    -7.0217  -6.9984  -6.9906  -6.9618  -6.8712  -6.8231  -6.7430  -6.6326
    -6.5631  -6.4705  -6.3452  -6.2439  -6.1771  -6.1382  -6.0965  -6.0015
    -5.7638  -5.7133  -5.6769  -5.5596  -5.4333  -5.3850  -5.3694  -5.2907

          k = 0.2500-0.3536 0.0000 (128397 PWs)   bands (ev):

   -95.1176 -95.1039 -95.0960 -95.0954 -95.0912 -95.0855 -95.0835 -95.0803
   -95.0799 -95.0798 -95.0761 -95.0760 -95.0720 -95.0718 -95.0714 -95.0682
   -95.0668 -95.0641 -95.0633 -95.0610 -95.0605 -95.0600 -95.0566 -95.0561
   -95.0527 -95.0486 -95.0483 -95.0445 -95.0406 -95.0391 -95.0318 -95.0213
   -94.9702 -94.9634 -94.9589 -94.9470 -94.9434 -94.9416 -94.9406 -94.9374
   -94.9341 -94.9318 -94.9311 -94.9277 -94.9269 -94.9244 -94.9227 -94.9216
   -94.9195 -94.9189 -94.9178 -94.9169 -94.9159 -94.9126 -94.9121 -94.9090
   -94.9072 -94.9060 -94.9031 -94.9027 -94.8988 -94.8903 -94.8862 -94.8804
   -61.3048 -61.2925 -61.2850 -61.2836 -61.2787 -61.2745 -61.2710 -61.2675
   -61.2665 -61.2636 -61.2627 -61.2612 -61.2605 -61.2595 -61.2584 -61.2566
   -61.2559 -61.2546 -61.2508 -61.2504 -61.2483 -61.2446 -61.2419 -61.2401
   -61.2397 -61.2377 -61.2358 -61.2309 -61.2293 -61.2254 -61.2196 -61.2159
   -61.2129 -61.2101 -61.2060 -61.2030 -61.2025 -61.1970 -61.1966 -61.1940
   -61.1912 -61.1885 -61.1826 -61.1821 -61.1810 -61.1733 -61.1582 -61.1550
   -61.1418 -61.1405 -61.1367 -61.1351 -61.1233 -61.1224 -61.1213 -61.1205
   -61.1193 -61.1167 -61.1149 -61.1148 -61.1116 -61.1107 -61.1068 -61.1053
   -61.1042 -61.1008 -61.0999 -61.0980 -61.0954 -61.0942 -61.0911 -61.0852
   -61.0842 -61.0798 -61.0794 -61.0757 -61.0725 -61.0699 -61.0647 -61.0621
   -61.0582 -61.0553 -61.0544 -61.0515 -61.0494 -61.0490 -61.0476 -61.0461
   -61.0386 -61.0372 -61.0318 -61.0291 -61.0266 -61.0251 -61.0247 -61.0245
   -61.0223 -61.0190 -61.0164 -61.0133 -61.0111 -61.0041 -60.9980 -60.9973
   -60.9943 -60.9936 -60.9925 -60.9922 -60.9916 -60.9912 -60.9898 -60.9881
   -60.9879 -60.9870 -60.9849 -60.9838 -60.9806 -60.9781 -60.9757 -60.9755
   -60.9741 -60.9722 -60.9656 -60.9647 -60.9639 -60.9631 -60.9611 -60.9588
   -60.9574 -60.9561 -60.9526 -60.9492 -60.9469 -60.9392 -60.9377 -60.9365
   -60.9332 -60.9317 -60.9271 -60.9254 -60.9246 -60.9243 -60.9235 -60.9206
   -60.9186 -60.9152 -60.9146 -60.9140 -60.9134 -60.9130 -60.9074 -60.9049
   -60.9015 -60.8983 -60.8956 -60.8947 -60.8935 -60.8931 -60.8924 -60.8907
   -60.8781 -60.8749 -60.8719 -60.8716 -60.8676 -60.8669 -60.8644 -60.8607
   -60.8589 -60.8589 -60.8558 -60.8553 -60.8542 -60.8517 -60.8513 -60.8506
   -60.8480 -60.8465 -60.8450 -60.8369 -60.8363 -60.8348 -60.8344 -60.8336
   -60.8334 -60.8330 -60.8293 -60.8287 -60.8271 -60.8266 -60.8238 -60.8214
   -14.6068 -14.0774 -13.9786 -13.6027 -13.1343 -12.8262 -12.6053 -12.4811
[...]
    -6.1143  -6.1034  -6.0693  -6.0506  -6.0328  -6.0293  -6.0023  -5.9825
    -5.9771  -5.9747  -5.9699  -5.9466  -5.9189  -5.9108  -5.9045  -5.8595
    -5.7906  -5.7812  -5.7641  -5.7512  -5.7470  -5.7364  -5.7287  -5.7234
    -5.7204  -5.7161  -5.7094  -5.7044  -5.6992  -5.6818  -5.6726  -5.6391
    -5.6088  -5.5664  -5.5434  -5.5289  -5.5076  -5.4993  -5.4949  -5.4848
    -5.4787  -5.4629  -5.4397  -5.4383  -5.4346  -5.4294  -5.4109  -5.4079
    -5.4012  -5.3940  -5.3655  -5.3587  -5.3520  -5.3435  -5.3349  -5.3127
    -5.3080  -5.3044  -5.2888  -5.2634  -5.2477  -5.2354  -5.2320  -5.2310
    -5.2219  -5.2176  -5.2099  -5.2063  -5.1878  -5.1831  -5.1799  -5.1700
    -5.1571  -5.1496  -5.1466  -5.1454  -5.1404  -5.1236  -5.1126  -5.1068
    -5.0929  -5.0889  -5.0824  -5.0749  -5.0697  -5.0656  -5.0256  -5.0106
    -5.0051  -5.0022  -4.9957  -4.9929  -4.9811  -4.9740  -4.9718  -4.9710
    -4.9671  -4.9549  -4.9515  -4.9408  -4.9347  -4.9212  -4.9032  -4.8990
    -4.8923  -4.8763  -4.8719  -4.8686  -4.8607  -4.8578  -4.8535  -4.8512
    -4.8480  -4.8407  -4.8197  -4.8167  -4.8106  -4.7957  -4.7864  -4.7775
    -4.7737  -4.7689  -4.7634  -4.7449  -4.7365  -4.7302  -4.6916  -4.6848
    -4.6753  -4.6591  -4.6530  -4.6363  -4.6298  -4.6282  -4.6250  -4.6240
    -4.6097  -4.6023  -4.5986  -4.5634  -4.5534  -4.5453  -4.5301  -4.5278
    -4.5053  -4.4976  -4.4757  -4.3947  -4.3436  -4.2989  -4.2902  -4.2846
    -4.2668  -4.2509  -4.1680  -4.0833  -4.0111  -3.9193  -3.8760  -3.8370

          k =-0.5000-0.3536 0.0000 (128560 PWs)   bands (ev):

   -92.1383 -92.1296 -92.1023 -92.0979 -92.0923 -92.0911 -92.0767 -92.0710
   -92.0658 -92.0639 -92.0634 -92.0623 -92.0611 -92.0592 -92.0572 -92.0568
   -92.0531 -92.0521 -92.0496 -92.0476 -92.0452 -92.0433 -92.0414 -92.0399
   -92.0381 -92.0369 -92.0369 -92.0341 -92.0331 -92.0331 -92.0317 -92.0157
   -92.0139 -92.0128 -92.0113 -92.0032 -92.0010 -92.0001 -91.9989 -91.9986
   -91.9980 -91.9968 -91.9894 -91.9822 -91.9817 -91.9811 -91.9804 -91.9803
   -91.9782 -91.9778 -91.9769 -91.9762 -91.9758 -91.9754 -91.9752 -91.9719
   -91.9713 -91.9616 -91.9603 -91.9582 -91.9556 -91.9547 -91.9537 -91.9509
   -58.4156 -58.3855 -58.3600 -58.3535 -58.3530 -58.3498 -58.3477 -58.3458
   -58.3429 -58.3403 -58.3400 -58.3400 -58.3375 -58.3358 -58.3345 -58.3293
   -58.3273 -58.3272 -58.3269 -58.3255 -58.3214 -58.3199 -58.3162 -58.3137
   -58.3128 -58.3088 -58.3040 -58.3021 -58.2991 -58.2966 -58.2930 -58.2929
   -58.2834 -58.2805 -58.2788 -58.2736 -58.2705 -58.2673 -58.2649 -58.2633
   -58.2616 -58.2598 -58.2581 -58.2551 -58.2541 -58.2524 -58.2522 -58.2516
   -58.2515 -58.2510 -58.2498 -58.2489 -58.2481 -58.2463 -58.2422 -58.2409
   -58.2392 -58.2388 -58.2383 -58.2373 -58.2372 -58.2355 -58.2173 -58.2134
   -58.2034 -58.2013 -58.1984 -58.1936 -58.1920 -58.1914 -58.1865 -58.1824
   -58.1790 -58.1764 -58.1725 -58.1665 -58.1613 -58.1592 -58.1498 -58.1490
   -58.1448 -58.1437 -58.1428 -58.1418 -58.1390 -58.1371 -58.1358 -58.1358
   -58.1338 -58.1319 -58.1297 -58.1297 -58.1290 -58.1276 -58.1213 -58.1173
   -58.1149 -58.1126 -58.1085 -58.1082 -58.1062 -58.1035 -58.1004 -58.0984
   -58.0984 -58.0966 -58.0959 -58.0909 -58.0900 -58.0885 -58.0876 -58.0853
   -58.0850 -58.0811 -58.0759 -58.0749 -58.0727 -58.0697 -58.0688 -58.0651
   -58.0636 -58.0624 -58.0608 -58.0606 -58.0566 -58.0543 -58.0531 -58.0530
   -58.0512 -58.0487 -58.0446 -58.0433 -58.0402 -58.0387 -58.0373 -58.0372
   -58.0368 -58.0357 -58.0343 -58.0330 -58.0307 -58.0306 -58.0294 -58.0291
   -58.0281 -58.0268 -58.0267 -58.0263 -58.0234 -58.0200 -58.0186 -58.0168
   -58.0166 -58.0137 -58.0135 -58.0118 -58.0100 -58.0097 -58.0088 -58.0078
   -58.0075 -58.0072 -58.0068 -58.0064 -58.0060 -58.0057 -58.0046 -58.0042
   -58.0041 -57.9999 -57.9980 -57.9970 -57.9964 -57.9955 -57.9949 -57.9942
   -57.9938 -57.9932 -57.9927 -57.9924 -57.9846 -57.9843 -57.9825 -57.9804
   -57.9803 -57.9790 -57.9790 -57.9780 -57.9765 -57.9748 -57.9741 -57.9734
   -14.1350 -14.0549 -13.5710 -13.4699 -13.1397 -12.7619 -12.4677 -12.2190
   -11.8921 -11.4683 -11.4683 -11.4663 -11.4367 -11.0566 -10.8945 -10.6225
   -10.6211 -10.6181 -10.6168 -10.6158 -10.5902 -10.5223 -10.4885 -10.4852
   -10.4850 -10.4835 -10.2994 -10.0590 -10.0586 -10.0580 -10.0566 -10.0556
    -9.9477  -9.8462  -9.8205  -9.5889  -9.5748  -9.5578  -9.5564  -9.5533
    -9.5033  -9.4957  -9.4855  -9.4596  -9.4555  -9.4516  -9.3701  -9.2948
    -9.2924  -9.2841  -9.2769  -9.2644  -9.2052  -9.0213  -9.0199  -9.0071
    -9.0069  -9.0013  -8.9684  -8.7847  -8.7559  -8.7351  -8.7216  -8.6829
    -8.6820  -8.5775  -8.5669  -8.4985  -8.4976  -8.4941  -8.4940  -8.4857
    -8.4714  -8.4689  -8.4604  -8.4598  -8.4476  -8.3689  -8.3641  -8.3621
    -8.3605  -8.3587  -8.3573  -8.3543  -8.3534  -8.3494  -8.3492  -8.3468
    -8.2451  -8.1447  -8.1367  -8.1270  -8.1263  -7.9987  -7.9978  -7.9959
    -7.9871  -7.9848  -7.9832  -7.9512  -7.9424  -7.9333  -7.9313  -7.9232
    -7.9225  -7.9192  -7.9191  -7.9039  -7.8999  -7.8948  -7.8923  -7.8752
    -7.8685  -7.8639  -7.8632  -7.8597  -7.8565  -7.8562  -7.8540  -7.8509
    -7.8491  -7.8142  -7.8134  -7.8073  -7.7797  -7.7574  -7.7549  -7.7526
    -7.7506  -7.7491  -7.7490  -7.7461  -7.7459  -7.7441  -7.7382  -7.7322
    -7.6834  -7.6776  -7.6556  -7.5520  -7.5377  -7.4816  -7.4803  -7.4764
    -7.4747  -7.4620  -7.4542  -7.4236  -7.4197  -7.4169  -7.3886  -7.3123
    -7.3093  -7.3031  -7.3012  -7.2938  -7.2905  -7.2898  -7.2453  -7.2398
    -7.2316  -7.2275  -7.2039  -7.1854  -7.1141  -7.0519  -7.0514  -7.0465
    -7.0344  -6.9765  -6.9705  -6.9654  -6.9571  -6.9478  -6.9434  -6.9374
    -6.9338  -6.9322  -6.9254  -6.9076  -6.8637  -6.8471  -6.8469  -6.8410
    -6.8209  -6.8126  -6.5973  -6.5688  -6.5596  -6.4969  -6.4649  -6.4523
    -6.3958  -6.3835  -6.2354  -6.2032  -6.1985  -6.1798  -6.1435  -6.1359
    -6.0754  -6.0632  -6.0335  -6.0284  -6.0244  -6.0202  -5.9654  -5.9510
    -5.9446  -5.9415  -5.9035  -5.9013  -5.8962  -5.8828  -5.8092  -5.7996
    -5.7958  -5.7867  -5.7853  -5.7804  -5.7063  -5.7013  -5.6909  -5.6852
    -5.6804  -5.6786  -5.6762  -5.6756  -5.6595  -5.6553  -5.6519  -5.6514
    -5.5885  -5.5817  -5.5774  -5.5769  -5.5435  -5.5428  -5.5236  -5.5165
    -5.5113  -5.5089  -5.4864  -5.4759  -5.4413  -5.4316  -5.3798  -5.3776
    -5.3329  -5.3271  -5.2642  -5.2558  -5.2526  -5.2447  -5.2432  -5.2385
    -5.2360  -5.2355  -5.2302  -5.2285  -5.2101  -5.1910  -5.1894  -5.1889
    -5.1854  -5.1837  -5.1809  -5.1798  -5.1749  -5.1739  -5.1602  -5.1542
    -5.1101  -5.1073  -5.1067  -5.1047  -5.1001  -5.0987  -5.0789  -5.0785
    -5.0763  -5.0754  -5.0740  -5.0726  -5.0488  -5.0400  -5.0365  -5.0353
    -5.0177  -5.0120  -5.0037  -5.0034  -4.9995  -4.9965  -4.9940  -4.9914
    -4.9903  -4.9898  -4.9698  -4.9694  -4.9543  -4.9515  -4.8965  -4.8881
    -4.8709  -4.8672  -4.8555  -4.8543  -4.8503  -4.8489  -4.8184  -4.8145
    -4.8129  -4.8060  -4.8029  -4.8022  -4.8012  -4.8009  -4.7913  -4.7911
    -4.7882  -4.7867  -4.7847  -4.7845  -4.7833  -4.7766  -4.7383  -4.7363
    -4.7274  -4.7269  -4.7259  -4.7234  -4.7107  -4.7074  -4.7058  -4.7006
    -4.6986  -4.6972  -4.6179  -4.6161  -4.6151  -4.6083  -4.6058  -4.6054
    -4.4619  -4.4371  -4.4003  -4.3917  -4.2677  -4.1903  -4.1818  -4.1808
    -4.1715  -4.1241  -4.1153  -4.1129  -4.1084  -4.1010  -4.0933  -4.0904

     the Fermi energy is    -6.9469 ev

!    total energy              =  -21073.46533624 Ry
     Harris-Foulkes estimate   =  -21073.46533685 Ry
     estimated scf accuracy    <          3.7E-11 Ry

     The total energy is the sum of the following terms:

     one-electron contribution = -738748.85155758 Ry
     hartree contribution      =  369107.20532605 Ry
     xc contribution           =   -2228.94788966 Ry
     ewald contribution        =  355671.93513392 Ry
     Dispersion Correction     =      -1.37723435 Ry
     one-center paw contrib.   =   -4873.42999162 Ry
     smearing contrib. (-TS)   =       0.00087700 Ry

     total magnetization       =   162.52 Bohr mag/cell
     absolute magnetization    =   169.03 Bohr mag/cell

     convergence has been achieved in  11 iterations

     negative rho (up, down):  2.498E-02 1.891E-02

     Forces acting on atoms (cartesian axes, Ry/au):

     atom    1 type  1   force =     0.00014422    0.00012369    0.00937527
     atom    2 type  1   force =    -0.00003405   -0.00019132   -0.00838772
     atom    3 type  1   force =    -0.00009341   -0.00000852    0.00885705
     atom    4 type  1   force =    -0.00022615   -0.00014680   -0.00925915
     atom    5 type  1   force =    -0.00000155    0.00001397   -0.00003218
     atom    6 type  1   force =     0.00004053    0.00001311    0.00002630
     atom    7 type  1   force =     0.00006646   -0.00004418    0.00001133
     atom    8 type  1   force =     0.00002685    0.00002325    0.00002711
     atom    9 type  1   force =     0.00006385    0.00005487    0.00927795
     atom   10 type  1   force =    -0.00004670   -0.00005826    0.00914359
     atom   11 type  1   force =     0.00026178    0.00009258   -0.00964663
     atom   12 type  1   force =     0.00002770    0.00012084   -0.00878275
     atom   13 type  1   force =    -0.00000749    0.00002106    0.00001016
     atom   14 type  1   force =     0.00005023    0.00002303   -0.00000518
     atom   15 type  1   force =     0.00002075    0.00004183    0.00009088
     atom   16 type  1   force =     0.00002629    0.00001378    0.00005054
     atom   17 type  1   force =    -0.00001058   -0.00012108    0.00880651
     atom   18 type  1   force =    -0.00021425   -0.00011082   -0.00924446
     atom   19 type  1   force =     0.00002072    0.00011968    0.00895338
     atom   20 type  1   force =     0.00030034   -0.00054669   -0.00975015
     atom   21 type  1   force =    -0.00000600    0.00005763    0.00000417
     atom   22 type  1   force =     0.00004101   -0.00002017    0.00003250
     atom   23 type  1   force =     0.00001948    0.00000169   -0.00004181
     atom   24 type  1   force =     0.00002413   -0.00012337   -0.00003982
     atom   25 type  1   force =     0.00013599    0.00005229    0.00888576
     atom   26 type  1   force =    -0.00018313    0.00012309    0.00933119
     atom   27 type  1   force =    -0.00021223   -0.00022416   -0.00892212
     atom   28 type  1   force =    -0.00023114   -0.00008064   -0.00910961
     atom   29 type  1   force =    -0.00001006   -0.00001821    0.00004763
     atom   30 type  1   force =    -0.00001784    0.00003566   -0.00003055
     atom   31 type  1   force =     0.00002439   -0.00001030    0.00010481
     atom   32 type  1   force =     0.00003138   -0.00001199    0.00003143
     atom   33 type  1   force =    -0.00005335   -0.00029411    0.00940417
     atom   34 type  1   force =     0.00030269    0.00026619   -0.00941456
     atom   35 type  1   force =     0.00012264    0.00013239    0.00940094
     atom   36 type  1   force =    -0.00031646    0.00020058   -0.00835472
     atom   37 type  1   force =     0.00002679    0.00000988   -0.00004819
     atom   38 type  1   force =     0.00000522   -0.00000269    0.00007467
     atom   39 type  1   force =     0.00001173   -0.00000993   -0.00005132
     atom   40 type  1   force =     0.00003353    0.00002283    0.00000092
     atom   41 type  1   force =    -0.00002746    0.00001507    0.00816407
     atom   42 type  1   force =     0.00004576   -0.00020098    0.00938601
     atom   43 type  1   force =    -0.00017982   -0.00000027   -0.00906657
     atom   44 type  1   force =    -0.00023893   -0.00016253   -0.00907655
     atom   45 type  1   force =     0.00002603    0.00002072   -0.00007993
     atom   46 type  1   force =     0.00004529   -0.00004637   -0.00003847
     atom   47 type  1   force =     0.00003901    0.00000699    0.00007938
     atom   48 type  1   force =     0.00002691    0.00001383    0.00000057
     atom   49 type  1   force =     0.00015283   -0.00005236    0.00900038
     atom   50 type  1   force =    -0.00037470    0.00039553   -0.00969270
     atom   51 type  1   force =    -0.00032401    0.00007079    0.00938986
     atom   52 type  1   force =     0.00036592    0.00025913   -0.00943801
     atom   53 type  1   force =     0.00002354   -0.00000350   -0.00004870
     atom   54 type  1   force =    -0.00007547    0.00002749    0.00000368
     atom   55 type  1   force =     0.00002455    0.00001343   -0.00003495
     atom   56 type  1   force =     0.00001343   -0.00002834    0.00007700
     atom   57 type  1   force =     0.00002727    0.00008455    0.00928179
     atom   58 type  1   force =    -0.00012006   -0.00010382    0.00909538
     atom   59 type  1   force =     0.00019061    0.00029513   -0.00961189
     atom   60 type  1   force =     0.00002327   -0.00003932   -0.00943100
     atom   61 type  1   force =     0.00001929   -0.00003463    0.00001184
     atom   62 type  1   force =    -0.00002816   -0.00003788   -0.00002340
     atom   63 type  1   force =     0.00005692   -0.00002619    0.00003714
     atom   64 type  1   force =     0.00009194    0.00003699   -0.00009307
     atom   65 type  2   force =     0.00003170   -0.00004411   -0.00000401

     Total force =     0.000400     Total SCF correction =     0.000033

     bfgs converged in   6 scf cycles and   5 bfgs steps
     (criteria: energy <  7.3E-07 Ry, force <  3.9E-04 Ry/Bohr)

     End of BFGS Geometry Optimization

     Final energy   =  -21073.4653362436 Ry
Begin final coordinates

ATOMIC_POSITIONS (angstrom)
Fe       1.654912953   1.170200133   0.000000000    0   0   0
Fe       0.000000000   0.000000000   2.026984232    0   0   0
Fe       4.964738858   3.510600399   0.000000000    0   0   0
Fe       3.309825906   2.340400266   2.026984232    0   0   0
Fe       1.650471262   1.168785870   4.027507394
Fe       3.304448991   9.369123318   6.006970955
Fe       4.962622247   3.509235893   4.029636491
Fe       3.300087063   2.340011430   6.001118117
Fe       2.482363858   3.510600399   0.000000000    0   0   0
Fe       4.137287953   1.170200133   0.000000000    0   0   0
Fe       0.827450906   2.340400266   2.026984232    0   0   0
Fe       2.482375000   0.000000000   2.026984232    0   0   0
Fe       2.480971114   3.510886285   4.028164561
Fe       4.134309080   1.168528064   4.027537437
Fe       0.824485746   2.342274498   6.006244283
Fe       2.476444986  -0.003356200   6.010342587
Fe       6.619662953   1.170200133   0.000000000    0   0   0
Fe       4.964750000   0.000000000   2.026984232    0   0   0
Fe       9.929488858   3.510600399   0.000000000    0   0   0
Fe       8.274575906   2.340400266   2.026984232    0   0   0
Fe       6.617481950   1.169076920   4.029742667
Fe       4.960412809  -0.008328379   6.000905229
Fe       9.930675394   3.512146377   4.025682050
Fe       8.274597568   2.344379860   6.011659944
Fe       7.447113858   3.510600399   0.000000000    0   0   0
Fe       9.102037953   1.170200133   0.000000000    0   0   0
Fe       5.792200906   2.340400266   2.026984232    0   0   0
Fe       7.447125000   0.000000000   2.026984232    0   0   0
Fe       7.445374181   3.509457457   4.020349573
Fe       9.096989676   1.174091157   4.033299732
Fe       5.776144115   2.329696095   6.006233224
Fe      10.760141118   9.367184763   6.005630364
Fe       3.309814764   5.851000664   0.000000000    0   0   0
Fe       1.654901811   4.680800531   2.026984232    0   0   0
Fe       6.619640670   8.191400930   0.000000000    0   0   0
Fe       4.964727717   7.021200797   2.026984232    0   0   0
Fe       3.311519426   5.851998311   4.027961977
Fe      11.580980744   4.686423330   6.003604301
Fe       6.616450198   8.188487769   4.027593501
Fe       4.968979636   7.015040780   6.007476544
Fe       4.137265670   8.191400930   0.000000000    0   0   0
Fe       5.792189764   5.851000664   0.000000000    0   0   0
Fe       2.482352717   7.021200797   2.026984232    0   0   0
Fe       4.137276811   4.680800531   2.026984232    0   0   0
Fe       4.136029852   8.191198099   4.029330544
Fe       5.793586741   5.845708464   4.033391906
Fe      12.415957819   7.025125763   6.006387457
Fe       4.142968201   4.683086539   6.005445439
Fe       8.274564764   5.851000664   0.000000000    0   0   0
Fe       6.619651811   4.680800531   2.026984232    0   0   0
Fe      11.584390670   8.191400930   0.000000000    0   0   0
Fe       9.929477717   7.021200797   2.026984232    0   0   0
Fe       8.276159355   5.852020787   4.025706708
Fe       6.622705195   4.680307597   6.011135594
Fe      11.585445775   8.193609181   4.027912045
Fe       9.932750043   7.017021785   6.003856170
Fe       9.102015670   8.191400930   0.000000000    0   0   0
Fe      10.756939764   5.851000664   0.000000000    0   0   0
Fe       7.447102717   7.021200797   2.026984232    0   0   0
Fe       9.102026811   4.680800531   2.026984232    0   0   0
Fe       9.101674830   8.190603370   4.028137261
Fe      10.758112327   5.852330904   4.028208260
Fe       7.446836752   7.018661693   6.006404766
Fe       9.104146364   4.682850360   5.999937083
H        7.867573001   3.809332182   6.940267286
End final coordinates



     Writing output data file Fe_H_paper_480c_ESM_pn25.save/

     init_run     :     77.79s CPU     79.28s WALL (       1 calls)
     electrons    :  45181.33s CPU  45486.28s WALL (       6 calls)
     update_pot   :     63.15s CPU     63.19s WALL (       5 calls)
     forces       :    241.67s CPU    243.52s WALL (       6 calls)

     Called by init_run:
     wfcinit      :     58.29s CPU     59.62s WALL (       1 calls)
     potinit      :      6.26s CPU      6.29s WALL (       1 calls)
     hinit0       :     10.61s CPU     10.65s WALL (       1 calls)

     Called by electrons:
     c_bands      :  42111.83s CPU  42373.76s WALL (     109 calls)
     sum_band     :   1731.07s CPU   1759.45s WALL (     109 calls)
     v_of_rho     :    178.32s CPU    178.97s WALL (     110 calls)
     newd         :     30.18s CPU     31.50s WALL (     110 calls)
     PAW_pot      :     52.65s CPU     52.87s WALL (     115 calls)
     mix_rho      :   1038.62s CPU   1048.66s WALL (     109 calls)

     Called by c_bands:
     init_us_2    :     50.02s CPU     51.72s WALL (     690 calls)
     cegterg      :  31553.18s CPU  31736.50s WALL (     331 calls)

     Called by sum_band:
     sum_band:bec :      3.22s CPU      3.23s WALL (     342 calls)
     addusdens    :     35.98s CPU     38.53s WALL (     109 calls)

     Called by *egterg:
     h_psi        :   8629.00s CPU   8701.78s WALL (    3255 calls)
     s_psi        :   1798.49s CPU   1801.91s WALL (    3255 calls)
     g_psi        :     24.76s CPU     24.83s WALL (    2921 calls)
     cdiaghg      :  13596.09s CPU  13648.10s WALL (    3222 calls)

     Called by h_psi:
     h_psi:pot    :   8589.81s CPU   8637.95s WALL (    3255 calls)
     h_psi:calbec :   1815.23s CPU   1818.01s WALL (    3255 calls)
     vloc_psi     :   4971.32s CPU   5013.90s WALL (    3255 calls)
     add_vuspsi   :   1803.21s CPU   1806.01s WALL (    3255 calls)

     General routines
     calbec       :   2552.72s CPU   2557.08s WALL (    3669 calls)
     fft          :    112.36s CPU    112.98s WALL (    2843 calls)
     ffts         :    540.49s CPU    544.71s WALL (   63924 calls)
     fftw         :   4741.78s CPU   4784.15s WALL ( 1381660 calls)
     interpolate  :     10.93s CPU     10.97s WALL (     220 calls)
     davcio       :      0.51s CPU     70.45s WALL (    2720 calls)

     Parallel routines
     fft_scatt_xy :    926.15s CPU    931.11s WALL ( 1448427 calls)
     fft_scatt_yz :   1493.35s CPU   1515.98s WALL ( 1448427 calls)

     PWSCF        :     12h40m CPU     12h45m WALL


   This run was terminated on:   9:46:25  13Jun2022            

=------------------------------------------------------------------------------=
   JOB DONE.
=------------------------------------------------------------------------------=
