     Message from routine get_command_line:
     unexpected argument # 4     :-in

     Program PWSCF v.6.7MaX starts on 28Sep2022 at 18:31: 8 

     This program is part of the open-source Quantum ESPRESSO suite
     for quantum simulation of materials; please cite
         "P. Giannozzi et al., J. Phys.:Condens. Matter 21 395502 (2009);
         "P. Giannozzi et al., J. Phys.:Condens. Matter 29 465901 (2017);
          URL http://www.quantum-espresso.org", 
     in publications or presentations arising from this work. More details at
     http://www.quantum-espresso.org/quote

     Parallel version (MPI), running on   120 processors

     MPI processes distributed on     1 nodes
     K-points division:     npool     =       8
     R & G space division:  proc/nbgrp/npool/nimage =      15
     Waiting for input...
     Reading input from standard input
Warning: card &CELL ignored
Warning: card / ignored

     Current dimensions of program PWSCF are:
     Max number of different atomic species (ntypx) = 10
     Max number of k-points (npk) =  40000
     Max angular momentum in pseudopotentials (lmaxx) =  3

     IMPORTANT: XC functional enforced from input :
     Exchange-correlation= PBE
                           (   1   4   3   4   0   0   0)
     Any further DFT definition will be discarded
     Please, verify this is what you really want


     -------------------------------------------------
     Parameters for Dispersion (Grimme-D2) Correction:
     -------------------------------------------------
       atom      VdW radius       C_6     

        N          2.640         42.670
        H          1.892          4.857

     Subspace diagonalization in iterative solution of the eigenvalue problem:
     one sub-group per band group will be used
     scalapack distributed-memory algorithm (size of sub-group:  3*  3 procs)


     Parallelization info
     --------------------
     sticks:   dense  smooth     PW     G-vecs:    dense   smooth      PW
     Min        3636    1818    468               639190   225950   29545
     Max        3637    1819    470               639197   225953   29547
     Sum       54553   27281   7033              9587919  3389267  443191



     bravais-lattice index     =            0
     lattice parameter (alat)  =      37.7945  a.u.
     unit-cell volume          =   53986.6760 (a.u.)^3
     number of atoms/cell      =            4
     number of atomic types    =            2
     number of electrons       =         8.00
     number of Kohn-Sham states=            8
     kinetic-energy cutoff     =      60.0000  Ry
     charge density cutoff     =     480.0000  Ry
     scf convergence threshold =      1.0E-08
     mixing beta               =       0.7000
     number of iterations used =           10  plain     mixing
     energy convergence thresh.=      7.3E-07
     force convergence thresh. =      3.9E-04
     Exchange-correlation= PBE
                           (   1   4   3   4   0   0   0)
     nstep                     =           50


     celldm(1)=  37.794522  celldm(2)=   0.000000  celldm(3)=   0.000000
     celldm(4)=   0.000000  celldm(5)=   0.000000  celldm(6)=   0.000000

     crystal axes: (cart. coord. in units of alat)
               a(1) = (   1.000000   0.000000   0.000000 )  
               a(2) = (   0.000000   1.000000   0.000000 )  
               a(3) = (   0.000000   0.000000   1.000000 )  

     reciprocal axes: (cart. coord. in units 2 pi/alat)
               b(1) = (  1.000000  0.000000  0.000000 )  
               b(2) = (  0.000000  1.000000  0.000000 )  
               b(3) = (  0.000000  0.000000  1.000000 )  


     PseudoPot. # 1 for N  read from file:
     ../../SSSP/N.pbe-n-radius_5.UPF
     MD5 check sum: 16739722b17309cd8fe442a2ace49922
     Pseudo is Ultrasoft + core correction, Zval =  5.0
     Generated using "atomic" code by A. Dal Corso  v.5.1
     Using radial grid of 1085 points,  4 beta functions with: 
                l(1) =   0
                l(2) =   0
                l(3) =   1
                l(4) =   1
     Q(r) pseudized with 0 coefficients 


     PseudoPot. # 2 for H  read from file:
     ../../SSSP/H.pbe-rrkjus_psl.1.0.0.UPF
     MD5 check sum: f52b6d4d1c606e5624b1dc7b2218f220
     Pseudo is Ultrasoft, Zval =  1.0
     Generated using "atomic" code by A. Dal Corso  v.5.1
     Using radial grid of  929 points,  2 beta functions with: 
                l(1) =   0
                l(2) =   0
     Q(r) pseudized with 0 coefficients 


     atomic species   valence    mass     pseudopotential
        N              5.00    14.00700     N ( 1.00)
        H              1.00     1.00800     H ( 1.00)

     Starting magnetic structure 
     atomic species   magnetization
        N            0.100
        H            0.100

     No symmetry found



   Cartesian axes

     site n.     atom                  positions (alat units)
         1           N   tau(   1) = (   0.5000000   0.5000000   0.0000000  )
         2           H   tau(   2) = (   0.5000000   0.5478613  -0.0174102  )
         3           H   tau(   3) = (   0.5414491   0.4760695  -0.0174105  )
         4           H   tau(   4) = (   0.4585510   0.4760695  -0.0174106  )

     number of k points=    10  Methfessel-Paxton smearing, width (Ry)=  0.0100
                       cart. coord. in units 2pi/alat
        k(    1) = (   0.0000000   0.0000000   0.0000000), wk =   0.0625000
        k(    2) = (   0.0000000   0.2500000   0.0000000), wk =   0.1250000
        k(    3) = (   0.0000000  -0.5000000   0.0000000), wk =   0.0625000
        k(    4) = (   0.2500000   0.0000000   0.0000000), wk =   0.1250000
        k(    5) = (   0.2500000   0.2500000   0.0000000), wk =   0.1250000
        k(    6) = (   0.2500000  -0.5000000   0.0000000), wk =   0.1250000
        k(    7) = (   0.2500000  -0.2500000   0.0000000), wk =   0.1250000
        k(    8) = (  -0.5000000   0.0000000   0.0000000), wk =   0.0625000
        k(    9) = (  -0.5000000   0.2500000   0.0000000), wk =   0.1250000
        k(   10) = (  -0.5000000  -0.5000000   0.0000000), wk =   0.0625000

     Dense  grid:  9587919 G-vectors     FFT dimensions: ( 270, 270, 270)

     Smooth grid:  3389267 G-vectors     FFT dimensions: ( 192, 192, 192)

     Estimated max dynamical RAM per process >     390.11 MB

     Estimated total dynamical RAM >      45.72 GB

     Atomic positions and unit cell read from directory:
     ./NH3_ESM_std.save/
     Message from routine qexsd_readschema :
     xml data file ./NH3_ESM_std.save/data-file-schema.xml not found
     Nothing found: using input atomic positions and unit cell


     Adding external electric field
        E field amplitude [Ha a.u.]: -1.5855E-03
        Potential amp.       -0.1079 Ry
        Total length         34.0151 bohr

     Generating pointlists ...
     new r_m :   0.0210 (alat units)  0.7940 (a.u.) for type    1
     new r_m :   0.0210 (alat units)  0.7940 (a.u.) for type    2
     Cannot read rho : file not found

     Initial potential from superposition of free atoms

     starting charge    7.99996, renormalised to    8.00000

     negative rho (up, down):  9.690E-05 7.928E-05
     Message from routine qexsd_readschema :
     xml data file ./NH3_ESM_std.save/data-file-schema.xml not found
     Cannot read wfcs: file not found
     Starting wfcs are    7 randomized atomic wfcs +    1 random wfcs

     total cpu time spent up to now is       21.8 secs

     Self-consistent Calculation

     iteration #  1     ecut=    60.00 Ry     beta= 0.70
     CG style diagonalization
     c_bands:  1 eigenvalues not converged
     c_bands:  1 eigenvalues not converged
     ethr =  1.00E-04,  avg # of iterations = 10.8

     negative rho (up, down):  2.121E-04 2.042E-04

     total cpu time spent up to now is       55.6 secs

     total energy              =     -23.50893044 Ry
     estimated scf accuracy    <       0.67679543 Ry

     total magnetization       =    -0.00 Bohr mag/cell
     absolute magnetization    =     0.06 Bohr mag/cell

     iteration #  2     ecut=    60.00 Ry     beta= 0.70
     CG style diagonalization
     ethr =  8.46E-03,  avg # of iterations =  3.5

     negative rho (up, down):  6.942E-05 6.626E-05

     total cpu time spent up to now is       74.4 secs

     total energy              =     -23.63206985 Ry
     estimated scf accuracy    <       0.42267760 Ry

     total magnetization       =    -0.00 Bohr mag/cell
     absolute magnetization    =     0.03 Bohr mag/cell

     iteration #  3     ecut=    60.00 Ry     beta= 0.70
     CG style diagonalization
     ethr =  5.28E-03,  avg # of iterations =  3.4

     negative rho (up, down):  3.072E-04 3.404E-04

     total cpu time spent up to now is       93.0 secs

     total energy              =     -23.76373683 Ry
     estimated scf accuracy    <       0.00680742 Ry

     total magnetization       =     0.00 Bohr mag/cell
     absolute magnetization    =     0.02 Bohr mag/cell

     iteration #  4     ecut=    60.00 Ry     beta= 0.70
     CG style diagonalization
     ethr =  8.51E-05,  avg # of iterations =  4.9

     negative rho (up, down):  1.346E-04 1.199E-04

     total cpu time spent up to now is      114.8 secs

     total energy              =     -23.76776036 Ry
     estimated scf accuracy    <       0.00597325 Ry

     total magnetization       =     0.00 Bohr mag/cell
     absolute magnetization    =     0.01 Bohr mag/cell

     iteration #  5     ecut=    60.00 Ry     beta= 0.70
     CG style diagonalization
     ethr =  7.47E-05,  avg # of iterations =  5.4

     negative rho (up, down):  1.685E-04 1.562E-04

     total cpu time spent up to now is      137.7 secs

     total energy              =     -23.76882402 Ry
     estimated scf accuracy    <       0.00061435 Ry

     total magnetization       =    -0.00 Bohr mag/cell
     absolute magnetization    =     0.01 Bohr mag/cell

     iteration #  6     ecut=    60.00 Ry     beta= 0.70
     CG style diagonalization
     ethr =  7.68E-06,  avg # of iterations =  6.1

     negative rho (up, down):  2.002E-04 1.977E-04

     total cpu time spent up to now is      162.0 secs

     total energy              =     -23.76897509 Ry
     estimated scf accuracy    <       0.00000555 Ry

     total magnetization       =     0.00 Bohr mag/cell
     absolute magnetization    =     0.00 Bohr mag/cell

     iteration #  7     ecut=    60.00 Ry     beta= 0.70
     CG style diagonalization
     ethr =  6.93E-08,  avg # of iterations =  7.6

     negative rho (up, down):  2.007E-04 1.988E-04

     total cpu time spent up to now is      189.1 secs

     total energy              =     -23.76901672 Ry
     estimated scf accuracy    <       0.00001992 Ry

     total magnetization       =    -0.00 Bohr mag/cell
     absolute magnetization    =     0.00 Bohr mag/cell

     iteration #  8     ecut=    60.00 Ry     beta= 0.70
     CG style diagonalization
     ethr =  6.93E-08,  avg # of iterations =  4.0

     negative rho (up, down):  2.048E-04 2.049E-04

     total cpu time spent up to now is      209.5 secs

     total energy              =     -23.76901019 Ry
     estimated scf accuracy    <       0.00001181 Ry

     total magnetization       =    -0.00 Bohr mag/cell
     absolute magnetization    =     0.00 Bohr mag/cell

     iteration #  9     ecut=    60.00 Ry     beta= 0.70
     CG style diagonalization
     ethr =  6.93E-08,  avg # of iterations =  4.2

     negative rho (up, down):  2.050E-04 2.051E-04

     total cpu time spent up to now is      230.5 secs

     total energy              =     -23.76901316 Ry
     estimated scf accuracy    <       0.00000137 Ry

     total magnetization       =    -0.00 Bohr mag/cell
     absolute magnetization    =     0.00 Bohr mag/cell

     iteration # 10     ecut=    60.00 Ry     beta= 0.70
     CG style diagonalization
     ethr =  1.71E-08,  avg # of iterations =  3.9

     negative rho (up, down):  2.060E-04 2.065E-04

     total cpu time spent up to now is      250.9 secs

     total energy              =     -23.76901418 Ry
     estimated scf accuracy    <       0.00000043 Ry

     total magnetization       =     0.00 Bohr mag/cell
     absolute magnetization    =     0.00 Bohr mag/cell

     iteration # 11     ecut=    60.00 Ry     beta= 0.70
     CG style diagonalization
     ethr =  5.41E-09,  avg # of iterations =  3.0

     negative rho (up, down):  2.049E-04 2.050E-04

     total cpu time spent up to now is      269.6 secs

     total energy              =     -23.76901407 Ry
     estimated scf accuracy    <       0.00000031 Ry

     total magnetization       =    -0.00 Bohr mag/cell
     absolute magnetization    =     0.00 Bohr mag/cell

     iteration # 12     ecut=    60.00 Ry     beta= 0.70
     CG style diagonalization
     ethr =  3.90E-09,  avg # of iterations =  3.3

     negative rho (up, down):  2.046E-04 2.046E-04

     Magnetic moment per site:
     atom:    1    charge:    1.3361    magn:    0.0000    constr:    0.0000
     atom:    2    charge:    0.4434    magn:   -0.0000    constr:    0.0000
     atom:    3    charge:    0.4434    magn:   -0.0000    constr:    0.0000
     atom:    4    charge:    0.4434    magn:   -0.0000    constr:    0.0000

     total cpu time spent up to now is      286.4 secs

     End of self-consistent calculation

 ------ SPIN UP ------------


          k = 0.0000 0.0000 0.0000 (423701 PWs)   bands (ev):

   -21.5937 -11.8821 -11.8821  -6.5675  -1.2345  -0.3243  -0.2117  -0.2113

          k = 0.0000 0.2500 0.0000 (423725 PWs)   bands (ev):

   -21.5937 -11.8821 -11.8821  -6.5675  -1.2342  -0.3507  -0.2021  -0.2013

          k = 0.0000-0.5000 0.0000 (423542 PWs)   bands (ev):

   -21.5937 -11.8821 -11.8821  -6.5675  -1.2336  -0.3714  -0.1890  -0.1837

          k = 0.2500 0.0000 0.0000 (423725 PWs)   bands (ev):

   -21.5937 -11.8821 -11.8821  -6.5675  -1.2340  -0.3506  -0.2056  -0.1985

          k = 0.2500 0.2500 0.0000 (423766 PWs)   bands (ev):

   -21.5937 -11.8821 -11.8821  -6.5675  -1.2336  -0.3457  -0.2810  -0.1020

          k = 0.2500-0.5000 0.0000 (423782 PWs)   bands (ev):

   -21.5937 -11.8821 -11.8821  -6.5675  -1.2334  -0.3524  -0.2848  -0.1466

          k = 0.2500-0.2500 0.0000 (423766 PWs)   bands (ev):

   -21.5937 -11.8821 -11.8821  -6.5675  -1.2338  -0.3456  -0.2810  -0.1020

          k =-0.5000 0.0000 0.0000 (423542 PWs)   bands (ev):

   -21.5937 -11.8821 -11.8821  -6.5675  -1.2337  -0.3711  -0.1902  -0.1797

          k =-0.5000 0.2500 0.0000 (423782 PWs)   bands (ev):

   -21.5937 -11.8821 -11.8821  -6.5675  -1.2333  -0.3514  -0.2849  -0.1429

          k =-0.5000-0.5000 0.0000 (423708 PWs)   bands (ev):

   -21.5937 -11.8821 -11.8821  -6.5675  -1.2330  -0.3201  -0.3198  -0.2220

 ------ SPIN DOWN ----------


          k = 0.0000 0.0000 0.0000 (423701 PWs)   bands (ev):

   -21.5936 -11.8821 -11.8821  -6.5674  -1.2346  -0.3243  -0.2117  -0.2110

          k = 0.0000 0.2500 0.0000 (423725 PWs)   bands (ev):

   -21.5936 -11.8821 -11.8821  -6.5674  -1.2342  -0.3506  -0.2025  -0.2015

          k = 0.0000-0.5000 0.0000 (423542 PWs)   bands (ev):

   -21.5936 -11.8821 -11.8821  -6.5674  -1.2338  -0.3716  -0.1886  -0.1822

          k = 0.2500 0.0000 0.0000 (423725 PWs)   bands (ev):

   -21.5936 -11.8821 -11.8821  -6.5674  -1.2342  -0.3505  -0.2061  -0.1981

          k = 0.2500 0.2500 0.0000 (423766 PWs)   bands (ev):

   -21.5936 -11.8821 -11.8821  -6.5674  -1.2338  -0.3450  -0.2810  -0.1031

          k = 0.2500-0.5000 0.0000 (423782 PWs)   bands (ev):

   -21.5936 -11.8821 -11.8821  -6.5674  -1.2334  -0.3520  -0.2834  -0.1446

          k = 0.2500-0.2500 0.0000 (423766 PWs)   bands (ev):

   -21.5936 -11.8821 -11.8821  -6.5674  -1.2338  -0.3447  -0.2808  -0.1028

          k =-0.5000 0.0000 0.0000 (423542 PWs)   bands (ev):

   -21.5936 -11.8821 -11.8821  -6.5674  -1.2338  -0.3712  -0.1907  -0.1813

          k =-0.5000 0.2500 0.0000 (423782 PWs)   bands (ev):

   -21.5936 -11.8821 -11.8821  -6.5674  -1.2334  -0.3523  -0.2852  -0.1471

          k =-0.5000-0.5000 0.0000 (423708 PWs)   bands (ev):

   -21.5936 -11.8821 -11.8821  -6.5674  -1.2330  -0.3200  -0.3197  -0.2217

     the Fermi energy is    -5.3388 ev

!    total energy              =     -23.76901409 Ry
     estimated scf accuracy    <          9.7E-09 Ry
     smearing contrib. (-TS)   =       0.00000000 Ry
     internal energy E=F+TS    =     -23.76901409 Ry

     The total energy is F=E-TS. E is the sum of the following terms:
     one-electron contribution =     -60.24330670 Ry
     hartree contribution      =      31.02989394 Ry
     xc contribution           =      -7.58716592 Ry
     ewald contribution        =      12.70262662 Ry
     Dispersion Correction     =      -0.00036544 Ry
     electric field correction =       0.32930341 Ry

     total magnetization       =    -0.00 Bohr mag/cell
     absolute magnetization    =     0.00 Bohr mag/cell

     convergence has been achieved in  12 iterations

     negative rho (up, down):  2.046E-04 2.046E-04

     Forces acting on atoms (cartesian axes, Ry/au):

     atom    1 type  1   force =     0.00000033    0.00000087    0.01247531
     atom    2 type  2   force =    -0.00000021   -0.00292303   -0.00415824
     atom    3 type  2   force =    -0.00253144    0.00146105   -0.00415849
     atom    4 type  2   force =     0.00253131    0.00146112   -0.00415859

     Total force =     0.008804     Total SCF correction =     0.000022

     BFGS Geometry Optimization
     Energy error            =      0.0E+00
     Gradient error          =      4.2E-03

     number of scf cycles    =   1
     number of bfgs steps    =   0

     energy   new            =     -23.7690140903 Ry

     new trust radius        =       0.0050829407 bohr
     new conv_thr            =       0.0000000100 Ry


ATOMIC_POSITIONS (angstrom)
N            10.0000000000       10.0000000000        0.0000000000    0   0   0
H            10.0000007109       10.9556791537       -0.3504048885
H            10.8276416087        9.5221635819       -0.3504111223
H             9.1723592885        9.5221634649       -0.3504128081



     Writing output data file ./NH3_ESM_std.save/
     NEW-OLD atomic charge density approx. for the potential

     negative rho (up, down):  2.048E-04 2.048E-04

     Adding external electric field
        E field amplitude [Ha a.u.]: -1.5855E-03
        Potential amp.       -0.1079 Ry
        Total length         34.0151 bohr

     Generating pointlists ...

     total cpu time spent up to now is      308.3 secs

     Self-consistent Calculation

     iteration #  1     ecut=    60.00 Ry     beta= 0.70
     CG style diagonalization
     ethr =  1.00E-06,  avg # of iterations =  2.5

     Threshold (ethr) on eigenvalues was too large:
     Diagonalizing with lowered threshold

     CG style diagonalization
     ethr =  2.51E-08,  avg # of iterations =  2.9

     negative rho (up, down):  2.047E-04 2.047E-04

     total cpu time spent up to now is      333.8 secs

     total energy              =     -23.76908637 Ry
     estimated scf accuracy    <       0.00000230 Ry

     total magnetization       =     0.00 Bohr mag/cell
     absolute magnetization    =     0.00 Bohr mag/cell

     iteration #  2     ecut=    60.00 Ry     beta= 0.70
     CG style diagonalization
     ethr =  2.88E-08,  avg # of iterations =  3.6

     negative rho (up, down):  2.046E-04 2.046E-04

     total cpu time spent up to now is      352.8 secs

     total energy              =     -23.76908655 Ry
     estimated scf accuracy    <       0.00000077 Ry

     total magnetization       =     0.00 Bohr mag/cell
     absolute magnetization    =     0.00 Bohr mag/cell

     iteration #  3     ecut=    60.00 Ry     beta= 0.70
     CG style diagonalization
     ethr =  9.64E-09,  avg # of iterations =  3.6

     negative rho (up, down):  2.047E-04 2.047E-04

     total cpu time spent up to now is      371.9 secs

     total energy              =     -23.76908681 Ry
     estimated scf accuracy    <       0.00000013 Ry

     total magnetization       =     0.00 Bohr mag/cell
     absolute magnetization    =     0.00 Bohr mag/cell

     iteration #  4     ecut=    60.00 Ry     beta= 0.70
     CG style diagonalization
     ethr =  1.56E-09,  avg # of iterations =  3.5

     negative rho (up, down):  2.046E-04 2.046E-04

     Magnetic moment per site:
     atom:    1    charge:    1.3364    magn:    0.0000    constr:    0.0000
     atom:    2    charge:    0.4441    magn:   -0.0000    constr:    0.0000
     atom:    3    charge:    0.4441    magn:   -0.0000    constr:    0.0000
     atom:    4    charge:    0.4441    magn:   -0.0000    constr:    0.0000

     total cpu time spent up to now is      389.0 secs

     End of self-consistent calculation

 ------ SPIN UP ------------


          k = 0.0000 0.0000 0.0000 (423701 PWs)   bands (ev):

   -21.6075 -11.8821 -11.8821  -6.5778  -1.2338  -0.3245  -0.2115  -0.2112

          k = 0.0000 0.2500 0.0000 (423725 PWs)   bands (ev):

   -21.6075 -11.8821 -11.8821  -6.5778  -1.2334  -0.3507  -0.2022  -0.2011

          k = 0.0000-0.5000 0.0000 (423542 PWs)   bands (ev):

   -21.6075 -11.8821 -11.8821  -6.5778  -1.2329  -0.3714  -0.1888  -0.1837

          k = 0.2500 0.0000 0.0000 (423725 PWs)   bands (ev):

   -21.6075 -11.8821 -11.8821  -6.5778  -1.2333  -0.3506  -0.2055  -0.1984

          k = 0.2500 0.2500 0.0000 (423766 PWs)   bands (ev):

   -21.6075 -11.8821 -11.8821  -6.5778  -1.2329  -0.3456  -0.2809  -0.1018

          k = 0.2500-0.5000 0.0000 (423782 PWs)   bands (ev):

   -21.6075 -11.8821 -11.8821  -6.5778  -1.2326  -0.3523  -0.2848  -0.1467

          k = 0.2500-0.2500 0.0000 (423766 PWs)   bands (ev):

   -21.6075 -11.8821 -11.8821  -6.5778  -1.2330  -0.3456  -0.2810  -0.1020

          k =-0.5000 0.0000 0.0000 (423542 PWs)   bands (ev):

   -21.6075 -11.8821 -11.8821  -6.5778  -1.2329  -0.3712  -0.1902  -0.1799

          k =-0.5000 0.2500 0.0000 (423782 PWs)   bands (ev):

   -21.6075 -11.8821 -11.8821  -6.5778  -1.2326  -0.3516  -0.2850  -0.1435

          k =-0.5000-0.5000 0.0000 (423708 PWs)   bands (ev):

   -21.6075 -11.8821 -11.8821  -6.5778  -1.2322  -0.3199  -0.3198  -0.2221

 ------ SPIN DOWN ----------


          k = 0.0000 0.0000 0.0000 (423701 PWs)   bands (ev):

   -21.6075 -11.8821 -11.8821  -6.5778  -1.2338  -0.3245  -0.2115  -0.2110

          k = 0.0000 0.2500 0.0000 (423725 PWs)   bands (ev):

   -21.6075 -11.8821 -11.8821  -6.5778  -1.2334  -0.3506  -0.2026  -0.2013

          k = 0.0000-0.5000 0.0000 (423542 PWs)   bands (ev):

   -21.6075 -11.8821 -11.8821  -6.5778  -1.2330  -0.3716  -0.1885  -0.1825

          k = 0.2500 0.0000 0.0000 (423725 PWs)   bands (ev):

   -21.6075 -11.8821 -11.8821  -6.5778  -1.2334  -0.3505  -0.2060  -0.1981

          k = 0.2500 0.2500 0.0000 (423766 PWs)   bands (ev):

   -21.6075 -11.8821 -11.8821  -6.5778  -1.2330  -0.3451  -0.2809  -0.1030

          k = 0.2500-0.5000 0.0000 (423782 PWs)   bands (ev):

   -21.6075 -11.8821 -11.8821  -6.5778  -1.2326  -0.3520  -0.2836  -0.1448

          k = 0.2500-0.2500 0.0000 (423766 PWs)   bands (ev):

   -21.6075 -11.8821 -11.8821  -6.5778  -1.2330  -0.3449  -0.2808  -0.1027

          k =-0.5000 0.0000 0.0000 (423542 PWs)   bands (ev):

   -21.6075 -11.8821 -11.8821  -6.5778  -1.2330  -0.3712  -0.1906  -0.1813

          k =-0.5000 0.2500 0.0000 (423782 PWs)   bands (ev):

   -21.6075 -11.8821 -11.8821  -6.5778  -1.2326  -0.3523  -0.2852  -0.1471

          k =-0.5000-0.5000 0.0000 (423708 PWs)   bands (ev):

   -21.6075 -11.8821 -11.8821  -6.5778  -1.2322  -0.3199  -0.3197  -0.2218

     the Fermi energy is    -5.3422 ev

!    total energy              =     -23.76908685 Ry
     estimated scf accuracy    <          8.6E-10 Ry
     smearing contrib. (-TS)   =       0.00000000 Ry
     internal energy E=F+TS    =     -23.76908685 Ry

     The total energy is F=E-TS. E is the sum of the following terms:
     one-electron contribution =     -60.26588268 Ry
     hartree contribution      =      31.04051129 Ry
     xc contribution           =      -7.58901896 Ry
     ewald contribution        =      12.71639932 Ry
     Dispersion Correction     =      -0.00035965 Ry
     electric field correction =       0.32926385 Ry

     total magnetization       =    -0.00 Bohr mag/cell
     absolute magnetization    =     0.00 Bohr mag/cell

     convergence has been achieved in   4 iterations

     negative rho (up, down):  2.046E-04 2.046E-04

     Forces acting on atoms (cartesian axes, Ry/au):

     atom    1 type  1   force =     0.00000032    0.00000035    0.01295473
     atom    2 type  2   force =    -0.00000008   -0.00142759   -0.00431786
     atom    3 type  2   force =    -0.00123617    0.00071365   -0.00431834
     atom    4 type  2   force =     0.00123593    0.00071359   -0.00431853

     Total force =     0.007877     Total SCF correction =     0.000011
     Energy error            =      7.3E-05
     Gradient error          =      4.3E-03

     number of scf cycles    =   2
     number of bfgs steps    =   1

     energy   old            =     -23.7690140903 Ry
     energy   new            =     -23.7690868458 Ry

     CASE: energy  _new < energy  _old


     WARNING: bfgs curvature condition failed, Theta= 0.934
     new trust radius        =       0.0055912348 bohr
     new conv_thr            =       0.0000000011 Ry


ATOMIC_POSITIONS (angstrom)
N            10.0000000000       10.0000000000        0.0000000000    0   0   0
H            10.0000006330       10.9544586652       -0.3530999450
H            10.8265846964        9.5227736645       -0.3531064316
H             9.1734160713        9.5227735412       -0.3531082195



     Writing output data file ./NH3_ESM_std.save/
     NEW-OLD atomic charge density approx. for the potential

     negative rho (up, down):  2.048E-04 2.048E-04

     Adding external electric field
        E field amplitude [Ha a.u.]: -1.5855E-03
        Potential amp.       -0.1079 Ry
        Total length         34.0151 bohr

     Generating pointlists ...

     total cpu time spent up to now is      409.7 secs

     Self-consistent Calculation

     iteration #  1     ecut=    60.00 Ry     beta= 0.70
     CG style diagonalization
     ethr =  1.00E-06,  avg # of iterations =  2.5

     Threshold (ethr) on eigenvalues was too large:
     Diagonalizing with lowered threshold

     CG style diagonalization
     ethr =  2.19E-08,  avg # of iterations =  2.9

     negative rho (up, down):  2.047E-04 2.047E-04

     total cpu time spent up to now is      435.2 secs

     total energy              =     -23.76916043 Ry
     estimated scf accuracy    <       0.00000160 Ry

     total magnetization       =    -0.00 Bohr mag/cell
     absolute magnetization    =     0.00 Bohr mag/cell

     iteration #  2     ecut=    60.00 Ry     beta= 0.70
     CG style diagonalization
     ethr =  2.00E-08,  avg # of iterations =  3.1

     negative rho (up, down):  2.046E-04 2.046E-04

     total cpu time spent up to now is      453.2 secs

     total energy              =     -23.76916059 Ry
     estimated scf accuracy    <       0.00000020 Ry

     total magnetization       =    -0.00 Bohr mag/cell
     absolute magnetization    =     0.00 Bohr mag/cell

     iteration #  3     ecut=    60.00 Ry     beta= 0.70
     CG style diagonalization
     ethr =  2.46E-09,  avg # of iterations =  3.5

     negative rho (up, down):  2.046E-04 2.046E-04

     total cpu time spent up to now is      472.0 secs

     total energy              =     -23.76916062 Ry
     estimated scf accuracy    <       0.00000006 Ry

     total magnetization       =     0.00 Bohr mag/cell
     absolute magnetization    =     0.00 Bohr mag/cell

     iteration #  4     ecut=    60.00 Ry     beta= 0.70
     CG style diagonalization
     ethr =  7.25E-10,  avg # of iterations =  3.4

     negative rho (up, down):  2.046E-04 2.046E-04

     Magnetic moment per site:
     atom:    1    charge:    1.3365    magn:   -0.0000    constr:    0.0000
     atom:    2    charge:    0.4445    magn:   -0.0000    constr:    0.0000
     atom:    3    charge:    0.4443    magn:   -0.0000    constr:    0.0000
     atom:    4    charge:    0.4443    magn:   -0.0000    constr:    0.0000

     total cpu time spent up to now is      488.9 secs

     End of self-consistent calculation

 ------ SPIN UP ------------


          k = 0.0000 0.0000 0.0000 (423701 PWs)   bands (ev):

   -21.6170 -11.8778 -11.8778  -6.5887  -1.2339  -0.3246  -0.2113  -0.2110

          k = 0.0000 0.2500 0.0000 (423725 PWs)   bands (ev):

   -21.6170 -11.8778 -11.8778  -6.5887  -1.2335  -0.3506  -0.2022  -0.2008

          k = 0.0000-0.5000 0.0000 (423542 PWs)   bands (ev):

   -21.6170 -11.8778 -11.8778  -6.5887  -1.2331  -0.3713  -0.1885  -0.1837

          k = 0.2500 0.0000 0.0000 (423725 PWs)   bands (ev):

   -21.6170 -11.8778 -11.8778  -6.5887  -1.2335  -0.3505  -0.2055  -0.1982

          k = 0.2500 0.2500 0.0000 (423766 PWs)   bands (ev):

   -21.6170 -11.8778 -11.8778  -6.5887  -1.2331  -0.3456  -0.2808  -0.1017

          k = 0.2500-0.5000 0.0000 (423782 PWs)   bands (ev):

   -21.6170 -11.8778 -11.8778  -6.5887  -1.2327  -0.3522  -0.2847  -0.1467

          k = 0.2500-0.2500 0.0000 (423766 PWs)   bands (ev):

   -21.6170 -11.8778 -11.8778  -6.5887  -1.2331  -0.3455  -0.2808  -0.1020

          k =-0.5000 0.0000 0.0000 (423542 PWs)   bands (ev):

   -21.6170 -11.8778 -11.8778  -6.5887  -1.2331  -0.3711  -0.1901  -0.1800

          k =-0.5000 0.2500 0.0000 (423782 PWs)   bands (ev):

   -21.6170 -11.8778 -11.8778  -6.5887  -1.2327  -0.3516  -0.2849  -0.1438

          k =-0.5000-0.5000 0.0000 (423708 PWs)   bands (ev):

   -21.6170 -11.8778 -11.8778  -6.5887  -1.2323  -0.3198  -0.3196  -0.2220

 ------ SPIN DOWN ----------


          k = 0.0000 0.0000 0.0000 (423701 PWs)   bands (ev):

   -21.6170 -11.8778 -11.8778  -6.5887  -1.2339  -0.3246  -0.2113  -0.2109

          k = 0.0000 0.2500 0.0000 (423725 PWs)   bands (ev):

   -21.6170 -11.8778 -11.8778  -6.5887  -1.2335  -0.3506  -0.2026  -0.2010

          k = 0.0000-0.5000 0.0000 (423542 PWs)   bands (ev):

   -21.6170 -11.8778 -11.8778  -6.5887  -1.2331  -0.3714  -0.1883  -0.1827

          k = 0.2500 0.0000 0.0000 (423725 PWs)   bands (ev):

   -21.6170 -11.8778 -11.8778  -6.5887  -1.2335  -0.3505  -0.2059  -0.1979

          k = 0.2500 0.2500 0.0000 (423766 PWs)   bands (ev):

   -21.6170 -11.8778 -11.8778  -6.5887  -1.2331  -0.3451  -0.2808  -0.1028

          k = 0.2500-0.5000 0.0000 (423782 PWs)   bands (ev):

   -21.6170 -11.8778 -11.8778  -6.5887  -1.2327  -0.3520  -0.2837  -0.1450

          k = 0.2500-0.2500 0.0000 (423766 PWs)   bands (ev):

   -21.6170 -11.8778 -11.8778  -6.5887  -1.2331  -0.3450  -0.2807  -0.1025

          k =-0.5000 0.0000 0.0000 (423542 PWs)   bands (ev):

   -21.6170 -11.8778 -11.8778  -6.5887  -1.2331  -0.3711  -0.1904  -0.1812

          k =-0.5000 0.2500 0.0000 (423782 PWs)   bands (ev):

   -21.6170 -11.8778 -11.8778  -6.5887  -1.2327  -0.3522  -0.2851  -0.1471

          k =-0.5000-0.5000 0.0000 (423708 PWs)   bands (ev):

   -21.6170 -11.8778 -11.8778  -6.5887  -1.2323  -0.3198  -0.3196  -0.2218

     the Fermi energy is    -5.3444 ev

!    total energy              =     -23.76916064 Ry
     estimated scf accuracy    <          4.0E-10 Ry
     smearing contrib. (-TS)   =       0.00000000 Ry
     internal energy E=F+TS    =     -23.76916064 Ry

     The total energy is F=E-TS. E is the sum of the following terms:
     one-electron contribution =     -60.27501928 Ry
     hartree contribution      =      31.04459361 Ry
     xc contribution           =      -7.58971354 Ry
     ewald contribution        =      12.72211833 Ry
     Dispersion Correction     =      -0.00035515 Ry
     electric field correction =       0.32921540 Ry

     total magnetization       =    -0.00 Bohr mag/cell
     absolute magnetization    =     0.00 Bohr mag/cell

     convergence has been achieved in   4 iterations

     negative rho (up, down):  2.046E-04 2.046E-04

     Forces acting on atoms (cartesian axes, Ry/au):

     atom    1 type  1   force =    -0.00000002   -0.00000075    0.01273392
     atom    2 type  2   force =    -0.00000006   -0.00064768   -0.00424462
     atom    3 type  2   force =    -0.00056147    0.00032415   -0.00424465
     atom    4 type  2   force =     0.00056156    0.00032427   -0.00424465

     Total force =     0.007437     Total SCF correction =     0.000002
     Energy error            =      7.4E-05
     Gradient error          =      4.2E-03

     number of scf cycles    =   3
     number of bfgs steps    =   2

     energy   old            =     -23.7690868458 Ry
     energy   new            =     -23.7691606363 Ry

     CASE: energy  _new < energy  _old

     new trust radius        =       0.0083868522 bohr
     new conv_thr            =       0.0000000011 Ry


ATOMIC_POSITIONS (angstrom)
N            10.0000000000       10.0000000000        0.0000000000    0   0   0
H            10.0000005117       10.9529716286       -0.3572812947
H            10.8252964320        9.5235172364       -0.3572878299
H             9.1747043846        9.5235172448       -0.3572896261



     Writing output data file ./NH3_ESM_std.save/
     NEW-OLD atomic charge density approx. for the potential

     negative rho (up, down):  2.048E-04 2.048E-04

     Adding external electric field
        E field amplitude [Ha a.u.]: -1.5855E-03
        Potential amp.       -0.1079 Ry
        Total length         34.0151 bohr

     Generating pointlists ...

     total cpu time spent up to now is      509.7 secs

     Self-consistent Calculation

     iteration #  1     ecut=    60.00 Ry     beta= 0.70
     CG style diagonalization
     ethr =  1.00E-06,  avg # of iterations =  2.5

     Threshold (ethr) on eigenvalues was too large:
     Diagonalizing with lowered threshold

     CG style diagonalization
     ethr =  5.07E-08,  avg # of iterations =  2.6

     negative rho (up, down):  2.046E-04 2.046E-04

     total cpu time spent up to now is      534.8 secs

     total energy              =     -23.76926205 Ry
     estimated scf accuracy    <       0.00000350 Ry

     total magnetization       =     0.00 Bohr mag/cell
     absolute magnetization    =     0.00 Bohr mag/cell

     iteration #  2     ecut=    60.00 Ry     beta= 0.70
     CG style diagonalization
     ethr =  4.37E-08,  avg # of iterations =  3.1

     negative rho (up, down):  2.045E-04 2.045E-04

     total cpu time spent up to now is      552.8 secs

     total energy              =     -23.76926266 Ry
     estimated scf accuracy    <       0.00000034 Ry

     total magnetization       =     0.00 Bohr mag/cell
     absolute magnetization    =     0.00 Bohr mag/cell

     iteration #  3     ecut=    60.00 Ry     beta= 0.70
     CG style diagonalization
     ethr =  4.22E-09,  avg # of iterations =  3.2

     negative rho (up, down):  2.045E-04 2.045E-04

     total cpu time spent up to now is      571.1 secs

     total energy              =     -23.76926274 Ry
     estimated scf accuracy    <          7.5E-09 Ry

     total magnetization       =     0.00 Bohr mag/cell
     absolute magnetization    =     0.00 Bohr mag/cell

     iteration #  4     ecut=    60.00 Ry     beta= 0.70
     CG style diagonalization
     ethr =  9.36E-11,  avg # of iterations =  3.6

     negative rho (up, down):  2.045E-04 2.045E-04

     Magnetic moment per site:
     atom:    1    charge:    1.3363    magn:    0.0000    constr:    0.0000
     atom:    2    charge:    0.4447    magn:   -0.0000    constr:    0.0000
     atom:    3    charge:    0.4444    magn:   -0.0000    constr:    0.0000
     atom:    4    charge:    0.4444    magn:   -0.0000    constr:    0.0000

     total cpu time spent up to now is      588.4 secs

     End of self-consistent calculation

 ------ SPIN UP ------------


          k = 0.0000 0.0000 0.0000 (423701 PWs)   bands (ev):

   -21.6278 -11.8688 -11.8688  -6.6055  -1.2351  -0.3247  -0.2111  -0.2108

          k = 0.0000 0.2500 0.0000 (423725 PWs)   bands (ev):

   -21.6278 -11.8688 -11.8688  -6.6055  -1.2347  -0.3505  -0.2023  -0.2006

          k = 0.0000-0.5000 0.0000 (423542 PWs)   bands (ev):

   -21.6278 -11.8688 -11.8688  -6.6055  -1.2343  -0.3712  -0.1882  -0.1839

          k = 0.2500 0.0000 0.0000 (423725 PWs)   bands (ev):

   -21.6278 -11.8688 -11.8688  -6.6055  -1.2347  -0.3505  -0.2054  -0.1980

          k = 0.2500 0.2500 0.0000 (423766 PWs)   bands (ev):

   -21.6278 -11.8688 -11.8688  -6.6055  -1.2343  -0.3455  -0.2806  -0.1015

          k = 0.2500-0.5000 0.0000 (423782 PWs)   bands (ev):

   -21.6278 -11.8688 -11.8688  -6.6055  -1.2339  -0.3521  -0.2847  -0.1466

          k = 0.2500-0.2500 0.0000 (423766 PWs)   bands (ev):

   -21.6278 -11.8688 -11.8688  -6.6055  -1.2343  -0.3455  -0.2807  -0.1019

          k =-0.5000 0.0000 0.0000 (423542 PWs)   bands (ev):

   -21.6278 -11.8688 -11.8688  -6.6055  -1.2343  -0.3711  -0.1900  -0.1802

          k =-0.5000 0.2500 0.0000 (423782 PWs)   bands (ev):

   -21.6278 -11.8688 -11.8688  -6.6055  -1.2339  -0.3516  -0.2848  -0.1439

          k =-0.5000-0.5000 0.0000 (423708 PWs)   bands (ev):

   -21.6278 -11.8688 -11.8688  -6.6055  -1.2335  -0.3196  -0.3195  -0.2220

 ------ SPIN DOWN ----------


          k = 0.0000 0.0000 0.0000 (423701 PWs)   bands (ev):

   -21.6278 -11.8688 -11.8688  -6.6055  -1.2351  -0.3248  -0.2110  -0.2107

          k = 0.0000 0.2500 0.0000 (423725 PWs)   bands (ev):

   -21.6278 -11.8688 -11.8688  -6.6055  -1.2347  -0.3505  -0.2027  -0.2007

          k = 0.0000-0.5000 0.0000 (423542 PWs)   bands (ev):

   -21.6278 -11.8688 -11.8688  -6.6055  -1.2343  -0.3713  -0.1881  -0.1830

          k = 0.2500 0.0000 0.0000 (423725 PWs)   bands (ev):

   -21.6278 -11.8688 -11.8688  -6.6055  -1.2347  -0.3504  -0.2058  -0.1978

          k = 0.2500 0.2500 0.0000 (423766 PWs)   bands (ev):

   -21.6278 -11.8688 -11.8688  -6.6055  -1.2343  -0.3452  -0.2806  -0.1026

          k = 0.2500-0.5000 0.0000 (423782 PWs)   bands (ev):

   -21.6278 -11.8688 -11.8688  -6.6055  -1.2339  -0.3519  -0.2838  -0.1451

          k = 0.2500-0.2500 0.0000 (423766 PWs)   bands (ev):

   -21.6278 -11.8688 -11.8688  -6.6055  -1.2343  -0.3450  -0.2805  -0.1024

          k =-0.5000 0.0000 0.0000 (423542 PWs)   bands (ev):

   -21.6278 -11.8688 -11.8688  -6.6055  -1.2343  -0.3710  -0.1903  -0.1813

          k =-0.5000 0.2500 0.0000 (423782 PWs)   bands (ev):

   -21.6278 -11.8688 -11.8688  -6.6055  -1.2339  -0.3521  -0.2850  -0.1470

          k =-0.5000-0.5000 0.0000 (423708 PWs)   bands (ev):

   -21.6278 -11.8688 -11.8688  -6.6055  -1.2335  -0.3196  -0.3194  -0.2218

     the Fermi energy is    -5.3470 ev

!    total energy              =     -23.76926274 Ry
     estimated scf accuracy    <          2.2E-10 Ry
     smearing contrib. (-TS)   =       0.00000000 Ry
     internal energy E=F+TS    =     -23.76926274 Ry

     The total energy is F=E-TS. E is the sum of the following terms:
     one-electron contribution =     -60.27769170 Ry
     hartree contribution      =      31.04533781 Ry
     xc contribution           =      -7.58980396 Ry
     ewald contribution        =      12.72410462 Ry
     Dispersion Correction     =      -0.00034975 Ry
     electric field correction =       0.32914023 Ry

     total magnetization       =     0.00 Bohr mag/cell
     absolute magnetization    =     0.00 Bohr mag/cell

     convergence has been achieved in   4 iterations

     negative rho (up, down):  2.045E-04 2.045E-04

     Forces acting on atoms (cartesian axes, Ry/au):

     atom    1 type  1   force =     0.00000006   -0.00000016    0.01184259
     atom    2 type  2   force =    -0.00000002   -0.00008543   -0.00394738
     atom    3 type  2   force =    -0.00007398    0.00004279   -0.00394759
     atom    4 type  2   force =     0.00007394    0.00004279   -0.00394762

     Total force =     0.006839     Total SCF correction =     0.000005
     Energy error            =      1.0E-04
     Gradient error          =      3.9E-03

     number of scf cycles    =   4
     number of bfgs steps    =   3

     energy   old            =     -23.7691606363 Ry
     energy   new            =     -23.7692627418 Ry

     CASE: energy  _new < energy  _old

     new trust radius        =       0.0125802783 bohr
     new conv_thr            =       0.0000000010 Ry


ATOMIC_POSITIONS (angstrom)
N            10.0000000000       10.0000000000        0.0000000000    0   0   0
H            10.0000003507       10.9509964675       -0.3636384029
H            10.8235856962        9.5245046613       -0.3636451829
H             9.1764150787        9.5245047709       -0.3636470300



     Writing output data file ./NH3_ESM_std.save/
     NEW-OLD atomic charge density approx. for the potential

     negative rho (up, down):  2.047E-04 2.047E-04

     Adding external electric field
        E field amplitude [Ha a.u.]: -1.5855E-03
        Potential amp.       -0.1079 Ry
        Total length         34.0151 bohr

     Generating pointlists ...

     total cpu time spent up to now is      609.2 secs

     Self-consistent Calculation

     iteration #  1     ecut=    60.00 Ry     beta= 0.70
     CG style diagonalization
     ethr =  1.00E-06,  avg # of iterations =  2.6

     negative rho (up, down):  2.042E-04 2.042E-04

     total cpu time spent up to now is      626.5 secs

     total energy              =     -23.76938915 Ry
     estimated scf accuracy    <       0.00001011 Ry

     total magnetization       =    -0.00 Bohr mag/cell
     absolute magnetization    =     0.00 Bohr mag/cell

     iteration #  2     ecut=    60.00 Ry     beta= 0.70
     CG style diagonalization
     ethr =  1.26E-07,  avg # of iterations =  3.8

     negative rho (up, down):  2.043E-04 2.043E-04

     total cpu time spent up to now is      645.7 secs

     total energy              =     -23.76939553 Ry
     estimated scf accuracy    <       0.00000073 Ry

     total magnetization       =    -0.00 Bohr mag/cell
     absolute magnetization    =     0.00 Bohr mag/cell

     iteration #  3     ecut=    60.00 Ry     beta= 0.70
     CG style diagonalization
     ethr =  9.10E-09,  avg # of iterations =  3.5

     negative rho (up, down):  2.043E-04 2.043E-04

     total cpu time spent up to now is      664.5 secs

     total energy              =     -23.76939592 Ry
     estimated scf accuracy    <       0.00000025 Ry

     total magnetization       =    -0.00 Bohr mag/cell
     absolute magnetization    =     0.00 Bohr mag/cell

     iteration #  4     ecut=    60.00 Ry     beta= 0.70
     CG style diagonalization
     ethr =  3.15E-09,  avg # of iterations =  3.6

     negative rho (up, down):  2.043E-04 2.043E-04

     total cpu time spent up to now is      683.6 secs

     total energy              =     -23.76939599 Ry
     estimated scf accuracy    <       0.00000002 Ry

     total magnetization       =    -0.00 Bohr mag/cell
     absolute magnetization    =     0.00 Bohr mag/cell

     iteration #  5     ecut=    60.00 Ry     beta= 0.70
     CG style diagonalization
     ethr =  2.20E-10,  avg # of iterations =  3.6

     negative rho (up, down):  2.043E-04 2.043E-04

     Magnetic moment per site:
     atom:    1    charge:    1.3358    magn:   -0.0000    constr:    0.0000
     atom:    2    charge:    0.4448    magn:    0.0000    constr:    0.0000
     atom:    3    charge:    0.4444    magn:    0.0000    constr:    0.0000
     atom:    4    charge:    0.4444    magn:    0.0000    constr:    0.0000

     total cpu time spent up to now is      700.9 secs

     End of self-consistent calculation

 ------ SPIN UP ------------


          k = 0.0000 0.0000 0.0000 (423701 PWs)   bands (ev):

   -21.6406 -11.8527 -11.8527  -6.6303  -1.2376  -0.3249  -0.2109  -0.2106

          k = 0.0000 0.2500 0.0000 (423725 PWs)   bands (ev):

   -21.6406 -11.8527 -11.8527  -6.6303  -1.2372  -0.3504  -0.2024  -0.2003

          k = 0.0000-0.5000 0.0000 (423542 PWs)   bands (ev):

   -21.6406 -11.8527 -11.8527  -6.6303  -1.2368  -0.3711  -0.1879  -0.1840

          k = 0.2500 0.0000 0.0000 (423725 PWs)   bands (ev):

   -21.6406 -11.8527 -11.8527  -6.6303  -1.2372  -0.3504  -0.2053  -0.1978

          k = 0.2500 0.2500 0.0000 (423766 PWs)   bands (ev):

   -21.6406 -11.8527 -11.8527  -6.6303  -1.2368  -0.3454  -0.2804  -0.1014

          k = 0.2500-0.5000 0.0000 (423782 PWs)   bands (ev):

   -21.6406 -11.8527 -11.8527  -6.6303  -1.2364  -0.3519  -0.2845  -0.1465

          k = 0.2500-0.2500 0.0000 (423766 PWs)   bands (ev):

   -21.6406 -11.8527 -11.8527  -6.6303  -1.2368  -0.3454  -0.2804  -0.1019

          k =-0.5000 0.0000 0.0000 (423542 PWs)   bands (ev):

   -21.6406 -11.8527 -11.8527  -6.6303  -1.2368  -0.3709  -0.1899  -0.1804

          k =-0.5000 0.2500 0.0000 (423782 PWs)   bands (ev):

   -21.6406 -11.8527 -11.8527  -6.6303  -1.2364  -0.3515  -0.2847  -0.1440

          k =-0.5000-0.5000 0.0000 (423708 PWs)   bands (ev):

   -21.6406 -11.8527 -11.8527  -6.6303  -1.2360  -0.3194  -0.3193  -0.2219

 ------ SPIN DOWN ----------


          k = 0.0000 0.0000 0.0000 (423701 PWs)   bands (ev):

   -21.6407 -11.8527 -11.8527  -6.6304  -1.2376  -0.3250  -0.2108  -0.2105

          k = 0.0000 0.2500 0.0000 (423725 PWs)   bands (ev):

   -21.6407 -11.8527 -11.8527  -6.6304  -1.2372  -0.3504  -0.2027  -0.2004

          k = 0.0000-0.5000 0.0000 (423542 PWs)   bands (ev):

   -21.6407 -11.8527 -11.8527  -6.6304  -1.2367  -0.3711  -0.1878  -0.1833

          k = 0.2500 0.0000 0.0000 (423725 PWs)   bands (ev):

   -21.6407 -11.8527 -11.8527  -6.6304  -1.2372  -0.3503  -0.2057  -0.1976

          k = 0.2500 0.2500 0.0000 (423766 PWs)   bands (ev):

   -21.6407 -11.8527 -11.8527  -6.6304  -1.2368  -0.3451  -0.2804  -0.1025

          k = 0.2500-0.5000 0.0000 (423782 PWs)   bands (ev):

   -21.6407 -11.8527 -11.8527  -6.6304  -1.2364  -0.3518  -0.2838  -0.1451

          k = 0.2500-0.2500 0.0000 (423766 PWs)   bands (ev):

   -21.6407 -11.8527 -11.8527  -6.6304  -1.2368  -0.3450  -0.2803  -0.1022

          k =-0.5000 0.0000 0.0000 (423542 PWs)   bands (ev):

   -21.6407 -11.8527 -11.8527  -6.6304  -1.2367  -0.3709  -0.1902  -0.1813

          k =-0.5000 0.2500 0.0000 (423782 PWs)   bands (ev):

   -21.6407 -11.8527 -11.8527  -6.6304  -1.2364  -0.3519  -0.2848  -0.1469

          k =-0.5000-0.5000 0.0000 (423708 PWs)   bands (ev):

   -21.6407 -11.8527 -11.8527  -6.6304  -1.2360  -0.3193  -0.3192  -0.2217

     the Fermi energy is    -5.3502 ev

!    total energy              =     -23.76939600 Ry
     estimated scf accuracy    <          5.5E-10 Ry
     smearing contrib. (-TS)   =       0.00000000 Ry
     internal energy E=F+TS    =     -23.76939600 Ry

     The total energy is F=E-TS. E is the sum of the following terms:
     one-electron contribution =     -60.27306805 Ry
     hartree contribution      =      31.04227454 Ry
     xc contribution           =      -7.58919077 Ry
     ewald contribution        =      12.72190504 Ry
     Dispersion Correction     =      -0.00034271 Ry
     electric field correction =       0.32902595 Ry

     total magnetization       =     0.00 Bohr mag/cell
     absolute magnetization    =     0.00 Bohr mag/cell

     convergence has been achieved in   5 iterations

     negative rho (up, down):  2.043E-04 2.043E-04

     Forces acting on atoms (cartesian axes, Ry/au):

     atom    1 type  1   force =    -0.00000001   -0.00000025    0.01003375
     atom    2 type  2   force =     0.00000003    0.00028618   -0.00334447
     atom    3 type  2   force =     0.00024788   -0.00014294   -0.00334464
     atom    4 type  2   force =    -0.00024790   -0.00014299   -0.00334464

     Total force =     0.005814     Total SCF correction =     0.000010
     Energy error            =      1.3E-04
     Gradient error          =      3.3E-03

     number of scf cycles    =   5
     number of bfgs steps    =   4

     energy   old            =     -23.7692627418 Ry
     energy   new            =     -23.7693960004 Ry

     CASE: energy  _new < energy  _old

     new trust radius        =       0.0188704175 bohr
     new conv_thr            =       0.0000000009 Ry


ATOMIC_POSITIONS (angstrom)
N            10.0000000000       10.0000000000        0.0000000000    0   0   0
H            10.0000001432       10.9482357507       -0.3732345291
H            10.8211946159        9.5258848224       -0.3732416860
H             9.1788061015        9.5258850418       -0.3732435899



     Writing output data file ./NH3_ESM_std.save/
     NEW-OLD atomic charge density approx. for the potential

     negative rho (up, down):  2.045E-04 2.045E-04

     Adding external electric field
        E field amplitude [Ha a.u.]: -1.5855E-03
        Potential amp.       -0.1079 Ry
        Total length         34.0151 bohr

     Generating pointlists ...

     total cpu time spent up to now is      722.0 secs

     Self-consistent Calculation

     iteration #  1     ecut=    60.00 Ry     beta= 0.70
     CG style diagonalization
     ethr =  1.00E-06,  avg # of iterations =  3.2

     negative rho (up, down):  2.037E-04 2.037E-04

     total cpu time spent up to now is      740.6 secs

     total energy              =     -23.76953315 Ry
     estimated scf accuracy    <       0.00002698 Ry

     total magnetization       =     0.00 Bohr mag/cell
     absolute magnetization    =     0.00 Bohr mag/cell

     iteration #  2     ecut=    60.00 Ry     beta= 0.70
     CG style diagonalization
     ethr =  3.37E-07,  avg # of iterations =  3.6

     negative rho (up, down):  2.039E-04 2.039E-04

     total cpu time spent up to now is      759.5 secs

     total energy              =     -23.76954560 Ry
     estimated scf accuracy    <       0.00000358 Ry

     total magnetization       =    -0.00 Bohr mag/cell
     absolute magnetization    =     0.00 Bohr mag/cell

     iteration #  3     ecut=    60.00 Ry     beta= 0.70
     CG style diagonalization
     ethr =  4.48E-08,  avg # of iterations =  3.5

     negative rho (up, down):  2.038E-04 2.038E-04

     total cpu time spent up to now is      778.2 secs

     total energy              =     -23.76954707 Ry
     estimated scf accuracy    <       0.00000074 Ry

     total magnetization       =     0.00 Bohr mag/cell
     absolute magnetization    =     0.00 Bohr mag/cell

     iteration #  4     ecut=    60.00 Ry     beta= 0.70
     CG style diagonalization
     ethr =  9.30E-09,  avg # of iterations =  3.6

     negative rho (up, down):  2.039E-04 2.039E-04

     total cpu time spent up to now is      797.3 secs

     total energy              =     -23.76954732 Ry
     estimated scf accuracy    <       0.00000001 Ry

     total magnetization       =    -0.00 Bohr mag/cell
     absolute magnetization    =     0.00 Bohr mag/cell

     iteration #  5     ecut=    60.00 Ry     beta= 0.70
     CG style diagonalization
     ethr =  1.59E-10,  avg # of iterations =  3.8

     negative rho (up, down):  2.039E-04 2.039E-04

     total cpu time spent up to now is      816.8 secs

     total energy              =     -23.76954733 Ry
     estimated scf accuracy    <          2.0E-09 Ry

     total magnetization       =    -0.00 Bohr mag/cell
     absolute magnetization    =     0.00 Bohr mag/cell

     iteration #  6     ecut=    60.00 Ry     beta= 0.70
     CG style diagonalization
     ethr =  2.56E-11,  avg # of iterations =  3.5

     negative rho (up, down):  2.039E-04 2.039E-04

     Magnetic moment per site:
     atom:    1    charge:    1.3350    magn:   -0.0000    constr:    0.0000
     atom:    2    charge:    0.4444    magn:    0.0000    constr:    0.0000
     atom:    3    charge:    0.4440    magn:    0.0000    constr:    0.0000
     atom:    4    charge:    0.4440    magn:    0.0000    constr:    0.0000

     total cpu time spent up to now is      834.0 secs

     End of self-consistent calculation

 ------ SPIN UP ------------


          k = 0.0000 0.0000 0.0000 (423701 PWs)   bands (ev):

   -21.6571 -11.8260 -11.8260  -6.6680  -1.2419  -0.3252  -0.2105  -0.2102

          k = 0.0000 0.2500 0.0000 (423725 PWs)   bands (ev):

   -21.6571 -11.8260 -11.8260  -6.6680  -1.2415  -0.3503  -0.2025  -0.2000

          k = 0.0000-0.5000 0.0000 (423542 PWs)   bands (ev):

   -21.6571 -11.8260 -11.8260  -6.6680  -1.2411  -0.3708  -0.1876  -0.1843

          k = 0.2500 0.0000 0.0000 (423725 PWs)   bands (ev):

   -21.6571 -11.8260 -11.8260  -6.6680  -1.2415  -0.3503  -0.2052  -0.1975

          k = 0.2500 0.2500 0.0000 (423766 PWs)   bands (ev):

   -21.6571 -11.8260 -11.8260  -6.6680  -1.2411  -0.3453  -0.2801  -0.1013

          k = 0.2500-0.5000 0.0000 (423782 PWs)   bands (ev):

   -21.6571 -11.8260 -11.8260  -6.6680  -1.2408  -0.3517  -0.2844  -0.1464

          k = 0.2500-0.2500 0.0000 (423766 PWs)   bands (ev):

   -21.6571 -11.8260 -11.8260  -6.6680  -1.2411  -0.3453  -0.2801  -0.1018

          k =-0.5000 0.0000 0.0000 (423542 PWs)   bands (ev):

   -21.6571 -11.8260 -11.8260  -6.6680  -1.2411  -0.3707  -0.1897  -0.1806

          k =-0.5000 0.2500 0.0000 (423782 PWs)   bands (ev):

   -21.6571 -11.8260 -11.8260  -6.6680  -1.2407  -0.3513  -0.2845  -0.1440

          k =-0.5000-0.5000 0.0000 (423708 PWs)   bands (ev):

   -21.6571 -11.8260 -11.8260  -6.6680  -1.2404  -0.3191  -0.3190  -0.2217

 ------ SPIN DOWN ----------


          k = 0.0000 0.0000 0.0000 (423701 PWs)   bands (ev):

   -21.6571 -11.8260 -11.8260  -6.6680  -1.2419  -0.3252  -0.2104  -0.2102

          k = 0.0000 0.2500 0.0000 (423725 PWs)   bands (ev):

   -21.6571 -11.8260 -11.8260  -6.6680  -1.2415  -0.3503  -0.2028  -0.2001

          k = 0.0000-0.5000 0.0000 (423542 PWs)   bands (ev):

   -21.6571 -11.8260 -11.8260  -6.6680  -1.2411  -0.3708  -0.1874  -0.1837

          k = 0.2500 0.0000 0.0000 (423725 PWs)   bands (ev):

   -21.6571 -11.8260 -11.8260  -6.6680  -1.2415  -0.3503  -0.2055  -0.1974

          k = 0.2500 0.2500 0.0000 (423766 PWs)   bands (ev):

   -21.6571 -11.8260 -11.8260  -6.6680  -1.2411  -0.3450  -0.2801  -0.1023

          k = 0.2500-0.5000 0.0000 (423782 PWs)   bands (ev):

   -21.6571 -11.8260 -11.8260  -6.6680  -1.2407  -0.3515  -0.2837  -0.1451

          k = 0.2500-0.2500 0.0000 (423766 PWs)   bands (ev):

   -21.6571 -11.8260 -11.8260  -6.6680  -1.2411  -0.3450  -0.2800  -0.1021

          k =-0.5000 0.0000 0.0000 (423542 PWs)   bands (ev):

   -21.6571 -11.8260 -11.8260  -6.6680  -1.2411  -0.3706  -0.1900  -0.1814

          k =-0.5000 0.2500 0.0000 (423782 PWs)   bands (ev):

   -21.6571 -11.8260 -11.8260  -6.6680  -1.2408  -0.3516  -0.2846  -0.1467

          k =-0.5000-0.5000 0.0000 (423708 PWs)   bands (ev):

   -21.6571 -11.8260 -11.8260  -6.6680  -1.2404  -0.3190  -0.3189  -0.2216

     the Fermi energy is    -5.3542 ev

!    total energy              =     -23.76954733 Ry
     estimated scf accuracy    <          1.0E-10 Ry
     smearing contrib. (-TS)   =       0.00000000 Ry
     internal energy E=F+TS    =     -23.76954733 Ry

     The total energy is F=E-TS. E is the sum of the following terms:
     one-electron contribution =     -60.25785490 Ry
     hartree contribution      =      31.03352619 Ry
     xc contribution           =      -7.58752012 Ry
     ewald contribution        =      12.71378116 Ry
     Dispersion Correction     =      -0.00033312 Ry
     electric field correction =       0.32885344 Ry

     total magnetization       =    -0.00 Bohr mag/cell
     absolute magnetization    =     0.00 Bohr mag/cell

     convergence has been achieved in   6 iterations

     negative rho (up, down):  2.039E-04 2.039E-04

     Forces acting on atoms (cartesian axes, Ry/au):

     atom    1 type  1   force =    -0.00000011   -0.00000066    0.00678329
     atom    2 type  2   force =     0.00000008    0.00044544   -0.00226105
     atom    3 type  2   force =     0.00038571   -0.00022235   -0.00226115
     atom    4 type  2   force =    -0.00038568   -0.00022243   -0.00226109

     Total force =     0.003992     Total SCF correction =     0.000004
     Energy error            =      1.5E-04
     Gradient error          =      2.3E-03

     number of scf cycles    =   6
     number of bfgs steps    =   5

     energy   old            =     -23.7693960004 Ry
     energy   new            =     -23.7695473320 Ry

     CASE: energy  _new < energy  _old

     new trust radius        =       0.0283056263 bohr
     new conv_thr            =       0.0000000006 Ry


ATOMIC_POSITIONS (angstrom)
N            10.0000000000       10.0000000000        0.0000000000    0   0   0
H             9.9999999040       10.9442799149       -0.3876807378
H            10.8177683370        9.5278627381       -0.3876884517
H             9.1822323322        9.5278630560       -0.3876903760



     Writing output data file ./NH3_ESM_std.save/
     NEW-OLD atomic charge density approx. for the potential

     negative rho (up, down):  2.041E-04 2.041E-04

     Adding external electric field
        E field amplitude [Ha a.u.]: -1.5855E-03
        Potential amp.       -0.1079 Ry
        Total length         34.0151 bohr

     Generating pointlists ...

     total cpu time spent up to now is      855.2 secs

     Self-consistent Calculation

     iteration #  1     ecut=    60.00 Ry     beta= 0.70
     CG style diagonalization
     ethr =  1.00E-06,  avg # of iterations =  3.6

     negative rho (up, down):  2.029E-04 2.029E-04

     total cpu time spent up to now is      874.5 secs

     total energy              =     -23.76962923 Ry
     estimated scf accuracy    <       0.00006029 Ry

     total magnetization       =     0.00 Bohr mag/cell
     absolute magnetization    =     0.00 Bohr mag/cell

     iteration #  2     ecut=    60.00 Ry     beta= 0.70
     CG style diagonalization
     ethr =  7.54E-07,  avg # of iterations =  3.6

     negative rho (up, down):  2.033E-04 2.033E-04

     total cpu time spent up to now is      893.3 secs

     total energy              =     -23.76964936 Ry
     estimated scf accuracy    <       0.00001067 Ry

     total magnetization       =     0.00 Bohr mag/cell
     absolute magnetization    =     0.00 Bohr mag/cell

     iteration #  3     ecut=    60.00 Ry     beta= 0.70
     CG style diagonalization
     ethr =  1.33E-07,  avg # of iterations =  3.4

     negative rho (up, down):  2.032E-04 2.032E-04

     total cpu time spent up to now is      911.9 secs

     total energy              =     -23.76965356 Ry
     estimated scf accuracy    <       0.00000165 Ry

     total magnetization       =    -0.00 Bohr mag/cell
     absolute magnetization    =     0.00 Bohr mag/cell

     iteration #  4     ecut=    60.00 Ry     beta= 0.70
     CG style diagonalization
     ethr =  2.06E-08,  avg # of iterations =  3.2

     negative rho (up, down):  2.033E-04 2.033E-04

     total cpu time spent up to now is      930.2 secs

     total energy              =     -23.76965401 Ry
     estimated scf accuracy    <       0.00000002 Ry

     total magnetization       =     0.00 Bohr mag/cell
     absolute magnetization    =     0.00 Bohr mag/cell

     iteration #  5     ecut=    60.00 Ry     beta= 0.70
     CG style diagonalization
     ethr =  2.85E-10,  avg # of iterations =  4.5

     negative rho (up, down):  2.033E-04 2.033E-04

     total cpu time spent up to now is      951.1 secs

     total energy              =     -23.76965407 Ry
     estimated scf accuracy    <       0.00000006 Ry

     total magnetization       =     0.00 Bohr mag/cell
     absolute magnetization    =     0.00 Bohr mag/cell

     iteration #  6     ecut=    60.00 Ry     beta= 0.70
     CG style diagonalization
     ethr =  2.85E-10,  avg # of iterations =  3.4

     negative rho (up, down):  2.033E-04 2.033E-04

     total cpu time spent up to now is      969.9 secs

     total energy              =     -23.76965406 Ry
     estimated scf accuracy    <       0.00000001 Ry

     total magnetization       =     0.00 Bohr mag/cell
     absolute magnetization    =     0.00 Bohr mag/cell

     iteration #  7     ecut=    60.00 Ry     beta= 0.70
     CG style diagonalization
     ethr =  1.65E-10,  avg # of iterations =  3.0

     negative rho (up, down):  2.033E-04 2.033E-04

     total cpu time spent up to now is      988.1 secs

     total energy              =     -23.76965406 Ry
     estimated scf accuracy    <          3.7E-09 Ry

     total magnetization       =    -0.00 Bohr mag/cell
     absolute magnetization    =     0.00 Bohr mag/cell

     iteration #  8     ecut=    60.00 Ry     beta= 0.70
     CG style diagonalization
     ethr =  4.67E-11,  avg # of iterations =  4.2

     negative rho (up, down):  2.033E-04 2.033E-04

     total cpu time spent up to now is     1008.8 secs

     total energy              =     -23.76965406 Ry
     estimated scf accuracy    <          9.6E-10 Ry

     total magnetization       =     0.00 Bohr mag/cell
     absolute magnetization    =     0.00 Bohr mag/cell

     iteration #  9     ecut=    60.00 Ry     beta= 0.70
     CG style diagonalization
     ethr =  1.20E-11,  avg # of iterations =  3.2

     negative rho (up, down):  2.033E-04 2.033E-04

     Magnetic moment per site:
     atom:    1    charge:    1.3335    magn:    0.0000    constr:    0.0000
     atom:    2    charge:    0.4433    magn:   -0.0000    constr:    0.0000
     atom:    3    charge:    0.4433    magn:   -0.0000    constr:    0.0000
     atom:    4    charge:    0.4433    magn:   -0.0000    constr:    0.0000

     total cpu time spent up to now is     1025.5 secs

     End of self-consistent calculation

 ------ SPIN UP ------------


          k = 0.0000 0.0000 0.0000 (423701 PWs)   bands (ev):

   -21.6786 -11.7826 -11.7826  -6.7260  -1.2495  -0.3256  -0.2101  -0.2099

          k = 0.0000 0.2500 0.0000 (423725 PWs)   bands (ev):

   -21.6786 -11.7826 -11.7826  -6.7260  -1.2491  -0.3502  -0.2028  -0.1996

          k = 0.0000-0.5000 0.0000 (423542 PWs)   bands (ev):

   -21.6786 -11.7826 -11.7826  -6.7260  -1.2487  -0.3704  -0.1871  -0.1849

          k = 0.2500 0.0000 0.0000 (423725 PWs)   bands (ev):

   -21.6786 -11.7826 -11.7826  -6.7260  -1.2491  -0.3502  -0.2053  -0.1973

          k = 0.2500 0.2500 0.0000 (423766 PWs)   bands (ev):

   -21.6786 -11.7826 -11.7826  -6.7260  -1.2488  -0.3452  -0.2797  -0.1013

          k = 0.2500-0.5000 0.0000 (423782 PWs)   bands (ev):

   -21.6786 -11.7826 -11.7826  -6.7260  -1.2484  -0.3513  -0.2841  -0.1462

          k = 0.2500-0.2500 0.0000 (423766 PWs)   bands (ev):

   -21.6786 -11.7826 -11.7826  -6.7260  -1.2488  -0.3451  -0.2797  -0.1018

          k =-0.5000 0.0000 0.0000 (423542 PWs)   bands (ev):

   -21.6786 -11.7826 -11.7826  -6.7260  -1.2488  -0.3703  -0.1897  -0.1810

          k =-0.5000 0.2500 0.0000 (423782 PWs)   bands (ev):

   -21.6786 -11.7826 -11.7826  -6.7260  -1.2484  -0.3510  -0.2843  -0.1441

          k =-0.5000-0.5000 0.0000 (423708 PWs)   bands (ev):

   -21.6786 -11.7826 -11.7826  -6.7260  -1.2480  -0.3186  -0.3186  -0.2214

 ------ SPIN DOWN ----------


          k = 0.0000 0.0000 0.0000 (423701 PWs)   bands (ev):

   -21.6786 -11.7826 -11.7826  -6.7260  -1.2495  -0.3256  -0.2101  -0.2099

          k = 0.0000 0.2500 0.0000 (423725 PWs)   bands (ev):

   -21.6786 -11.7826 -11.7826  -6.7260  -1.2491  -0.3502  -0.2030  -0.1996

          k = 0.0000-0.5000 0.0000 (423542 PWs)   bands (ev):

   -21.6786 -11.7826 -11.7826  -6.7260  -1.2488  -0.3704  -0.1871  -0.1844

          k = 0.2500 0.0000 0.0000 (423725 PWs)   bands (ev):

   -21.6786 -11.7826 -11.7826  -6.7260  -1.2491  -0.3502  -0.2055  -0.1972

          k = 0.2500 0.2500 0.0000 (423766 PWs)   bands (ev):

   -21.6786 -11.7826 -11.7826  -6.7260  -1.2488  -0.3450  -0.2797  -0.1022

          k = 0.2500-0.5000 0.0000 (423782 PWs)   bands (ev):

   -21.6786 -11.7826 -11.7826  -6.7260  -1.2484  -0.3512  -0.2837  -0.1450

          k = 0.2500-0.2500 0.0000 (423766 PWs)   bands (ev):

   -21.6786 -11.7826 -11.7826  -6.7260  -1.2488  -0.3449  -0.2797  -0.1020

          k =-0.5000 0.0000 0.0000 (423542 PWs)   bands (ev):

   -21.6786 -11.7826 -11.7826  -6.7260  -1.2488  -0.3703  -0.1900  -0.1816

          k =-0.5000 0.2500 0.0000 (423782 PWs)   bands (ev):

   -21.6786 -11.7826 -11.7826  -6.7260  -1.2484  -0.3513  -0.2843  -0.1464

          k =-0.5000-0.5000 0.0000 (423708 PWs)   bands (ev):

   -21.6786 -11.7826 -11.7826  -6.7260  -1.2480  -0.3186  -0.3186  -0.2214

     the Fermi energy is    -5.3596 ev

!    total energy              =     -23.76965406 Ry
     estimated scf accuracy    <          4.0E-10 Ry
     smearing contrib. (-TS)   =       0.00000000 Ry
     internal energy E=F+TS    =     -23.76965406 Ry

     The total energy is F=E-TS. E is the sum of the following terms:
     one-electron contribution =     -60.22472931 Ry
     hartree contribution      =      31.01521840 Ry
     xc contribution           =      -7.58406219 Ry
     ewald contribution        =      12.69564515 Ry
     Dispersion Correction     =      -0.00031984 Ry
     electric field correction =       0.32859374 Ry

     total magnetization       =    -0.00 Bohr mag/cell
     absolute magnetization    =     0.00 Bohr mag/cell

     convergence has been achieved in   9 iterations

     negative rho (up, down):  2.033E-04 2.033E-04

     Forces acting on atoms (cartesian axes, Ry/au):

     atom    1 type  1   force =    -0.00000021   -0.00000063    0.00105066
     atom    2 type  2   force =     0.00000015    0.00024760   -0.00035023
     atom    3 type  2   force =     0.00021460   -0.00012342   -0.00035027
     atom    4 type  2   force =    -0.00021454   -0.00012356   -0.00035017

     Total force =     0.000743     Total SCF correction =     0.000011
     Energy error            =      1.1E-04
     Gradient error          =      3.5E-04

     number of scf cycles    =   7
     number of bfgs steps    =   6

     energy   old            =     -23.7695473320 Ry
     energy   new            =     -23.7696540630 Ry

     CASE: energy  _new < energy  _old

     new trust radius        =       0.0042556693 bohr
     new conv_thr            =            1.0E-10 Ry


ATOMIC_POSITIONS (angstrom)
N            10.0000000000       10.0000000000        0.0000000000    0   0   0
H             9.9999999503       10.9437537461       -0.3898702979
H            10.8173127147        9.5281260122       -0.3898781123
H             9.1826879774        9.5281262655       -0.3898799846



     Writing output data file ./NH3_ESM_std.save/
     NEW-OLD atomic charge density approx. for the potential

     negative rho (up, down):  2.033E-04 2.033E-04

     Adding external electric field
        E field amplitude [Ha a.u.]: -1.5855E-03
        Potential amp.       -0.1079 Ry
        Total length         34.0151 bohr

     Generating pointlists ...

     total cpu time spent up to now is     1047.5 secs

     Self-consistent Calculation

     iteration #  1     ecut=    60.00 Ry     beta= 0.70
     CG style diagonalization
     ethr =  1.00E-06,  avg # of iterations =  2.5

     Threshold (ethr) on eigenvalues was too large:
     Diagonalizing with lowered threshold

     CG style diagonalization
     ethr =  1.72E-08,  avg # of iterations =  2.8

     negative rho (up, down):  2.032E-04 2.032E-04

     total cpu time spent up to now is     1072.8 secs

     total energy              =     -23.76965637 Ry
     estimated scf accuracy    <       0.00000142 Ry

     total magnetization       =     0.00 Bohr mag/cell
     absolute magnetization    =     0.00 Bohr mag/cell

     iteration #  2     ecut=    60.00 Ry     beta= 0.70
     CG style diagonalization
     ethr =  1.77E-08,  avg # of iterations =  3.5

     negative rho (up, down):  2.032E-04 2.032E-04

     total cpu time spent up to now is     1091.5 secs

     total energy              =     -23.76965659 Ry
     estimated scf accuracy    <       0.00000037 Ry

     total magnetization       =    -0.00 Bohr mag/cell
     absolute magnetization    =     0.00 Bohr mag/cell

     iteration #  3     ecut=    60.00 Ry     beta= 0.70
     CG style diagonalization
     ethr =  4.66E-09,  avg # of iterations =  3.5

     negative rho (up, down):  2.032E-04 2.032E-04

     total cpu time spent up to now is     1110.3 secs

     total energy              =     -23.76965674 Ry
     estimated scf accuracy    <       0.00000004 Ry

     total magnetization       =    -0.00 Bohr mag/cell
     absolute magnetization    =     0.00 Bohr mag/cell

     iteration #  4     ecut=    60.00 Ry     beta= 0.70
     CG style diagonalization
     ethr =  4.77E-10,  avg # of iterations =  3.4

     negative rho (up, down):  2.032E-04 2.032E-04

     total cpu time spent up to now is     1128.9 secs

     total energy              =     -23.76965674 Ry
     estimated scf accuracy    <          2.9E-10 Ry

     total magnetization       =     0.00 Bohr mag/cell
     absolute magnetization    =     0.00 Bohr mag/cell

     iteration #  5     ecut=    60.00 Ry     beta= 0.70
     CG style diagonalization
     ethr =  3.56E-12,  avg # of iterations =  4.0

     negative rho (up, down):  2.032E-04 2.032E-04

     Magnetic moment per site:
     atom:    1    charge:    1.3332    magn:    0.0000    constr:    0.0000
     atom:    2    charge:    0.4431    magn:   -0.0000    constr:    0.0000
     atom:    3    charge:    0.4431    magn:   -0.0000    constr:    0.0000
     atom:    4    charge:    0.4431    magn:   -0.0000    constr:    0.0000

     total cpu time spent up to now is     1147.1 secs

     End of self-consistent calculation

 ------ SPIN UP ------------


          k = 0.0000 0.0000 0.0000 (423701 PWs)   bands (ev):

   -21.6810 -11.7755 -11.7755  -6.7349  -1.2509  -0.3257  -0.2101  -0.2099

          k = 0.0000 0.2500 0.0000 (423725 PWs)   bands (ev):

   -21.6810 -11.7755 -11.7755  -6.7349  -1.2505  -0.3502  -0.2029  -0.1996

          k = 0.0000-0.5000 0.0000 (423542 PWs)   bands (ev):

   -21.6810 -11.7755 -11.7755  -6.7349  -1.2501  -0.3704  -0.1871  -0.1850

          k = 0.2500 0.0000 0.0000 (423725 PWs)   bands (ev):

   -21.6810 -11.7755 -11.7755  -6.7349  -1.2505  -0.3502  -0.2053  -0.1973

          k = 0.2500 0.2500 0.0000 (423766 PWs)   bands (ev):

   -21.6810 -11.7755 -11.7755  -6.7349  -1.2502  -0.3452  -0.2797  -0.1014

          k = 0.2500-0.5000 0.0000 (423782 PWs)   bands (ev):

   -21.6810 -11.7755 -11.7755  -6.7349  -1.2498  -0.3513  -0.2842  -0.1462

          k = 0.2500-0.2500 0.0000 (423766 PWs)   bands (ev):

   -21.6810 -11.7755 -11.7755  -6.7349  -1.2502  -0.3451  -0.2797  -0.1019

          k =-0.5000 0.0000 0.0000 (423542 PWs)   bands (ev):

   -21.6810 -11.7755 -11.7755  -6.7349  -1.2501  -0.3703  -0.1898  -0.1812

          k =-0.5000 0.2500 0.0000 (423782 PWs)   bands (ev):

   -21.6810 -11.7755 -11.7755  -6.7349  -1.2498  -0.3511  -0.2843  -0.1443

          k =-0.5000-0.5000 0.0000 (423708 PWs)   bands (ev):

   -21.6810 -11.7755 -11.7755  -6.7349  -1.2494  -0.3186  -0.3185  -0.2214

 ------ SPIN DOWN ----------


          k = 0.0000 0.0000 0.0000 (423701 PWs)   bands (ev):

   -21.6810 -11.7755 -11.7755  -6.7349  -1.2509  -0.3257  -0.2101  -0.2099

          k = 0.0000 0.2500 0.0000 (423725 PWs)   bands (ev):

   -21.6810 -11.7755 -11.7755  -6.7349  -1.2505  -0.3502  -0.2031  -0.1996

          k = 0.0000-0.5000 0.0000 (423542 PWs)   bands (ev):

   -21.6810 -11.7755 -11.7755  -6.7349  -1.2501  -0.3704  -0.1871  -0.1846

          k = 0.2500 0.0000 0.0000 (423725 PWs)   bands (ev):

   -21.6810 -11.7755 -11.7755  -6.7349  -1.2505  -0.3502  -0.2055  -0.1972

          k = 0.2500 0.2500 0.0000 (423766 PWs)   bands (ev):

   -21.6810 -11.7755 -11.7755  -6.7349  -1.2502  -0.3450  -0.2797  -0.1022

          k = 0.2500-0.5000 0.0000 (423782 PWs)   bands (ev):

   -21.6810 -11.7755 -11.7755  -6.7349  -1.2498  -0.3512  -0.2838  -0.1451

          k = 0.2500-0.2500 0.0000 (423766 PWs)   bands (ev):

   -21.6810 -11.7755 -11.7755  -6.7349  -1.2502  -0.3450  -0.2797  -0.1020

          k =-0.5000 0.0000 0.0000 (423542 PWs)   bands (ev):

   -21.6810 -11.7755 -11.7755  -6.7349  -1.2501  -0.3703  -0.1901  -0.1817

          k =-0.5000 0.2500 0.0000 (423782 PWs)   bands (ev):

   -21.6810 -11.7755 -11.7755  -6.7349  -1.2498  -0.3512  -0.2843  -0.1464

          k =-0.5000-0.5000 0.0000 (423708 PWs)   bands (ev):

   -21.6810 -11.7755 -11.7755  -6.7349  -1.2494  -0.3186  -0.3185  -0.2214

     the Fermi energy is    -5.3603 ev

!    total energy              =     -23.76965675 Ry
     estimated scf accuracy    <          4.1E-11 Ry
     smearing contrib. (-TS)   =       0.00000000 Ry
     internal energy E=F+TS    =     -23.76965675 Ry

     The total energy is F=E-TS. E is the sum of the following terms:
     one-electron contribution =     -60.21733399 Ry
     hartree contribution      =      31.01134360 Ry
     xc contribution           =      -7.58334132 Ry
     ewald contribution        =      12.69143871 Ry
     Dispersion Correction     =      -0.00031812 Ry
     electric field correction =       0.32855438 Ry

     total magnetization       =     0.00 Bohr mag/cell
     absolute magnetization    =     0.00 Bohr mag/cell

     convergence has been achieved in   5 iterations

     negative rho (up, down):  2.032E-04 2.032E-04

     Forces acting on atoms (cartesian axes, Ry/au):

     atom    1 type  1   force =    -0.00000019   -0.00000059    0.00002678
     atom    2 type  2   force =     0.00000013    0.00008953   -0.00000894
     atom    3 type  2   force =     0.00007765   -0.00004441   -0.00000897
     atom    4 type  2   force =    -0.00007760   -0.00004453   -0.00000888

     Total force =     0.000156     Total SCF correction =     0.000003
     Energy error            =      2.7E-06
     Gradient error          =      9.0E-05

     number of scf cycles    =   8
     number of bfgs steps    =   7

     energy   old            =     -23.7696540630 Ry
     energy   new            =     -23.7696567451 Ry

     CASE: energy  _new < energy  _old

     new trust radius        =       0.0002334543 bohr
     new conv_thr            =            1.0E-10 Ry


ATOMIC_POSITIONS (angstrom)
N            10.0000000000       10.0000000000        0.0000000000    0   0   0
H            10.0000000182       10.9438132615       -0.3897620606
H            10.8173643231        9.5280964301       -0.3897698873
H             9.1826363967        9.5280966214       -0.3897717143



     Writing output data file ./NH3_ESM_std.save/
     NEW-OLD atomic charge density approx. for the potential

     negative rho (up, down):  2.032E-04 2.032E-04

     Adding external electric field
        E field amplitude [Ha a.u.]: -1.5855E-03
        Potential amp.       -0.1079 Ry
        Total length         34.0151 bohr

     Generating pointlists ...

     total cpu time spent up to now is     1168.0 secs

     Self-consistent Calculation

     iteration #  1     ecut=    60.00 Ry     beta= 0.70
     CG style diagonalization
     ethr =  1.00E-06,  avg # of iterations =  2.0

     Threshold (ethr) on eigenvalues was too large:
     Diagonalizing with lowered threshold

     CG style diagonalization
     ethr =  3.28E-11,  avg # of iterations =  2.9

     negative rho (up, down):  2.032E-04 2.032E-04

     total cpu time spent up to now is     1192.5 secs

     total energy              =     -23.76965671 Ry
     estimated scf accuracy    <          3.0E-09 Ry

     total magnetization       =     0.00 Bohr mag/cell
     absolute magnetization    =     0.00 Bohr mag/cell

     iteration #  2     ecut=    60.00 Ry     beta= 0.70
     CG style diagonalization
     ethr =  3.80E-11,  avg # of iterations =  3.1

     negative rho (up, down):  2.032E-04 2.032E-04

     total cpu time spent up to now is     1210.5 secs

     total energy              =     -23.76965671 Ry
     estimated scf accuracy    <          2.7E-10 Ry

     total magnetization       =     0.00 Bohr mag/cell
     absolute magnetization    =     0.00 Bohr mag/cell

     iteration #  3     ecut=    60.00 Ry     beta= 0.70
     CG style diagonalization
     ethr =  3.32E-12,  avg # of iterations =  3.4

     negative rho (up, down):  2.032E-04 2.032E-04

     Magnetic moment per site:
     atom:    1    charge:    1.3332    magn:    0.0000    constr:    0.0000
     atom:    2    charge:    0.4431    magn:   -0.0000    constr:    0.0000
     atom:    3    charge:    0.4430    magn:   -0.0000    constr:    0.0000
     atom:    4    charge:    0.4430    magn:   -0.0000    constr:    0.0000

     total cpu time spent up to now is     1227.4 secs

     End of self-consistent calculation

 ------ SPIN UP ------------


          k = 0.0000 0.0000 0.0000 (423701 PWs)   bands (ev):

   -21.6805 -11.7756 -11.7756  -6.7344  -1.2509  -0.3257  -0.2102  -0.2099

          k = 0.0000 0.2500 0.0000 (423725 PWs)   bands (ev):

   -21.6805 -11.7756 -11.7756  -6.7344  -1.2505  -0.3502  -0.2029  -0.1996

          k = 0.0000-0.5000 0.0000 (423542 PWs)   bands (ev):

   -21.6805 -11.7756 -11.7756  -6.7344  -1.2501  -0.3704  -0.1872  -0.1850

          k = 0.2500 0.0000 0.0000 (423725 PWs)   bands (ev):

   -21.6805 -11.7756 -11.7756  -6.7344  -1.2505  -0.3502  -0.2054  -0.1973

          k = 0.2500 0.2500 0.0000 (423766 PWs)   bands (ev):

   -21.6805 -11.7756 -11.7756  -6.7344  -1.2502  -0.3452  -0.2797  -0.1014

          k = 0.2500-0.5000 0.0000 (423782 PWs)   bands (ev):

   -21.6805 -11.7756 -11.7756  -6.7344  -1.2498  -0.3513  -0.2842  -0.1462

          k = 0.2500-0.2500 0.0000 (423766 PWs)   bands (ev):

   -21.6805 -11.7756 -11.7756  -6.7344  -1.2502  -0.3451  -0.2797  -0.1020

          k =-0.5000 0.0000 0.0000 (423542 PWs)   bands (ev):

   -21.6805 -11.7756 -11.7756  -6.7344  -1.2501  -0.3703  -0.1899  -0.1812

          k =-0.5000 0.2500 0.0000 (423782 PWs)   bands (ev):

   -21.6805 -11.7756 -11.7756  -6.7344  -1.2498  -0.3511  -0.2843  -0.1444

          k =-0.5000-0.5000 0.0000 (423708 PWs)   bands (ev):

   -21.6805 -11.7756 -11.7756  -6.7344  -1.2494  -0.3186  -0.3185  -0.2214

 ------ SPIN DOWN ----------


          k = 0.0000 0.0000 0.0000 (423701 PWs)   bands (ev):

   -21.6805 -11.7756 -11.7756  -6.7344  -1.2509  -0.3257  -0.2101  -0.2099

          k = 0.0000 0.2500 0.0000 (423725 PWs)   bands (ev):

   -21.6805 -11.7756 -11.7756  -6.7344  -1.2505  -0.3502  -0.2031  -0.1996

          k = 0.0000-0.5000 0.0000 (423542 PWs)   bands (ev):

   -21.6805 -11.7756 -11.7756  -6.7344  -1.2501  -0.3704  -0.1871  -0.1847

          k = 0.2500 0.0000 0.0000 (423725 PWs)   bands (ev):

   -21.6805 -11.7756 -11.7756  -6.7344  -1.2505  -0.3502  -0.2055  -0.1972

          k = 0.2500 0.2500 0.0000 (423766 PWs)   bands (ev):

   -21.6805 -11.7756 -11.7756  -6.7344  -1.2502  -0.3451  -0.2797  -0.1023

          k = 0.2500-0.5000 0.0000 (423782 PWs)   bands (ev):

   -21.6805 -11.7756 -11.7756  -6.7344  -1.2498  -0.3512  -0.2839  -0.1452

          k = 0.2500-0.2500 0.0000 (423766 PWs)   bands (ev):

   -21.6805 -11.7756 -11.7756  -6.7344  -1.2502  -0.3450  -0.2797  -0.1021

          k =-0.5000 0.0000 0.0000 (423542 PWs)   bands (ev):

   -21.6805 -11.7756 -11.7756  -6.7344  -1.2501  -0.3703  -0.1901  -0.1817

          k =-0.5000 0.2500 0.0000 (423782 PWs)   bands (ev):

   -21.6805 -11.7756 -11.7756  -6.7344  -1.2498  -0.3512  -0.2843  -0.1464

          k =-0.5000-0.5000 0.0000 (423708 PWs)   bands (ev):

   -21.6805 -11.7756 -11.7756  -6.7344  -1.2494  -0.3186  -0.3185  -0.2214

     the Fermi energy is    -5.3602 ev

!    total energy              =     -23.76965672 Ry
     estimated scf accuracy    <          1.1E-11 Ry
     smearing contrib. (-TS)   =       0.00000000 Ry
     internal energy E=F+TS    =     -23.76965672 Ry

     The total energy is F=E-TS. E is the sum of the following terms:
     one-electron contribution =     -60.21678413 Ry
     hartree contribution      =      31.01107733 Ry
     xc contribution           =      -7.58329649 Ry
     ewald contribution        =      12.69110856 Ry
     Dispersion Correction     =      -0.00031832 Ry
     electric field correction =       0.32855632 Ry

     total magnetization       =    -0.00 Bohr mag/cell
     absolute magnetization    =     0.00 Bohr mag/cell

     convergence has been achieved in   3 iterations

     negative rho (up, down):  2.032E-04 2.032E-04

     Forces acting on atoms (cartesian axes, Ry/au):

     atom    1 type  1   force =    -0.00000015   -0.00000050    0.00003588
     atom    2 type  2   force =     0.00000011    0.00004764   -0.00001194
     atom    3 type  2   force =     0.00004137   -0.00002352   -0.00001201
     atom    4 type  2   force =    -0.00004133   -0.00002362   -0.00001193

     Total force =     0.000085     Total SCF correction =     0.000001
     Energy error            =      3.0E-08
     Gradient error          =      4.8E-05
Begin final coordinates

ATOMIC_POSITIONS (angstrom)
N            10.0000000000       10.0000000000        0.0000000000    0   0   0
H            10.0000000182       10.9438132615       -0.3897620606
H            10.8173643231        9.5280964301       -0.3897698873
H             9.1826363967        9.5280966214       -0.3897717143
End final coordinates



     Writing output data file ./NH3_ESM_std.save/

     lsda relaxation :  a final configuration with zero
                        absolute magnetization has been found

     the program is checking if it is really the minimum energy structure
     by performing a new scf iteration without any "electronic" history

     The initial density is read from file :
     ./NH3_ESM_std.save/charge-density


     negative rho (up, down):  2.032E-04 2.032E-04

     total cpu time spent up to now is     1246.1 secs

     Self-consistent Calculation

     iteration #  1     ecut=    60.00 Ry     beta= 0.70
     CG style diagonalization
     ethr =  1.00E-06,  avg # of iterations =  2.0

     Threshold (ethr) on eigenvalues was too large:
     Diagonalizing with lowered threshold

     CG style diagonalization
     ethr =  2.29E-14,  avg # of iterations =  2.5

     negative rho (up, down):  2.032E-04 2.032E-04

     Magnetic moment per site:
     atom:    1    charge:    1.3332    magn:    0.0000    constr:    0.0000
     atom:    2    charge:    0.4431    magn:   -0.0000    constr:    0.0000
     atom:    3    charge:    0.4430    magn:    0.0000    constr:    0.0000
     atom:    4    charge:    0.4430    magn:   -0.0000    constr:    0.0000

     total cpu time spent up to now is     1268.5 secs

     End of self-consistent calculation

 ------ SPIN UP ------------


          k = 0.0000 0.0000 0.0000 (423701 PWs)   bands (ev):

   -21.6805 -11.7756 -11.7756  -6.7344  -1.2509  -0.3257  -0.2102  -0.2099

          k = 0.0000 0.2500 0.0000 (423725 PWs)   bands (ev):

   -21.6805 -11.7756 -11.7756  -6.7344  -1.2505  -0.3502  -0.2030  -0.1996

          k = 0.0000-0.5000 0.0000 (423542 PWs)   bands (ev):

   -21.6805 -11.7756 -11.7756  -6.7344  -1.2501  -0.3704  -0.1872  -0.1850

          k = 0.2500 0.0000 0.0000 (423725 PWs)   bands (ev):

   -21.6805 -11.7756 -11.7756  -6.7344  -1.2505  -0.3502  -0.2054  -0.1973

          k = 0.2500 0.2500 0.0000 (423766 PWs)   bands (ev):

   -21.6805 -11.7756 -11.7756  -6.7344  -1.2502  -0.3452  -0.2797  -0.1015

          k = 0.2500-0.5000 0.0000 (423782 PWs)   bands (ev):

   -21.6805 -11.7756 -11.7756  -6.7344  -1.2498  -0.3513  -0.2842  -0.1462

          k = 0.2500-0.2500 0.0000 (423766 PWs)   bands (ev):

   -21.6805 -11.7756 -11.7756  -6.7344  -1.2502  -0.3452  -0.2797  -0.1020

          k =-0.5000 0.0000 0.0000 (423542 PWs)   bands (ev):

   -21.6805 -11.7756 -11.7756  -6.7344  -1.2501  -0.3703  -0.1899  -0.1813

          k =-0.5000 0.2500 0.0000 (423782 PWs)   bands (ev):

   -21.6805 -11.7756 -11.7756  -6.7344  -1.2498  -0.3511  -0.2843  -0.1444

          k =-0.5000-0.5000 0.0000 (423708 PWs)   bands (ev):

   -21.6805 -11.7756 -11.7756  -6.7344  -1.2494  -0.3186  -0.3185  -0.2214

 ------ SPIN DOWN ----------


          k = 0.0000 0.0000 0.0000 (423701 PWs)   bands (ev):

   -21.6805 -11.7756 -11.7756  -6.7344  -1.2509  -0.3257  -0.2101  -0.2099

          k = 0.0000 0.2500 0.0000 (423725 PWs)   bands (ev):

   -21.6805 -11.7756 -11.7756  -6.7344  -1.2505  -0.3502  -0.2031  -0.1996

          k = 0.0000-0.5000 0.0000 (423542 PWs)   bands (ev):

   -21.6805 -11.7756 -11.7756  -6.7344  -1.2501  -0.3704  -0.1871  -0.1847

          k = 0.2500 0.0000 0.0000 (423725 PWs)   bands (ev):

   -21.6805 -11.7756 -11.7756  -6.7344  -1.2505  -0.3502  -0.2055  -0.1972

          k = 0.2500 0.2500 0.0000 (423766 PWs)   bands (ev):

   -21.6805 -11.7756 -11.7756  -6.7344  -1.2502  -0.3451  -0.2797  -0.1023

          k = 0.2500-0.5000 0.0000 (423782 PWs)   bands (ev):

   -21.6805 -11.7756 -11.7756  -6.7344  -1.2498  -0.3512  -0.2839  -0.1453

          k = 0.2500-0.2500 0.0000 (423766 PWs)   bands (ev):

   -21.6805 -11.7756 -11.7756  -6.7344  -1.2502  -0.3450  -0.2797  -0.1021

          k =-0.5000 0.0000 0.0000 (423542 PWs)   bands (ev):

   -21.6805 -11.7756 -11.7756  -6.7344  -1.2501  -0.3703  -0.1901  -0.1817

          k =-0.5000 0.2500 0.0000 (423782 PWs)   bands (ev):

   -21.6805 -11.7756 -11.7756  -6.7344  -1.2498  -0.3512  -0.2844  -0.1464

          k =-0.5000-0.5000 0.0000 (423708 PWs)   bands (ev):

   -21.6805 -11.7756 -11.7756  -6.7344  -1.2494  -0.3186  -0.3185  -0.2214

     the Fermi energy is    -5.3602 ev

!    total energy              =     -23.76965671 Ry
     estimated scf accuracy    <          2.6E-12 Ry
     smearing contrib. (-TS)   =       0.00000000 Ry
     internal energy E=F+TS    =     -23.76965671 Ry

     The total energy is F=E-TS. E is the sum of the following terms:
     one-electron contribution =     -60.21679256 Ry
     hartree contribution      =      31.01108769 Ry
     xc contribution           =      -7.58329841 Ry
     ewald contribution        =      12.69110856 Ry
     Dispersion Correction     =      -0.00031832 Ry
     electric field correction =       0.32855632 Ry

     total magnetization       =     0.00 Bohr mag/cell
     absolute magnetization    =     0.00 Bohr mag/cell

     convergence has been achieved in   1 iterations

     negative rho (up, down):  2.032E-04 2.032E-04

     Forces acting on atoms (cartesian axes, Ry/au):

     atom    1 type  1   force =    -0.00000015   -0.00000050    0.00003536
     atom    2 type  2   force =     0.00000011    0.00004727   -0.00001177
     atom    3 type  2   force =     0.00004105   -0.00002334   -0.00001183
     atom    4 type  2   force =    -0.00004100   -0.00002344   -0.00001176

     Total force =     0.000084     Total SCF correction =     0.000001
     Energy error            =      3.0E-08
     Gradient error          =      4.7E-05

     bfgs converged in   9 scf cycles and   8 bfgs steps
     (criteria: energy <  7.3E-07 Ry, force <  3.9E-04 Ry/Bohr)

     End of BFGS Geometry Optimization

     Final energy   =     -23.7696567149 Ry

     File ./NH3_ESM_std.bfgs deleted, as requested
Begin final coordinates

ATOMIC_POSITIONS (angstrom)
N            10.0000000000       10.0000000000        0.0000000000    0   0   0
H            10.0000000182       10.9438132615       -0.3897620606
H            10.8173643231        9.5280964301       -0.3897698873
H             9.1826363967        9.5280966214       -0.3897717143
End final coordinates



     Writing output data file ./NH3_ESM_std.save/

     init_run     :     20.40s CPU     21.52s WALL (       1 calls)
     electrons    :   1003.04s CPU   1077.94s WALL (      10 calls)
     update_pot   :     61.15s CPU     64.40s WALL (       8 calls)
     forces       :     81.57s CPU     87.20s WALL (      10 calls)

     Called by init_run:
     wfcinit      :      1.80s CPU      1.91s WALL (       1 calls)
     potinit      :     14.17s CPU     15.22s WALL (       2 calls)
     hinit0       :      1.28s CPU      1.44s WALL (       1 calls)

     Called by electrons:
     c_bands      :    407.01s CPU    417.12s WALL (      59 calls)
     sum_band     :    133.98s CPU    138.45s WALL (      59 calls)
     v_of_rho     :    351.40s CPU    382.32s WALL (      63 calls)
     newd         :     49.55s CPU     51.96s WALL (      63 calls)
     mix_rho      :     61.06s CPU     74.14s WALL (      59 calls)

     Called by c_bands:
     init_us_2    :      2.36s CPU      2.45s WALL (     387 calls)
     ccgdiagg     :    322.08s CPU    326.34s WALL (     177 calls)
     wfcrot       :     70.28s CPU     71.07s WALL (     132 calls)

     Called by *cgdiagg:
     h_psi        :    337.00s CPU    341.26s WALL (    4207 calls)
     s_psi        :     22.16s CPU     22.42s WALL (    8282 calls)

     Called by h_psi:
     h_psi:calbec :     14.78s CPU     14.97s WALL (    4207 calls)
     vloc_psi     :    304.02s CPU    307.88s WALL (    4207 calls)
     add_vuspsi   :     16.59s CPU     16.81s WALL (    4207 calls)
     hs_1psi      :    282.83s CPU    286.61s WALL (    4075 calls)
     s_1psi       :     24.17s CPU     24.43s WALL (    4075 calls)

     General routines
     calbec       :     29.00s CPU     29.37s WALL (    8579 calls)
     fft          :    402.95s CPU    413.76s WALL (    1723 calls)
     ffts         :     20.84s CPU     21.01s WALL (     244 calls)
     fftw         :    288.97s CPU    292.58s WALL (   11678 calls)
     interpolate  :     44.11s CPU     46.81s WALL (     126 calls)
     davcio       :      0.15s CPU      7.78s WALL (     951 calls)

     Parallel routines
     fft_scatt_xy :    108.02s CPU    109.42s WALL (   13645 calls)
     fft_scatt_yz :    272.72s CPU    276.00s WALL (   13645 calls)

     PWSCF        :  19m51.55s CPU  21m19.67s WALL


   This run was terminated on:  18:52:27  28Sep2022            

=------------------------------------------------------------------------------=
   JOB DONE.
=------------------------------------------------------------------------------=
