
     Program PWSCF v.6.4.1 starts on 13Jun2022 at  1:36:35 

     This program is part of the open-source Quantum ESPRESSO suite
     for quantum simulation of materials; please cite
         "P. Giannozzi et al., J. Phys.:Condens. Matter 21 395502 (2009);
         "P. Giannozzi et al., J. Phys.:Condens. Matter 29 465901 (2017);
          URL http://www.quantum-espresso.org", 
     in publications or presentations arising from this work. More details at
     http://www.quantum-espresso.org/quote

     Parallel version (MPI), running on   160 processors

     MPI processes distributed on     8 nodes
     K-points division:     npool     =       8
     R & G space division:  proc/nbgrp/npool/nimage =      20
     Waiting for input...
     Reading input from standard input
Warning: card &CELL ignored
Warning: card / ignored

     Current dimensions of program PWSCF are:
     Max number of different atomic species (ntypx) = 10
     Max number of k-points (npk) =  40000
     Max angular momentum in pseudopotentials (lmaxx) =  3

     IMPORTANT: XC functional enforced from input :
     Exchange-correlation      = PBE ( 1  4  3  4 0 0)
     Any further DFT definition will be discarded
     Please, verify this is what you really want

               file Fe.pbe-spn-kjpaw_psl.0.2.1.UPF: wavefunction(s)  3D renormalized

     -------------------------------------------------
     Parameters for Dispersion (Grimme-D2) Correction:
     -------------------------------------------------
       atom      VdW radius       C_6     

        Fe         2.952        374.666
        N          2.640         42.670
        H          1.892          4.857

     Subspace diagonalization in iterative solution of the eigenvalue problem:
     one sub-group per band group will be used
     scalapack distributed-memory algorithm (size of sub-group:  3*  3 procs)


     Parallelization info
     --------------------
     sticks:   dense  smooth     PW     G-vecs:    dense   smooth      PW
     Min         634     317     83               145278    51361    6989
     Max         635     318     84               145287    51370    7000
     Sum       12685    6351   1677              2905599  1027285  139897



     bravais-lattice index     =            0
     lattice parameter (alat)  =      18.7640  a.u.
     unit-cell volume          =   16360.3163 (a.u.)^3
     number of atoms/cell      =           67
     number of atomic types    =            3
     number of electrons       =      1031.00
     number of Kohn-Sham states=          619
     kinetic-energy cutoff     =      60.0000  Ry
     charge density cutoff     =     480.0000  Ry
     convergence threshold     =      1.0E-08
     mixing beta               =       0.2000
     number of iterations used =           10  local-TF  mixing
     Exchange-correlation      = PBE ( 1  4  3  4 0 0)
     nstep                     =           50


     Effective Screening Medium Method
     =================================
     Boundary Conditions: Metal-Slab-Metal
     field strength                   =    -0.01 Ry/a.u.
     grid points for fit at edges     =        4 


     celldm(1)=  18.764036  celldm(2)=   0.000000  celldm(3)=   0.000000
     celldm(4)=   0.000000  celldm(5)=   0.000000  celldm(6)=   0.000000

     crystal axes: (cart. coord. in units of alat)
               a(1) = (   1.000000   0.000000   0.000000 )  
               a(2) = (   0.333330   0.942807   0.000000 )  
               a(3) = (   0.000000   0.000000   2.626577 )  

     reciprocal axes: (cart. coord. in units 2 pi/alat)
               b(1) = (  1.000000 -0.353551  0.000000 )  
               b(2) = (  0.000000  1.060663  0.000000 )  
               b(3) = (  0.000000  0.000000  0.380724 )  


     PseudoPot. # 1 for Fe read from file:
     ../../SSSP/Fe.pbe-spn-kjpaw_psl.0.2.1.UPF
     MD5 check sum: e86618425769142926afa95317d90200
     Pseudo is Projector augmented-wave + core cor, Zval = 16.0
     Generated using "atomic" code by A. Dal Corso v.5.0.99 svn rev. 10869
     Shape of augmentation charge: PSQ
     Using radial grid of 1191 points,  6 beta functions with: 
                l(1) =   0
                l(2) =   0
                l(3) =   1
                l(4) =   1
                l(5) =   2
                l(6) =   2
     Q(r) pseudized with 0 coefficients 


     PseudoPot. # 2 for N  read from file:
     ../../SSSP/N.pbe-n-radius_5.UPF
     MD5 check sum: 16739722b17309cd8fe442a2ace49922
     Pseudo is Ultrasoft + core correction, Zval =  5.0
     Generated using "atomic" code by A. Dal Corso v.5.1
     Using radial grid of 1085 points,  4 beta functions with: 
                l(1) =   0
                l(2) =   0
                l(3) =   1
                l(4) =   1
     Q(r) pseudized with 0 coefficients 


     PseudoPot. # 3 for H  read from file:
     ../../SSSP/H.pbe-rrkjus_psl.1.0.0.UPF
     MD5 check sum: f52b6d4d1c606e5624b1dc7b2218f220
     Pseudo is Ultrasoft, Zval =  1.0
     Generated using "atomic" code by A. Dal Corso v.5.1
     Using radial grid of  929 points,  2 beta functions with: 
                l(1) =   0
                l(2) =   0
     Q(r) pseudized with 0 coefficients 


     atomic species   valence    mass     pseudopotential
        Fe            16.00    55.84500     Fe( 1.00)
        N              5.00    14.00700     N ( 1.00)
        H              1.00     1.00800     H ( 1.00)

     Starting magnetic structure 
     atomic species   magnetization
        Fe           0.100
        N            0.100
        H            0.100

     No symmetry found



   Cartesian axes

     site n.     atom                  positions (alat units)
         1           Fe  tau(   1) = (   0.1666663   0.1178509   0.0000000  )
         2           Fe  tau(   2) = (   0.0000000   0.0000000   0.2041376  )
         3           Fe  tau(   3) = (   0.4999989   0.3535526   0.0000000  )
         4           Fe  tau(   4) = (   0.3333326   0.2357017   0.2041376  )
         5           Fe  tau(   5) = (   0.1688526   0.1178123   0.4052638  )
         6           Fe  tau(   6) = (   0.3343666   0.9422529   0.6043949  )
         7           Fe  tau(   7) = (   0.5011705   0.3549870   0.4070642  )
         8           Fe  tau(   8) = (   0.3393831   0.2351315   0.6052202  )
         9           Fe  tau(   9) = (   0.2499989   0.3535526   0.0000000  )
        10           Fe  tau(  10) = (   0.4166663   0.1178509   0.0000000  )
        11           Fe  tau(  11) = (   0.0833326   0.2357017   0.2041376  )
        12           Fe  tau(  12) = (   0.2500000   0.0000000   0.2041376  )
        13           Fe  tau(  13) = (   0.2500559   0.3534950   0.4069210  )
        14           Fe  tau(  14) = (   0.4191000   0.1196350   0.4061592  )
        15           Fe  tau(  15) = (   0.0871435   0.2338643   0.6041281  )
        16           Fe  tau(  16) = (   0.2514579   0.0011120   0.6053465  )
        17           Fe  tau(  17) = (   0.6666663   0.1178509   0.0000000  )
        18           Fe  tau(  18) = (   0.5000000   0.0000000   0.2041376  )
        19           Fe  tau(  19) = (   0.9999989   0.3535526   0.0000000  )
        20           Fe  tau(  20) = (   0.8333326   0.2357017   0.2041376  )
        21           Fe  tau(  21) = (   0.6683563   0.1185166   0.4070365  )
        22           Fe  tau(  22) = (   0.5013944   0.0059648   0.6052472  )
        23           Fe  tau(  23) = (   0.9987787   0.3520559   0.4068378  )
        24           Fe  tau(  24) = (   0.8424589   0.2228022   0.6027904  )
        25           Fe  tau(  25) = (   0.7499989   0.3535526   0.0000000  )
        26           Fe  tau(  26) = (   0.9166663   0.1178509   0.0000000  )
        27           Fe  tau(  27) = (   0.5833326   0.2357017   0.2041376  )
        28           Fe  tau(  28) = (   0.7500000   0.0000000   0.2041376  )
        29           Fe  tau(  29) = (   0.7499601   0.3535290   0.4028893  )
        30           Fe  tau(  30) = (   0.9185178   0.1150390   0.4041441  )
        31           Fe  tau(  31) = (   0.5928424   0.2424388   0.6092791  )
        32           Fe  tau(  32) = (   1.0845617   0.9388154   0.6041901  )
        33           Fe  tau(  33) = (   0.3333315   0.5892543   0.0000000  )
        34           Fe  tau(  34) = (   0.1666652   0.4714034   0.2041376  )
        35           Fe  tau(  35) = (   0.6666640   0.8249560   0.0000000  )
        36           Fe  tau(  36) = (   0.4999978   0.7071052   0.2041376  )
        37           Fe  tau(  37) = (   0.3312301   0.5893346   0.4055736  )
        38           Fe  tau(  38) = (   1.1607807   0.4712720   0.6048225  )
        39           Fe  tau(  39) = (   0.6673353   0.8270823   0.4052856  )
        40           Fe  tau(  40) = (   0.4998026   0.7083523   0.6043520  )
        41           Fe  tau(  41) = (   0.4166640   0.8249560   0.0000000  )
        42           Fe  tau(  42) = (   0.5833315   0.5892543   0.0000000  )
        43           Fe  tau(  43) = (   1.2499978   0.7071052   0.2041376  )
        44           Fe  tau(  44) = (   0.4166652   0.4714034   0.2041376  )
        45           Fe  tau(  45) = (   0.4165428   0.8249182   0.4043922  )
        46           Fe  tau(  46) = (   0.5812921   0.5919617   0.4041411  )
        47           Fe  tau(  47) = (   1.2473904   0.7053047   0.6055422  )
        48           Fe  tau(  48) = (   0.4132843   0.4739990   0.6042619  )
        49           Fe  tau(  49) = (   0.8333315   0.5892543   0.0000000  )
        50           Fe  tau(  50) = (   0.6666652   0.4714034   0.2041376  )
        51           Fe  tau(  51) = (   1.1666640   0.8249560   0.0000000  )
        52           Fe  tau(  52) = (   0.9999978   0.7071052   0.2041376  )
        53           Fe  tau(  53) = (   0.8314839   0.5886441   0.4068646  )
        54           Fe  tau(  54) = (   0.6575280   0.4843558   0.6027900  )
        55           Fe  tau(  55) = (   1.1660113   0.8229814   0.4055641  )
        56           Fe  tau(  56) = (   0.9978793   0.7016247   0.6048225  )
        57           Fe  tau(  57) = (   0.9166640   0.8249560   0.0000000  )
        58           Fe  tau(  58) = (   1.0833315   0.5892543   0.0000000  )
        59           Fe  tau(  59) = (   0.7499978   0.7071052   0.2041376  )
        60           Fe  tau(  60) = (   0.9166652   0.4714034   0.2041376  )
        61           Fe  tau(  61) = (   0.9165956   0.8250802   0.4069362  )
        62           Fe  tau(  62) = (   1.0808343   0.5875346   0.4059196  )
        63           Fe  tau(  63) = (   0.7494961   0.7113818   0.6041901  )
        64           Fe  tau(  64) = (   0.9074158   0.4648707   0.6092031  )
        65           N   tau(  65) = (   0.7500994   0.3536582   0.7047786  )
        66           H   tau(  66) = (   0.7502549   0.3537961   0.8083370  )
        67           H   tau(  67) = (   0.4593157   0.8551593   0.6989822  )

     number of k points=    10  Methfessel-Paxton smearing, width (Ry)=  0.0100
                       cart. coord. in units 2pi/alat
        k(    1) = (   0.0000000   0.0000000   0.0000000), wk =   0.0625000
        k(    2) = (   0.0000000   0.2651656   0.0000000), wk =   0.1250000
        k(    3) = (   0.0000000  -0.5303313   0.0000000), wk =   0.0625000
        k(    4) = (   0.2500000  -0.0883878   0.0000000), wk =   0.1250000
        k(    5) = (   0.2500000   0.1767779   0.0000000), wk =   0.1250000
        k(    6) = (   0.2500000  -0.6187190   0.0000000), wk =   0.1250000
        k(    7) = (   0.2500000  -0.3535534   0.0000000), wk =   0.1250000
        k(    8) = (  -0.5000000   0.1767755   0.0000000), wk =   0.0625000
        k(    9) = (  -0.5000000   0.4419412   0.0000000), wk =   0.1250000
        k(   10) = (  -0.5000000  -0.3535558   0.0000000), wk =   0.0625000

     Dense  grid:  2905599 G-vectors     FFT dimensions: ( 135, 135, 360)

     Smooth grid:  1027285 G-vectors     FFT dimensions: (  96,  96, 243)

     Estimated max dynamical RAM per process >       1.01 GB

     Estimated total dynamical RAM >     162.06 GB
     Generating pointlists ...
     new r_m :   0.0740 (alat units)  1.3877 (a.u.) for type    1
     new r_m :   0.0427 (alat units)  0.8016 (a.u.) for type    2
     new r_m :   0.0427 (alat units)  0.8016 (a.u.) for type    3

     Check: negative core charge=   -0.000039

     Initial potential from superposition of free atoms

     starting charge 1030.97192, renormalised to 1031.00000

     negative rho (up, down):  2.445E-02 2.518E-03
     Starting wfcs are  838 randomized atomic wfcs
     Checking if some PAW data can be deallocated... 

     total cpu time spent up to now is       90.3 secs

     Self-consistent Calculation

     iteration #  1     ecut=    60.00 Ry     beta= 0.20
     Davidson diagonalization with overlap
     c_bands:  1 eigenvalues not converged
     ethr =  1.00E-04,  avg # of iterations = 18.7

     negative rho (up, down):  1.294E-02 3.520E-03

     total cpu time spent up to now is     1117.6 secs

     total energy              =  -21090.18409385 Ry
     Harris-Foulkes estimate   =  -21096.75407275 Ry
     estimated scf accuracy    <     318.35446579 Ry

     total magnetization       =   107.77 Bohr mag/cell
     absolute magnetization    =   108.62 Bohr mag/cell

     iteration #  2     ecut=    60.00 Ry     beta= 0.20
     Davidson diagonalization with overlap
     ethr =  1.00E-02,  avg # of iterations =  1.0

     negative rho (up, down):  9.710E-03 4.034E-02

     total cpu time spent up to now is     1251.4 secs

     total energy              =  -21093.78701961 Ry
     Harris-Foulkes estimate   =  -21096.16138954 Ry
     estimated scf accuracy    <     124.47819457 Ry

     total magnetization       =   110.36 Bohr mag/cell
     absolute magnetization    =   111.25 Bohr mag/cell

     iteration #  3     ecut=    60.00 Ry     beta= 0.20
     Davidson diagonalization with overlap
     ethr =  1.00E-02,  avg # of iterations =  1.0

     negative rho (up, down):  4.971E-03 1.826E-02

     total cpu time spent up to now is     1382.6 secs

     total energy              =  -21094.92486011 Ry
     Harris-Foulkes estimate   =  -21095.02198330 Ry
     estimated scf accuracy    <       8.91949070 Ry

     total magnetization       =   132.92 Bohr mag/cell
     absolute magnetization    =   133.36 Bohr mag/cell

     iteration #  4     ecut=    60.00 Ry     beta= 0.20
     Davidson diagonalization with overlap
     ethr =  8.65E-04,  avg # of iterations =  1.0

     negative rho (up, down):  3.277E-03 2.215E-02

     total cpu time spent up to now is     1516.1 secs

     total energy              =  -21094.97106499 Ry
     Harris-Foulkes estimate   =  -21095.01703088 Ry
     estimated scf accuracy    <      13.71217214 Ry

     total magnetization       =   139.97 Bohr mag/cell
     absolute magnetization    =   140.51 Bohr mag/cell

     iteration #  5     ecut=    60.00 Ry     beta= 0.20
     Davidson diagonalization with overlap
     ethr =  8.65E-04,  avg # of iterations =  1.0

     negative rho (up, down):  1.988E-02 1.998E-01

     total cpu time spent up to now is     1648.2 secs

     total energy              =  -21093.17702554 Ry
     Harris-Foulkes estimate   =  -21095.00294587 Ry
     estimated scf accuracy    <      14.05816945 Ry

     total magnetization       =   143.05 Bohr mag/cell
     absolute magnetization    =   143.71 Bohr mag/cell

     iteration #  6     ecut=    60.00 Ry     beta= 0.20
     Davidson diagonalization with overlap
     ethr =  8.65E-04,  avg # of iterations =  7.0

     negative rho (up, down):  3.804E-03 1.119E-01

     total cpu time spent up to now is     1871.2 secs

     total energy              =  -21094.43734335 Ry
     Harris-Foulkes estimate   =  -21094.25808365 Ry
     estimated scf accuracy    <       3.29018441 Ry

     total magnetization       =   156.82 Bohr mag/cell
     absolute magnetization    =   160.40 Bohr mag/cell

     iteration #  7     ecut=    60.00 Ry     beta= 0.20
     Davidson diagonalization with overlap
     ethr =  3.19E-04,  avg # of iterations =  6.9

     negative rho (up, down):  9.569E-04 5.253E-02

     total cpu time spent up to now is     2097.1 secs

     total energy              =  -21094.73535018 Ry
     Harris-Foulkes estimate   =  -21094.73857281 Ry
     estimated scf accuracy    <       0.81341278 Ry

     total magnetization       =   150.70 Bohr mag/cell
     absolute magnetization    =   154.22 Bohr mag/cell

     iteration #  8     ecut=    60.00 Ry     beta= 0.20
     Davidson diagonalization with overlap
     c_bands:  3 eigenvalues not converged
     ethr =  7.89E-05,  avg # of iterations = 16.1

     negative rho (up, down):  2.873E-04 2.354E-02

     total cpu time spent up to now is     2855.3 secs

     total energy              =  -21095.03377018 Ry
     Harris-Foulkes estimate   =  -21095.09319567 Ry
     estimated scf accuracy    <       0.91897326 Ry

     total magnetization       =   150.47 Bohr mag/cell
     absolute magnetization    =   155.54 Bohr mag/cell

     iteration #  9     ecut=    60.00 Ry     beta= 0.20
     Davidson diagonalization with overlap
     ethr =  7.89E-05,  avg # of iterations =  3.4

     negative rho (up, down):  1.461E-04 2.730E-02

     total cpu time spent up to now is     3057.3 secs

     total energy              =  -21095.01194236 Ry
     Harris-Foulkes estimate   =  -21095.05604554 Ry
     estimated scf accuracy    <       0.38826714 Ry

     total magnetization       =   150.75 Bohr mag/cell
     absolute magnetization    =   155.53 Bohr mag/cell

     iteration # 10     ecut=    60.00 Ry     beta= 0.20
     Davidson diagonalization with overlap
     ethr =  3.77E-05,  avg # of iterations =  7.0

     negative rho (up, down):  2.082E-04 2.408E-02

     total cpu time spent up to now is     3280.5 secs

     total energy              =  -21095.03170638 Ry
     Harris-Foulkes estimate   =  -21095.04178887 Ry
     estimated scf accuracy    <       0.37114479 Ry

     total magnetization       =   153.71 Bohr mag/cell
     absolute magnetization    =   158.33 Bohr mag/cell

     iteration # 11     ecut=    60.00 Ry     beta= 0.20
     Davidson diagonalization with overlap
     ethr =  3.60E-05,  avg # of iterations =  3.0

     negative rho (up, down):  1.504E-04 2.357E-02

     total cpu time spent up to now is     3461.8 secs

     total energy              =  -21095.04130612 Ry
     Harris-Foulkes estimate   =  -21095.05383642 Ry
     estimated scf accuracy    <       0.20028564 Ry

     total magnetization       =   157.03 Bohr mag/cell
     absolute magnetization    =   161.77 Bohr mag/cell

     iteration # 12     ecut=    60.00 Ry     beta= 0.20
     Davidson diagonalization with overlap
     c_bands:  4 eigenvalues not converged
     c_bands:  4 eigenvalues not converged
     ethr =  1.94E-05,  avg # of iterations = 10.8

     negative rho (up, down):  7.575E-05 1.512E-02

     total cpu time spent up to now is     3815.0 secs

     total energy              =  -21095.04589010 Ry
     Harris-Foulkes estimate   =  -21095.05772875 Ry
     estimated scf accuracy    <       0.18308173 Ry

     total magnetization       =   158.44 Bohr mag/cell
     absolute magnetization    =   163.55 Bohr mag/cell

     iteration # 13     ecut=    60.00 Ry     beta= 0.20
     Davidson diagonalization with overlap
     c_bands:  1 eigenvalues not converged
     ethr =  1.78E-05,  avg # of iterations = 15.6

     negative rho (up, down):  3.300E-04 2.466E-02

     total cpu time spent up to now is     4313.1 secs

     total energy              =  -21095.05451981 Ry
     Harris-Foulkes estimate   =  -21095.06951757 Ry
     estimated scf accuracy    <       0.12227098 Ry

     total magnetization       =   159.66 Bohr mag/cell
     absolute magnetization    =   164.93 Bohr mag/cell

     iteration # 14     ecut=    60.00 Ry     beta= 0.20
     Davidson diagonalization with overlap
     ethr =  1.19E-05,  avg # of iterations = 11.7

     negative rho (up, down):  4.458E-02 3.305E-02

     total cpu time spent up to now is     4614.3 secs

     total energy              =  -21095.05815030 Ry
     Harris-Foulkes estimate   =  -21095.06582180 Ry
     estimated scf accuracy    <       0.15181809 Ry

     total magnetization       =   159.31 Bohr mag/cell
     absolute magnetization    =   164.64 Bohr mag/cell

     iteration # 15     ecut=    60.00 Ry     beta= 0.20
     Davidson diagonalization with overlap
     ethr =  1.19E-05,  avg # of iterations =  5.7

     negative rho (up, down):  1.540E-01 2.528E-02

     total cpu time spent up to now is     4871.3 secs

     total energy              =  -21095.05983427 Ry
     Harris-Foulkes estimate   =  -21095.06406143 Ry
     estimated scf accuracy    <       0.08724580 Ry

     total magnetization       =   160.58 Bohr mag/cell
     absolute magnetization    =   165.94 Bohr mag/cell

     iteration # 16     ecut=    60.00 Ry     beta= 0.20
     Davidson diagonalization with overlap
     ethr =  8.46E-06,  avg # of iterations = 11.1

     negative rho (up, down):  9.490E-02 1.816E-02

     total cpu time spent up to now is     5359.6 secs

     total energy              =  -21095.05496603 Ry
     Harris-Foulkes estimate   =  -21095.06980262 Ry
     estimated scf accuracy    <       0.08283327 Ry

     total magnetization       =   161.27 Bohr mag/cell
     absolute magnetization    =   166.95 Bohr mag/cell

     iteration # 17     ecut=    60.00 Ry     beta= 0.20
     Davidson diagonalization with overlap
     ethr =  8.03E-06,  avg # of iterations =  8.1

     negative rho (up, down):  2.012E-01 1.824E-02

     total cpu time spent up to now is     5639.1 secs

     total energy              =  -21095.03567674 Ry
     Harris-Foulkes estimate   =  -21095.05821884 Ry
     estimated scf accuracy    <       0.06892364 Ry

     total magnetization       =   161.03 Bohr mag/cell
     absolute magnetization    =   166.82 Bohr mag/cell

     iteration # 18     ecut=    60.00 Ry     beta= 0.20
     Davidson diagonalization with overlap
     ethr =  6.69E-06,  avg # of iterations =  7.5

     negative rho (up, down):  1.920E-01 1.659E-02

     total cpu time spent up to now is     5919.3 secs

     total energy              =  -21095.01358522 Ry
     Harris-Foulkes estimate   =  -21095.03941054 Ry
     estimated scf accuracy    <       0.03796882 Ry

     total magnetization       =   160.83 Bohr mag/cell
     absolute magnetization    =   166.73 Bohr mag/cell

     iteration # 19     ecut=    60.00 Ry     beta= 0.20
     Davidson diagonalization with overlap
     c_bands:  2 eigenvalues not converged
     c_bands:  3 eigenvalues not converged
     c_bands:  4 eigenvalues not converged
     ethr =  3.68E-06,  avg # of iterations = 31.1

     negative rho (up, down):  1.661E-01 1.682E-02

     total cpu time spent up to now is     7747.3 secs

     total energy              =  -21095.02123091 Ry
     Harris-Foulkes estimate   =  -21095.02800027 Ry
     estimated scf accuracy    <       0.02728250 Ry

     total magnetization       =   160.53 Bohr mag/cell
     absolute magnetization    =   166.98 Bohr mag/cell

     iteration # 20     ecut=    60.00 Ry     beta= 0.20
     Davidson diagonalization with overlap
     c_bands:  1 eigenvalues not converged
     c_bands:  1 eigenvalues not converged
     ethr =  2.65E-06,  avg # of iterations = 29.4

     negative rho (up, down):  1.094E-01 2.541E-02

     total cpu time spent up to now is     8551.1 secs

     total energy              =  -21094.98627036 Ry
     Harris-Foulkes estimate   =  -21095.02266684 Ry
     estimated scf accuracy    <       0.01844596 Ry

     total magnetization       =   160.34 Bohr mag/cell
     absolute magnetization    =   166.79 Bohr mag/cell

     iteration # 21     ecut=    60.00 Ry     beta= 0.20
     Davidson diagonalization with overlap
     c_bands:  2 eigenvalues not converged
     ethr =  1.79E-06,  avg # of iterations = 23.4

     negative rho (up, down):  1.186E-01 1.874E-02

     total cpu time spent up to now is     9502.7 secs

     total energy              =  -21094.97468158 Ry
     Harris-Foulkes estimate   =  -21094.98886849 Ry
     estimated scf accuracy    <       0.00726035 Ry

     total magnetization       =   160.24 Bohr mag/cell
     absolute magnetization    =   166.88 Bohr mag/cell

     iteration # 22     ecut=    60.00 Ry     beta= 0.20
     Davidson diagonalization with overlap
     c_bands:  5 eigenvalues not converged
     ethr =  7.04E-07,  avg # of iterations = 14.2

     negative rho (up, down):  9.922E-02 1.792E-02

     total cpu time spent up to now is    10218.2 secs

     total energy              =  -21094.97563426 Ry
     Harris-Foulkes estimate   =  -21094.97657253 Ry
     estimated scf accuracy    <       0.00392078 Ry

     total magnetization       =   160.20 Bohr mag/cell
     absolute magnetization    =   166.94 Bohr mag/cell

     iteration # 23     ecut=    60.00 Ry     beta= 0.20
     Davidson diagonalization with overlap
     c_bands:  2 eigenvalues not converged
     ethr =  3.80E-07,  avg # of iterations = 11.1

     negative rho (up, down):  4.560E-02 2.071E-02

     total cpu time spent up to now is    10672.3 secs

     total energy              =  -21094.97529840 Ry
     Harris-Foulkes estimate   =  -21094.97611022 Ry
     estimated scf accuracy    <       0.00263648 Ry

     total magnetization       =   160.33 Bohr mag/cell
     absolute magnetization    =   167.11 Bohr mag/cell

     iteration # 24     ecut=    60.00 Ry     beta= 0.20
     Davidson diagonalization with overlap
     ethr =  2.56E-07,  avg # of iterations =  9.0

     negative rho (up, down):  3.756E-02 2.039E-02

     total cpu time spent up to now is    11022.4 secs

     total energy              =  -21094.97673573 Ry
     Harris-Foulkes estimate   =  -21094.97564430 Ry
     estimated scf accuracy    <       0.00092822 Ry

     total magnetization       =   160.48 Bohr mag/cell
     absolute magnetization    =   167.24 Bohr mag/cell

     iteration # 25     ecut=    60.00 Ry     beta= 0.20
     Davidson diagonalization with overlap
     ethr =  9.00E-08,  avg # of iterations = 14.0

     negative rho (up, down):  3.526E-02 1.962E-02

     total cpu time spent up to now is    11959.6 secs

     total energy              =  -21094.97811710 Ry
     Harris-Foulkes estimate   =  -21094.97723019 Ry
     estimated scf accuracy    <       0.00042001 Ry

     total magnetization       =   160.45 Bohr mag/cell
     absolute magnetization    =   167.21 Bohr mag/cell

     iteration # 26     ecut=    60.00 Ry     beta= 0.20
     Davidson diagonalization with overlap
     ethr =  4.07E-08,  avg # of iterations =  8.8

     negative rho (up, down):  3.212E-02 1.987E-02

     total cpu time spent up to now is    12275.2 secs

     total energy              =  -21094.97945294 Ry
     Harris-Foulkes estimate   =  -21094.97819412 Ry
     estimated scf accuracy    <       0.00029921 Ry

     total magnetization       =   160.46 Bohr mag/cell
     absolute magnetization    =   167.22 Bohr mag/cell

     iteration # 27     ecut=    60.00 Ry     beta= 0.20
     Davidson diagonalization with overlap
     ethr =  2.90E-08,  avg # of iterations =  1.4

     negative rho (up, down):  2.685E-02 1.980E-02

     total cpu time spent up to now is    12424.8 secs

     total energy              =  -21094.98406883 Ry
     Harris-Foulkes estimate   =  -21094.97946781 Ry
     estimated scf accuracy    <       0.00019781 Ry

     total magnetization       =   160.45 Bohr mag/cell
     absolute magnetization    =   167.22 Bohr mag/cell

     iteration # 28     ecut=    60.00 Ry     beta= 0.20
     Davidson diagonalization with overlap
     ethr =  1.92E-08,  avg # of iterations = 13.4

     negative rho (up, down):  2.763E-02 1.969E-02

     total cpu time spent up to now is    13407.6 secs

     total energy              =  -21094.98334178 Ry
     Harris-Foulkes estimate   =  -21094.98414948 Ry
     estimated scf accuracy    <       0.00016669 Ry

     total magnetization       =   160.51 Bohr mag/cell
     absolute magnetization    =   167.31 Bohr mag/cell

     iteration # 29     ecut=    60.00 Ry     beta= 0.20
     Davidson diagonalization with overlap
     ethr =  1.62E-08,  avg # of iterations =  4.8

     negative rho (up, down):  2.806E-02 1.964E-02

     total cpu time spent up to now is    13633.7 secs

     total energy              =  -21094.98289855 Ry
     Harris-Foulkes estimate   =  -21094.98335176 Ry
     estimated scf accuracy    <       0.00010217 Ry

     total magnetization       =   160.51 Bohr mag/cell
     absolute magnetization    =   167.31 Bohr mag/cell

     iteration # 30     ecut=    60.00 Ry     beta= 0.20
     Davidson diagonalization with overlap
     ethr =  9.91E-09,  avg # of iterations =  8.1

     negative rho (up, down):  2.581E-02 1.960E-02

     total cpu time spent up to now is    13887.0 secs

     total energy              =  -21094.98506425 Ry
     Harris-Foulkes estimate   =  -21094.98291259 Ry
     estimated scf accuracy    <       0.00006588 Ry

     total magnetization       =   160.51 Bohr mag/cell
     absolute magnetization    =   167.32 Bohr mag/cell

     iteration # 31     ecut=    60.00 Ry     beta= 0.20
     Davidson diagonalization with overlap
     c_bands:  3 eigenvalues not converged
     ethr =  6.39E-09,  avg # of iterations =  9.6

     negative rho (up, down):  2.435E-02 1.975E-02

     total cpu time spent up to now is    14501.1 secs

     total energy              =  -21094.98631657 Ry
     Harris-Foulkes estimate   =  -21094.98508611 Ry
     estimated scf accuracy    <       0.00004756 Ry

     total magnetization       =   160.51 Bohr mag/cell
     absolute magnetization    =   167.33 Bohr mag/cell

     iteration # 32     ecut=    60.00 Ry     beta= 0.20
     Davidson diagonalization with overlap
     c_bands:  1 eigenvalues not converged
     ethr =  4.61E-09,  avg # of iterations =  7.5

     negative rho (up, down):  2.428E-02 1.980E-02

     total cpu time spent up to now is    14746.3 secs

     total energy              =  -21094.98645805 Ry
     Harris-Foulkes estimate   =  -21094.98632352 Ry
     estimated scf accuracy    <       0.00001018 Ry

     total magnetization       =   160.53 Bohr mag/cell
     absolute magnetization    =   167.35 Bohr mag/cell

     iteration # 33     ecut=    60.00 Ry     beta= 0.20
     Davidson diagonalization with overlap
     c_bands:  2 eigenvalues not converged
     ethr =  9.88E-10,  avg # of iterations = 14.9

     negative rho (up, down):  2.413E-02 1.977E-02

     total cpu time spent up to now is    15618.1 secs

     total energy              =  -21094.98631270 Ry
     Harris-Foulkes estimate   =  -21094.98647109 Ry
     estimated scf accuracy    <       0.00001059 Ry

     total magnetization       =   160.53 Bohr mag/cell
     absolute magnetization    =   167.35 Bohr mag/cell

     iteration # 34     ecut=    60.00 Ry     beta= 0.20
     Davidson diagonalization with overlap
     c_bands:  2 eigenvalues not converged
     ethr =  9.88E-10,  avg # of iterations =  4.8

     negative rho (up, down):  2.398E-02 1.976E-02

     total cpu time spent up to now is    15905.1 secs

     total energy              =  -21094.98636086 Ry
     Harris-Foulkes estimate   =  -21094.98631304 Ry
     estimated scf accuracy    <       0.00000738 Ry

     total magnetization       =   160.53 Bohr mag/cell
     absolute magnetization    =   167.36 Bohr mag/cell

     iteration # 35     ecut=    60.00 Ry     beta= 0.20
     Davidson diagonalization with overlap
     ethr =  7.16E-10,  avg # of iterations =  5.2

     negative rho (up, down):  2.458E-02 1.976E-02

     total cpu time spent up to now is    16153.2 secs

     total energy              =  -21094.98595662 Ry
     Harris-Foulkes estimate   =  -21094.98636126 Ry
     estimated scf accuracy    <       0.00000377 Ry

     total magnetization       =   160.53 Bohr mag/cell
     absolute magnetization    =   167.36 Bohr mag/cell

     iteration # 36     ecut=    60.00 Ry     beta= 0.20
     Davidson diagonalization with overlap
     ethr =  3.66E-10,  avg # of iterations = 15.3

     negative rho (up, down):  2.453E-02 1.979E-02

     total cpu time spent up to now is    17153.5 secs

     total energy              =  -21094.98583862 Ry
     Harris-Foulkes estimate   =  -21094.98595951 Ry
     estimated scf accuracy    <       0.00000331 Ry

     total magnetization       =   160.54 Bohr mag/cell
     absolute magnetization    =   167.37 Bohr mag/cell

     iteration # 37     ecut=    60.00 Ry     beta= 0.20
     Davidson diagonalization with overlap
     ethr =  3.21E-10,  avg # of iterations =  8.8

     negative rho (up, down):  2.458E-02 1.980E-02

     total cpu time spent up to now is    17440.7 secs

     total energy              =  -21094.98576269 Ry
     Harris-Foulkes estimate   =  -21094.98583897 Ry
     estimated scf accuracy    <       0.00000066 Ry

     total magnetization       =   160.54 Bohr mag/cell
     absolute magnetization    =   167.37 Bohr mag/cell

     iteration # 38     ecut=    60.00 Ry     beta= 0.20
     Davidson diagonalization with overlap
     ethr =  6.36E-11,  avg # of iterations = 12.3

     negative rho (up, down):  2.464E-02 1.979E-02

     total cpu time spent up to now is    18047.3 secs

     total energy              =  -21094.98573965 Ry
     Harris-Foulkes estimate   =  -21094.98576314 Ry
     estimated scf accuracy    <       0.00000014 Ry

     total magnetization       =   160.54 Bohr mag/cell
     absolute magnetization    =   167.37 Bohr mag/cell

     iteration # 39     ecut=    60.00 Ry     beta= 0.20
     Davidson diagonalization with overlap
     ethr =  1.41E-11,  avg # of iterations = 12.8

     negative rho (up, down):  2.469E-02 1.981E-02

     total cpu time spent up to now is    18745.3 secs

     total energy              =  -21094.98571132 Ry
     Harris-Foulkes estimate   =  -21094.98573974 Ry
     estimated scf accuracy    <       0.00000008 Ry

     total magnetization       =   160.54 Bohr mag/cell
     absolute magnetization    =   167.37 Bohr mag/cell

     iteration # 40     ecut=    60.00 Ry     beta= 0.20
     Davidson diagonalization with overlap
     ethr =  7.90E-12,  avg # of iterations =  7.5

     negative rho (up, down):  2.474E-02 1.981E-02

     total cpu time spent up to now is    19045.9 secs

     total energy              =  -21094.98568371 Ry
     Harris-Foulkes estimate   =  -21094.98571133 Ry
     estimated scf accuracy    <       0.00000005 Ry

     total magnetization       =   160.54 Bohr mag/cell
     absolute magnetization    =   167.37 Bohr mag/cell

     iteration # 41     ecut=    60.00 Ry     beta= 0.20
     Davidson diagonalization with overlap
     ethr =  4.67E-12,  avg # of iterations = 11.3

     negative rho (up, down):  2.473E-02 1.980E-02

     total cpu time spent up to now is    19820.3 secs

     total energy              =  -21094.98568569 Ry
     Harris-Foulkes estimate   =  -21094.98568374 Ry
     estimated scf accuracy    <       0.00000002 Ry

     total magnetization       =   160.54 Bohr mag/cell
     absolute magnetization    =   167.37 Bohr mag/cell

     iteration # 42     ecut=    60.00 Ry     beta= 0.20
     Davidson diagonalization with overlap
     ethr =  2.01E-12,  avg # of iterations =  8.7

     negative rho (up, down):  2.470E-02 1.981E-02

     Magnetic moment per site:
     atom:    1    charge:   12.6080    magn:    2.3570    constr:    0.0000
     atom:    2    charge:   12.5992    magn:    2.1976    constr:    0.0000
     atom:    3    charge:   12.6081    magn:    2.3601    constr:    0.0000
     atom:    4    charge:   12.5969    magn:    2.1961    constr:    0.0000
     atom:    5    charge:   12.6007    magn:    2.1922    constr:    0.0000
     atom:    6    charge:   12.6088    magn:    2.2056    constr:    0.0000
     atom:    7    charge:   12.5974    magn:    2.1764    constr:    0.0000
     atom:    8    charge:   12.6058    magn:    2.3749    constr:    0.0000
     atom:    9    charge:   12.6086    magn:    2.3514    constr:    0.0000
     atom:   10    charge:   12.6078    magn:    2.3620    constr:    0.0000
     atom:   11    charge:   12.5971    magn:    2.2077    constr:    0.0000
     atom:   12    charge:   12.5984    magn:    2.1958    constr:    0.0000
     atom:   13    charge:   12.5976    magn:    2.1880    constr:    0.0000
     atom:   14    charge:   12.6009    magn:    2.1268    constr:    0.0000
     atom:   15    charge:   12.6114    magn:    2.3307    constr:    0.0000
     atom:   16    charge:   12.6077    magn:    2.2522    constr:    0.0000
     atom:   17    charge:   12.6079    magn:    2.3601    constr:    0.0000
     atom:   18    charge:   12.5968    magn:    2.1963    constr:    0.0000
     atom:   19    charge:   12.6080    magn:    2.3609    constr:    0.0000
     atom:   20    charge:   12.5981    magn:    2.2018    constr:    0.0000
     atom:   21    charge:   12.5973    magn:    2.1760    constr:    0.0000
     atom:   22    charge:   12.6057    magn:    2.3750    constr:    0.0000
     atom:   23    charge:   12.5974    magn:    2.1753    constr:    0.0000
     atom:   24    charge:   12.6048    magn:    1.8728    constr:    0.0000
     atom:   25    charge:   12.6082    magn:    2.3745    constr:    0.0000
     atom:   26    charge:   12.6081    magn:    2.3519    constr:    0.0000
     atom:   27    charge:   12.5961    magn:    2.1975    constr:    0.0000
     atom:   28    charge:   12.5969    magn:    2.2055    constr:    0.0000
     atom:   29    charge:   12.6024    magn:    2.2257    constr:    0.0000
     atom:   30    charge:   12.6001    magn:    2.1144    constr:    0.0000
     atom:   31    charge:   12.6020    magn:    2.2378    constr:    0.0000
     atom:   32    charge:   12.6110    magn:    2.3298    constr:    0.0000
     atom:   33    charge:   12.6080    magn:    2.3579    constr:    0.0000
     atom:   34    charge:   12.5968    magn:    2.1908    constr:    0.0000
     atom:   35    charge:   12.6079    magn:    2.3570    constr:    0.0000
     atom:   36    charge:   12.5995    magn:    2.1979    constr:    0.0000
     atom:   37    charge:   12.6007    magn:    2.1778    constr:    0.0000
     atom:   38    charge:   12.6072    magn:    2.3573    constr:    0.0000
     atom:   39    charge:   12.6004    magn:    2.1926    constr:    0.0000
     atom:   40    charge:   12.6088    magn:    2.2054    constr:    0.0000
     atom:   41    charge:   12.6077    magn:    2.3668    constr:    0.0000
     atom:   42    charge:   12.6086    magn:    2.3520    constr:    0.0000
     atom:   43    charge:   12.5980    magn:    2.1985    constr:    0.0000
     atom:   44    charge:   12.5969    magn:    2.2056    constr:    0.0000
     atom:   45    charge:   12.6008    magn:    2.1847    constr:    0.0000
     atom:   46    charge:   12.6001    magn:    2.1141    constr:    0.0000
     atom:   47    charge:   12.6103    magn:    2.3807    constr:    0.0000
     atom:   48    charge:   12.6109    magn:    2.3300    constr:    0.0000
     atom:   49    charge:   12.6082    magn:    2.3609    constr:    0.0000
     atom:   50    charge:   12.5986    magn:    2.2020    constr:    0.0000
     atom:   51    charge:   12.6081    magn:    2.3579    constr:    0.0000
     atom:   52    charge:   12.5968    magn:    2.1908    constr:    0.0000
     atom:   53    charge:   12.5975    magn:    2.1756    constr:    0.0000
     atom:   54    charge:   12.6043    magn:    1.8730    constr:    0.0000
     atom:   55    charge:   12.6011    magn:    2.1775    constr:    0.0000
     atom:   56    charge:   12.6072    magn:    2.3572    constr:    0.0000
     atom:   57    charge:   12.6086    magn:    2.3514    constr:    0.0000
     atom:   58    charge:   12.6077    magn:    2.3621    constr:    0.0000
     atom:   59    charge:   12.5971    magn:    2.2078    constr:    0.0000
     atom:   60    charge:   12.5962    magn:    2.1988    constr:    0.0000
     atom:   61    charge:   12.5976    magn:    2.1881    constr:    0.0000
     atom:   62    charge:   12.6008    magn:    2.1359    constr:    0.0000
     atom:   63    charge:   12.6113    magn:    2.3310    constr:    0.0000
     atom:   64    charge:   12.6014    magn:    2.2453    constr:    0.0000
     atom:   65    charge:    1.3300    magn:   -0.0330    constr:    0.0000
     atom:   66    charge:    0.4356    magn:    0.0071    constr:    0.0000
     atom:   67    charge:    0.3544    magn:   -0.0205    constr:    0.0000

     total cpu time spent up to now is    20454.0 secs

     End of self-consistent calculation

 ------ SPIN UP ------------


          k = 0.0000 0.0000 0.0000 (128403 PWs)   bands (ev):

   -94.9498 -94.9417 -94.9119 -94.9080 -94.9063 -94.8983 -94.8842 -94.8829
   -94.8808 -94.8792 -94.8772 -94.8752 -94.8717 -94.8680 -94.8623 -94.8617
   -94.8616 -94.8615 -94.8575 -94.8547 -94.8543 -94.8531 -94.8523 -94.8489
   -94.8464 -94.8427 -94.8358 -94.8325 -94.8210 -94.8135 -94.8043 -94.8020
   -94.7871 -94.7687 -94.7559 -94.7552 -94.7523 -94.7498 -94.7450 -94.7405
   -94.7347 -94.7326 -94.7311 -94.7305 -94.7302 -94.7298 -94.7274 -94.7270
   -94.7262 -94.7238 -94.7222 -94.7217 -94.7213 -94.7173 -94.7147 -94.7141
   -94.7098 -94.7088 -94.7058 -94.7026 -94.6982 -94.6944 -94.6800 -94.6747
   -61.1367 -61.1256 -61.1063 -61.0980 -61.0931 -61.0887 -61.0844 -61.0801
   -61.0711 -61.0695 -61.0673 -61.0654 -61.0647 -61.0593 -61.0579 -61.0568
   -61.0564 -61.0538 -61.0523 -61.0512 -61.0501 -61.0444 -61.0415 -61.0401
   -61.0374 -61.0367 -61.0346 -61.0311 -61.0252 -61.0247 -61.0202 -61.0183
   -61.0170 -61.0116 -61.0094 -61.0064 -61.0058 -61.0040 -60.9956 -60.9901
   -60.9835 -60.9826 -60.9826 -60.9824 -60.9811 -60.9733 -60.9563 -60.9452
   -60.9341 -60.9330 -60.9314 -60.9274 -60.9236 -60.9195 -60.9188 -60.9143
   -60.9142 -60.9132 -60.9100 -60.9096 -60.9084 -60.9051 -60.9051 -60.9015
   -60.9008 -60.8963 -60.8952 -60.8931 -60.8906 -60.8882 -60.8857 -60.8845
   -60.8838 -60.8742 -60.8739 -60.8677 -60.8587 -60.8570 -60.8558 -60.8541
   -60.8504 -60.8498 -60.8484 -60.8476 -60.8441 -60.8436 -60.8425 -60.8421
   -60.8414 -60.8400 -60.8394 -60.8363 -60.8343 -60.8338 -60.8322 -60.8290
   -60.8274 -60.8266 -60.8236 -60.8175 -60.8164 -60.8104 -60.8060 -60.8053
   -60.8027 -60.8016 -60.7987 -60.7958 -60.7941 -60.7932 -60.7923 -60.7891
   -60.7888 -60.7869 -60.7830 -60.7806 -60.7789 -60.7786 -60.7759 -60.7729
   -60.7728 -60.7700 -60.7689 -60.7665 -60.7665 -60.7659 -60.7654 -60.7643
   -60.7632 -60.7616 -60.7586 -60.7516 -60.7482 -60.7479 -60.7461 -60.7456
   -60.7394 -60.7384 -60.7381 -60.7322 -60.7289 -60.7284 -60.7252 -60.7242
   -60.7238 -60.7229 -60.7115 -60.7103 -60.7102 -60.7064 -60.7021 -60.7002
   -60.6946 -60.6922 -60.6899 -60.6897 -60.6889 -60.6881 -60.6835 -60.6815
   -60.6810 -60.6808 -60.6761 -60.6741 -60.6739 -60.6735 -60.6693 -60.6685
   -60.6631 -60.6630 -60.6614 -60.6580 -60.6537 -60.6488 -60.6485 -60.6444
   -60.6440 -60.6423 -60.6363 -60.6351 -60.6341 -60.6313 -60.6273 -60.6264
   -60.6261 -60.6251 -60.6247 -60.6236 -60.6223 -60.6204 -60.6183 -60.6150
   -22.9250 -14.8448 -14.4715 -13.6462 -13.0672 -13.0656 -13.0025 -12.9793
   -12.7631 -12.5570 -12.4514 -12.3036 -12.3030 -11.9987 -11.8989 -11.8491
   -11.7116 -11.6914 -11.5780 -11.5356 -11.4292 -11.3722 -11.3709 -11.3266
   -11.3248 -11.3069 -11.2507 -11.2352 -11.1864 -11.1665 -10.9379 -10.9051
   -10.8964 -10.8658 -10.8180 -10.8172 -10.8084 -10.7986 -10.7974 -10.7880
   -10.7754 -10.7744 -10.7743 -10.7661 -10.7618 -10.7591 -10.7395 -10.7335
   -10.7186 -10.7147 -10.7108 -10.7040 -10.6909 -10.6841 -10.6795 -10.6591
   -10.6101 -10.6019 -10.5803 -10.5272 -10.5171 -10.5150 -10.5059 -10.4986
   -10.4277 -10.4188 -10.3989 -10.2290 -10.2240 -10.1950 -10.1932 -10.1906
   -10.1646 -10.1104 -10.0454 -10.0364 -10.0290 -10.0284 -10.0188 -10.0166
   -10.0163 -10.0009  -9.9888  -9.9806  -9.9774  -9.9735  -9.9704  -9.9655
    -9.9625  -9.9556  -9.9536  -9.9477  -9.9395  -9.9317  -9.9310  -9.9160
    -9.9069  -9.8888  -9.8815  -9.8810  -9.8733  -9.8664  -9.8637  -9.8577
    -9.8480  -9.8452  -9.8262  -9.8223  -9.8146  -9.8146  -9.8119  -9.8039
    -9.7442  -9.6861  -9.6619  -9.6428  -9.6408  -9.6361  -9.6313  -9.5763
    -9.5540  -9.5253  -9.5125  -9.4497  -9.4486  -9.4409  -9.4355  -9.4283
    -9.4247  -9.4085  -9.4008  -9.3910  -9.3656  -9.3655  -9.3418  -9.3325
    -9.3253  -9.3160  -9.3044  -9.3028  -9.2989  -9.2948  -9.2915  -9.2883
    -9.2825  -9.2701  -9.2351  -9.2260  -9.2010  -9.1396  -9.1363  -9.1351
    -9.1348  -9.1155  -9.1104  -9.0879  -9.0870  -9.0807  -9.0760  -9.0667
    -9.0501  -9.0206  -9.0170  -9.0033  -8.9935  -8.9884  -8.9865  -8.9858
    -8.9730  -8.9560  -8.9505  -8.9295  -8.9066  -8.8971  -8.8878  -8.8860
    -8.8770  -8.8721  -8.8688  -8.8583  -8.8527  -8.8515  -8.8368  -8.8364
    -8.8012  -8.8000  -8.7416  -8.7343  -8.7294  -8.6164  -8.6130  -8.4766
    -8.4707  -8.4513  -8.3498  -8.3433  -8.3318  -8.3285  -8.3158  -8.3152
    -8.3141  -8.3058  -8.2977  -8.2749  -8.2608  -8.2604  -8.2585  -8.2382
    -8.1983  -8.1904  -8.1900  -8.1797  -8.1716  -8.1599  -8.1443  -8.1399
    -8.1383  -8.1320  -8.1198  -8.1195  -8.1147  -8.1103  -8.0869  -8.0734
    -8.0677  -8.0611  -8.0426  -8.0411  -8.0280  -8.0243  -8.0120  -8.0109
    -8.0064  -7.9916  -7.9909  -7.9838  -7.9811  -7.9747  -7.9607  -7.9578
    -7.9565  -7.9367  -7.9260  -7.9227  -7.9160  -7.9128  -7.9068  -7.9051
    -7.9030  -7.9016  -7.8992  -7.8973  -7.8926  -7.8880  -7.8871  -7.8833
    -7.8777  -7.8756  -7.8691  -7.8659  -7.8577  -7.8493  -7.8488  -7.8444
    -7.8391  -7.8268  -7.8224  -7.8140  -7.8071  -7.8008  -7.7961  -7.7864
    -7.7814  -7.7807  -7.7777  -7.7743  -7.7692  -7.7659  -7.7631  -7.7521
    -7.7327  -7.7319  -7.7010  -7.6996  -7.6848  -7.6762  -7.6713  -7.6613
    -7.6510  -7.6485  -7.6375  -7.6284  -7.5616  -7.5549  -7.5548  -7.5266
    -7.5253  -7.5197  -7.5132  -7.5046  -7.4935  -7.4917  -7.4901  -7.4845
    -7.4803  -7.4687  -7.4631  -7.4599  -7.4532  -7.4436  -7.4284  -7.4252
    -7.4180  -7.4165  -7.3638  -7.3366  -7.2271  -7.1845  -7.0322  -7.0221
    -7.0203  -7.0032  -6.9638  -6.9362  -6.9320  -6.8988  -6.8924  -6.8604
    -6.8584  -6.8439  -6.8164  -6.7698  -6.7600  -6.7589  -6.7342  -6.6953
    -6.6880  -6.6838  -6.6758  -6.6402  -6.5670  -6.5461  -6.5163  -6.4440
    -6.4433  -6.3480  -6.1809  -6.1479  -6.0890  -6.0620  -5.7287  -5.7040
    -5.6877  -5.6842  -5.5096  -5.4767  -5.3222  -5.0270  -4.8401  -4.7971
    -4.7961  -4.7957  -4.7443

          k = 0.0000 0.2652 0.0000 (128375 PWs)   bands (ev):

   -94.9497 -94.9417 -94.9117 -94.9086 -94.9060 -94.8970 -94.8880 -94.8814
   -94.8810 -94.8792 -94.8766 -94.8747 -94.8715 -94.8676 -94.8654 -94.8621
   -94.8611 -94.8584 -94.8572 -94.8559 -94.8537 -94.8530 -94.8510 -94.8494
   -94.8480 -94.8412 -94.8365 -94.8325 -94.8209 -94.8136 -94.8043 -94.8020
   -94.7869 -94.7683 -94.7599 -94.7548 -94.7502 -94.7488 -94.7436 -94.7387
   -94.7369 -94.7345 -94.7334 -94.7322 -94.7294 -94.7281 -94.7266 -94.7262
   -94.7253 -94.7248 -94.7223 -94.7214 -94.7202 -94.7171 -94.7149 -94.7140
   -94.7105 -94.7092 -94.7062 -94.7036 -94.6970 -94.6938 -94.6799 -94.6752
   -61.1358 -61.1257 -61.1064 -61.0984 -61.0930 -61.0876 -61.0831 -61.0806
   -61.0721 -61.0705 -61.0693 -61.0647 -61.0643 -61.0596 -61.0582 -61.0568
   -61.0539 -61.0524 -61.0510 -61.0500 -61.0495 -61.0470 -61.0413 -61.0403
   -61.0369 -61.0348 -61.0322 -61.0302 -61.0241 -61.0236 -61.0187 -61.0181
   -61.0119 -61.0090 -61.0074 -61.0056 -61.0033 -60.9989 -60.9966 -60.9912
   -60.9878 -60.9833 -60.9828 -60.9779 -60.9705 -60.9682 -60.9516 -60.9502
   -60.9450 -60.9366 -60.9341 -60.9315 -60.9302 -60.9273 -60.9236 -60.9201
   -60.9183 -60.9128 -60.9114 -60.9081 -60.9059 -60.9048 -60.9020 -60.9006
   -60.8993 -60.8981 -60.8979 -60.8946 -60.8938 -60.8898 -60.8884 -60.8847
   -60.8820 -60.8813 -60.8771 -60.8758 -60.8730 -60.8691 -60.8645 -60.8619
   -60.8584 -60.8558 -60.8544 -60.8513 -60.8503 -60.8488 -60.8440 -60.8405
   -60.8397 -60.8351 -60.8329 -60.8321 -60.8296 -60.8276 -60.8269 -60.8243
   -60.8209 -60.8200 -60.8166 -60.8153 -60.8120 -60.8104 -60.8078 -60.8042
   -60.8039 -60.8020 -60.7997 -60.7984 -60.7962 -60.7954 -60.7930 -60.7905
   -60.7884 -60.7870 -60.7863 -60.7842 -60.7811 -60.7795 -60.7748 -60.7739
   -60.7706 -60.7692 -60.7678 -60.7649 -60.7631 -60.7604 -60.7587 -60.7574
   -60.7558 -60.7521 -60.7517 -60.7501 -60.7461 -60.7441 -60.7430 -60.7393
   -60.7375 -60.7351 -60.7334 -60.7308 -60.7291 -60.7258 -60.7236 -60.7197
   -60.7187 -60.7179 -60.7160 -60.7115 -60.7074 -60.7034 -60.6987 -60.6984
   -60.6969 -60.6955 -60.6938 -60.6919 -60.6887 -60.6872 -60.6856 -60.6818
   -60.6807 -60.6789 -60.6776 -60.6746 -60.6707 -60.6688 -60.6657 -60.6634
   -60.6626 -60.6598 -60.6575 -60.6564 -60.6542 -60.6499 -60.6492 -60.6465
   -60.6448 -60.6441 -60.6407 -60.6392 -60.6353 -60.6347 -60.6324 -60.6314
   -60.6301 -60.6283 -60.6276 -60.6264 -60.6257 -60.6238 -60.6195 -60.6171
   -22.9250 -14.7824 -14.4306 -13.7601 -13.4734 -13.1349 -12.9732 -12.7738
   -12.6938 -12.5036 -12.3108 -12.2538 -12.1001 -12.0135 -11.9065 -11.8369
   -11.6968 -11.6486 -11.6050 -11.4991 -11.4353 -11.4101 -11.3322 -11.3101
   -11.2794 -11.2640 -11.2478 -11.2090 -11.1819 -11.1340 -11.0620 -10.9905
   -10.9577 -10.9308 -10.9174 -10.9070 -10.8997 -10.8870 -10.8811 -10.8679
   -10.8437 -10.8261 -10.8155 -10.8022 -10.7855 -10.7670 -10.7517 -10.7423
   -10.7210 -10.7124 -10.7064 -10.6902 -10.6848 -10.6330 -10.6265 -10.6200
   -10.6105 -10.6037 -10.5884 -10.5447 -10.5232 -10.4685 -10.4507 -10.4396
   -10.4086 -10.3965 -10.3588 -10.3095 -10.3013 -10.2529 -10.2064 -10.1681
   -10.1429 -10.1309 -10.1181 -10.0963 -10.0425 -10.0331 -10.0194 -10.0151
   -10.0042  -9.9968  -9.9904  -9.9803  -9.9753  -9.9658  -9.9571  -9.9534
    -9.9471  -9.9345  -9.9295  -9.9222  -9.9191  -9.9060  -9.8958  -9.8903
    -9.8831  -9.8789  -9.8744  -9.8691  -9.8600  -9.8534  -9.8414  -9.8324
    -9.8082  -9.7908  -9.7818  -9.7769  -9.7672  -9.7610  -9.7483  -9.7246
    -9.7223  -9.7136  -9.7070  -9.6795  -9.6568  -9.6117  -9.5961  -9.5705
    -9.5506  -9.5345  -9.5239  -9.5157  -9.5065  -9.4738  -9.4463  -9.4254
    -9.4194  -9.4100  -9.4042  -9.3918  -9.3901  -9.3752  -9.3738  -9.3655
    -9.3561  -9.3343  -9.3290  -9.3210  -9.3176  -9.3111  -9.2900  -9.2694
    -9.2650  -9.2554  -9.2215  -9.1970  -9.1735  -9.1676  -9.1562  -9.1505
    -9.1414  -9.1257  -9.1227  -9.1165  -9.1143  -9.1076  -9.0971  -9.0907
    -9.0829  -9.0759  -9.0635  -9.0540  -9.0446  -9.0278  -9.0178  -8.9931
    -8.9666  -8.9544  -8.9387  -8.9267  -8.9122  -8.9007  -8.8918  -8.8676
    -8.8593  -8.8462  -8.8336  -8.8208  -8.7893  -8.7727  -8.7510  -8.7339
    -8.7164  -8.6949  -8.6753  -8.6572  -8.6438  -8.5953  -8.5043  -8.4641
    -8.4568  -8.4512  -8.4176  -8.4022  -8.3844  -8.3688  -8.3593  -8.3371
    -8.3188  -8.3052  -8.3011  -8.2922  -8.2853  -8.2718  -8.2698  -8.2590
    -8.2475  -8.2239  -8.2176  -8.2115  -8.1924  -8.1823  -8.1507  -8.1429
    -8.1337  -8.1254  -8.1214  -8.1126  -8.1096  -8.0969  -8.0923  -8.0808
    -8.0781  -8.0715  -8.0607  -8.0539  -8.0242  -8.0110  -8.0066  -8.0040
    -7.9962  -7.9908  -7.9826  -7.9773  -7.9732  -7.9665  -7.9583  -7.9565
    -7.9486  -7.9461  -7.9382  -7.9302  -7.9246  -7.9225  -7.9133  -7.9032
    -7.8982  -7.8890  -7.8840  -7.8775  -7.8727  -7.8659  -7.8578  -7.8546
    -7.8532  -7.8485  -7.8451  -7.8333  -7.8300  -7.8266  -7.8245  -7.8126
    -7.8061  -7.8036  -7.7906  -7.7898  -7.7872  -7.7828  -7.7796  -7.7786
    -7.7686  -7.7643  -7.7470  -7.7412  -7.7354  -7.7277  -7.7183  -7.7135
    -7.7045  -7.6947  -7.6709  -7.6483  -7.6441  -7.6398  -7.6330  -7.6275
    -7.6174  -7.6115  -7.5981  -7.5896  -7.5832  -7.5810  -7.5738  -7.5654
    -7.5453  -7.5357  -7.5130  -7.5107  -7.5091  -7.5018  -7.4852  -7.4814
    -7.4695  -7.4662  -7.4612  -7.4478  -7.4370  -7.4145  -7.3730  -7.3633
    -7.3285  -7.3161  -7.2802  -7.2345  -7.1768  -7.0877  -7.0818  -7.0626
    -7.0451  -7.0424  -7.0091  -7.0043  -6.9895  -6.9566  -6.9289  -6.9249
    -6.9155  -6.9024  -6.8908  -6.8746  -6.8685  -6.8487  -6.8359  -6.8048
    -6.7918  -6.7819  -6.7385  -6.7099  -6.6782  -6.6465  -6.6359  -6.5050
    -6.4567  -6.2544  -6.1576  -6.0623  -6.0421  -5.9567  -5.8688  -5.7773
    -5.6794  -5.6188  -5.5202  -5.4935  -5.3911  -5.3267  -5.2450  -5.1186
    -5.0928  -4.9094  -4.8986

          k = 0.0000-0.5303 0.0000 (128388 PWs)   bands (ev):

   -94.9497 -94.9417 -94.9114 -94.9091 -94.9058 -94.8943 -94.8922 -94.8812
   -94.8793 -94.8792 -94.8785 -94.8729 -94.8725 -94.8676 -94.8657 -94.8605
   -94.8603 -94.8599 -94.8594 -94.8530 -94.8528 -94.8514 -94.8510 -94.8509
   -94.8503 -94.8389 -94.8384 -94.8325 -94.8208 -94.8137 -94.8044 -94.8019
   -94.7867 -94.7677 -94.7622 -94.7549 -94.7504 -94.7453 -94.7433 -94.7388
   -94.7375 -94.7358 -94.7345 -94.7320 -94.7294 -94.7281 -94.7272 -94.7257
   -94.7257 -94.7241 -94.7223 -94.7208 -94.7193 -94.7169 -94.7147 -94.7130
   -94.7118 -94.7104 -94.7060 -94.7043 -94.6964 -94.6931 -94.6798 -94.6756
   -61.1349 -61.1259 -61.1065 -61.0988 -61.0929 -61.0861 -61.0822 -61.0801
   -61.0751 -61.0710 -61.0701 -61.0642 -61.0624 -61.0609 -61.0598 -61.0536
   -61.0530 -61.0521 -61.0504 -61.0500 -61.0482 -61.0455 -61.0451 -61.0372
   -61.0363 -61.0352 -61.0330 -61.0241 -61.0212 -61.0208 -61.0197 -61.0184
   -61.0117 -61.0065 -61.0016 -61.0015 -60.9976 -60.9962 -60.9957 -60.9950
   -60.9915 -60.9838 -60.9757 -60.9718 -60.9636 -60.9597 -60.9578 -60.9519
   -60.9481 -60.9445 -60.9397 -60.9394 -60.9385 -60.9349 -60.9326 -60.9292
   -60.9267 -60.9151 -60.9106 -60.9085 -60.9061 -60.9041 -60.9030 -60.8996
   -60.8972 -60.8955 -60.8924 -60.8907 -60.8900 -60.8889 -60.8872 -60.8851
   -60.8825 -60.8816 -60.8802 -60.8779 -60.8736 -60.8724 -60.8705 -60.8675
   -60.8647 -60.8633 -60.8613 -60.8595 -60.8565 -60.8560 -60.8547 -60.8514
   -60.8476 -60.8420 -60.8369 -60.8298 -60.8276 -60.8256 -60.8240 -60.8222
   -60.8196 -60.8171 -60.8154 -60.8111 -60.8101 -60.8085 -60.8079 -60.8049
   -60.7980 -60.7960 -60.7941 -60.7908 -60.7897 -60.7882 -60.7873 -60.7870
   -60.7859 -60.7844 -60.7835 -60.7831 -60.7802 -60.7782 -60.7768 -60.7722
   -60.7705 -60.7689 -60.7666 -60.7657 -60.7624 -60.7612 -60.7600 -60.7561
   -60.7554 -60.7530 -60.7498 -60.7455 -60.7425 -60.7414 -60.7394 -60.7385
   -60.7365 -60.7304 -60.7281 -60.7268 -60.7243 -60.7226 -60.7212 -60.7197
   -60.7178 -60.7150 -60.7110 -60.7094 -60.7086 -60.7077 -60.7046 -60.7020
   -60.7010 -60.6987 -60.6911 -60.6881 -60.6875 -60.6846 -60.6841 -60.6829
   -60.6785 -60.6746 -60.6677 -60.6662 -60.6651 -60.6633 -60.6624 -60.6605
   -60.6580 -60.6567 -60.6559 -60.6541 -60.6527 -60.6514 -60.6502 -60.6495
   -60.6491 -60.6484 -60.6445 -60.6431 -60.6425 -60.6420 -60.6407 -60.6385
   -60.6378 -60.6373 -60.6329 -60.6281 -60.6258 -60.6241 -60.6198 -60.6181
   -22.9250 -14.7136 -14.3003 -14.0860 -13.4816 -13.1057 -13.0804 -12.8549
   -12.6159 -12.3869 -12.2285 -12.1890 -12.0546 -11.9843 -11.8035 -11.6887
   -11.6592 -11.5789 -11.5670 -11.5176 -11.4545 -11.4064 -11.3627 -11.3385
   -11.2744 -11.2204 -11.1982 -11.1555 -11.1408 -11.1321 -11.1214 -11.1085
   -11.0980 -11.0944 -11.0724 -11.0580 -11.0460 -10.9815 -10.9725 -10.9224
   -10.8659 -10.8214 -10.7765 -10.7715 -10.7626 -10.7596 -10.7529 -10.6856
   -10.6760 -10.6713 -10.6658 -10.6620 -10.6510 -10.6444 -10.6399 -10.6309
   -10.6037 -10.5710 -10.5399 -10.5144 -10.5032 -10.4952 -10.4825 -10.4635
   -10.4080 -10.3985 -10.3619 -10.3563 -10.3169 -10.2940 -10.2910 -10.2784
   -10.2300 -10.1627 -10.1330 -10.0544 -10.0506 -10.0248 -10.0197 -10.0060
    -9.9973  -9.9901  -9.9748  -9.9630  -9.9613  -9.9510  -9.9468  -9.9444
    -9.9378  -9.9308  -9.9183  -9.9104  -9.9072  -9.9066  -9.8923  -9.8816
    -9.8786  -9.8670  -9.8590  -9.8070  -9.8029  -9.7858  -9.7755  -9.7623
    -9.7593  -9.7458  -9.7339  -9.7327  -9.7234  -9.7197  -9.7138  -9.7105
    -9.7025  -9.6925  -9.6873  -9.6741  -9.6604  -9.6511  -9.6455  -9.6227
    -9.6118  -9.5976  -9.5179  -9.5016  -9.4865  -9.4322  -9.4230  -9.4143
    -9.3966  -9.3941  -9.3919  -9.3846  -9.3803  -9.3753  -9.3649  -9.3643
    -9.3536  -9.3516  -9.3477  -9.3442  -9.3330  -9.3253  -9.3176  -9.3094
    -9.3003  -9.2946  -9.2808  -9.2774  -9.2716  -9.2341  -9.2275  -9.2150
    -9.1974  -9.1863  -9.1836  -9.1670  -9.1645  -9.1508  -9.1375  -9.1234
    -9.1037  -9.0954  -9.0865  -9.0634  -9.0253  -9.0197  -9.0128  -8.9814
    -8.9487  -8.9169  -8.8956  -8.8875  -8.8740  -8.8683  -8.8601  -8.8514
    -8.8383  -8.8293  -8.7916  -8.7525  -8.6851  -8.6120  -8.5948  -8.5909
    -8.5820  -8.5722  -8.5534  -8.5315  -8.5288  -8.5158  -8.4995  -8.4767
    -8.4633  -8.4418  -8.4361  -8.4255  -8.4238  -8.4141  -8.3904  -8.3847
    -8.3789  -8.3727  -8.3662  -8.3627  -8.3351  -8.3081  -8.2753  -8.2545
    -8.2422  -8.2386  -8.2297  -8.2252  -8.2017  -8.1991  -8.1980  -8.1861
    -8.1519  -8.1497  -8.1327  -8.1059  -8.0926  -8.0903  -8.0865  -8.0859
    -8.0839  -8.0791  -8.0733  -8.0672  -8.0648  -8.0539  -8.0509  -8.0456
    -8.0444  -8.0395  -8.0367  -8.0220  -8.0179  -8.0093  -7.9506  -7.9466
    -7.9392  -7.9316  -7.9217  -7.9180  -7.9126  -7.9101  -7.9076  -7.8938
    -7.8929  -7.8782  -7.8746  -7.8681  -7.8666  -7.8623  -7.8601  -7.8531
    -7.8496  -7.8406  -7.8317  -7.8276  -7.8212  -7.8149  -7.7997  -7.7983
    -7.7916  -7.7846  -7.7647  -7.7608  -7.7462  -7.7403  -7.7298  -7.7255
    -7.7211  -7.7161  -7.6995  -7.6944  -7.6854  -7.6808  -7.6718  -7.6435
    -7.6406  -7.6380  -7.6362  -7.6312  -7.6286  -7.6247  -7.6225  -7.6151
    -7.6128  -7.6079  -7.6017  -7.6005  -7.5927  -7.5898  -7.5805  -7.5789
    -7.5751  -7.5378  -7.5212  -7.5133  -7.5007  -7.4382  -7.4285  -7.4041
    -7.3918  -7.3596  -7.3547  -7.3394  -7.3268  -7.3123  -7.2283  -7.2275
    -7.2087  -7.2050  -7.2012  -7.1849  -7.1662  -7.1594  -7.1491  -7.1254
    -7.1062  -7.1041  -7.0860  -7.0710  -7.0653  -7.0542  -7.0332  -6.9796
    -6.9610  -6.9556  -6.9238  -6.9146  -6.9094  -6.8858  -6.8810  -6.8664
    -6.8533  -6.8444  -6.8260  -6.8131  -6.8119  -6.7957  -6.7894  -6.6666
    -6.5319  -6.5029  -6.3432  -6.2782  -6.1741  -6.0743  -5.8072  -5.7366
    -5.7171  -5.6346  -5.6345  -5.4676  -5.1730  -5.1201  -5.0652  -5.0158
    -5.0038  -4.9706  -4.9238

          k = 0.2500-0.0884 0.0000 (128371 PWs)   bands (ev):

   -94.9497 -94.9417 -94.9117 -94.9086 -94.9060 -94.8970 -94.8880 -94.8814
   -94.8810 -94.8792 -94.8766 -94.8747 -94.8715 -94.8676 -94.8654 -94.8621
   -94.8611 -94.8584 -94.8572 -94.8559 -94.8537 -94.8530 -94.8510 -94.8494
   -94.8480 -94.8412 -94.8365 -94.8325 -94.8209 -94.8136 -94.8043 -94.8020
   -94.7869 -94.7683 -94.7599 -94.7547 -94.7502 -94.7488 -94.7436 -94.7387
   -94.7369 -94.7345 -94.7334 -94.7322 -94.7294 -94.7280 -94.7267 -94.7262
   -94.7253 -94.7248 -94.7222 -94.7214 -94.7202 -94.7171 -94.7149 -94.7140
   -94.7105 -94.7092 -94.7062 -94.7035 -94.6970 -94.6938 -94.6799 -94.6752
   -61.1358 -61.1257 -61.1064 -61.0984 -61.0930 -61.0876 -61.0831 -61.0806
   -61.0721 -61.0705 -61.0694 -61.0647 -61.0643 -61.0596 -61.0581 -61.0568
   -61.0539 -61.0524 -61.0510 -61.0500 -61.0495 -61.0469 -61.0413 -61.0403
   -61.0369 -61.0348 -61.0322 -61.0302 -61.0241 -61.0236 -61.0187 -61.0181
   -61.0119 -61.0090 -61.0074 -61.0056 -61.0033 -60.9989 -60.9966 -60.9912
   -60.9878 -60.9833 -60.9828 -60.9779 -60.9705 -60.9682 -60.9516 -60.9502
   -60.9450 -60.9366 -60.9341 -60.9315 -60.9302 -60.9273 -60.9236 -60.9201
   -60.9183 -60.9128 -60.9114 -60.9081 -60.9059 -60.9048 -60.9020 -60.9006
   -60.8993 -60.8981 -60.8979 -60.8946 -60.8938 -60.8898 -60.8884 -60.8847
   -60.8820 -60.8813 -60.8771 -60.8758 -60.8730 -60.8691 -60.8645 -60.8619
   -60.8585 -60.8558 -60.8544 -60.8513 -60.8502 -60.8488 -60.8440 -60.8405
   -60.8397 -60.8351 -60.8329 -60.8321 -60.8296 -60.8276 -60.8269 -60.8243
   -60.8210 -60.8200 -60.8166 -60.8153 -60.8120 -60.8104 -60.8078 -60.8042
   -60.8039 -60.8020 -60.7997 -60.7984 -60.7962 -60.7954 -60.7930 -60.7904
   -60.7884 -60.7870 -60.7864 -60.7841 -60.7811 -60.7795 -60.7748 -60.7739
   -60.7706 -60.7692 -60.7678 -60.7649 -60.7631 -60.7604 -60.7587 -60.7574
   -60.7558 -60.7521 -60.7517 -60.7501 -60.7461 -60.7441 -60.7430 -60.7393
   -60.7375 -60.7351 -60.7334 -60.7308 -60.7291 -60.7258 -60.7236 -60.7197
   -60.7187 -60.7179 -60.7160 -60.7115 -60.7074 -60.7035 -60.6987 -60.6984
   -60.6968 -60.6955 -60.6938 -60.6919 -60.6887 -60.6872 -60.6856 -60.6818
   -60.6807 -60.6788 -60.6776 -60.6746 -60.6708 -60.6687 -60.6657 -60.6634
   -60.6626 -60.6598 -60.6574 -60.6564 -60.6542 -60.6499 -60.6491 -60.6465
   -60.6448 -60.6441 -60.6408 -60.6392 -60.6353 -60.6347 -60.6324 -60.6314
   -60.6301 -60.6283 -60.6276 -60.6264 -60.6257 -60.6237 -60.6195 -60.6171
   -22.9250 -14.7824 -14.4306 -13.7601 -13.4734 -13.1349 -12.9732 -12.7738
   -12.6938 -12.5036 -12.3109 -12.2538 -12.1001 -12.0135 -11.9065 -11.8369
   -11.6967 -11.6486 -11.6050 -11.4991 -11.4353 -11.4101 -11.3322 -11.3101
   -11.2794 -11.2640 -11.2478 -11.2091 -11.1819 -11.1340 -11.0621 -10.9905
   -10.9577 -10.9308 -10.9174 -10.9071 -10.8997 -10.8870 -10.8811 -10.8679
   -10.8437 -10.8261 -10.8154 -10.8022 -10.7855 -10.7670 -10.7517 -10.7423
   -10.7210 -10.7124 -10.7064 -10.6902 -10.6848 -10.6330 -10.6265 -10.6200
   -10.6104 -10.6037 -10.5884 -10.5448 -10.5231 -10.4685 -10.4507 -10.4396
   -10.4085 -10.3965 -10.3588 -10.3095 -10.3013 -10.2530 -10.2064 -10.1681
   -10.1429 -10.1309 -10.1181 -10.0963 -10.0425 -10.0332 -10.0194 -10.0151
   -10.0042  -9.9968  -9.9904  -9.9803  -9.9752  -9.9658  -9.9571  -9.9535
    -9.9471  -9.9345  -9.9296  -9.9222  -9.9191  -9.9060  -9.8958  -9.8904
    -9.8832  -9.8788  -9.8744  -9.8691  -9.8600  -9.8534  -9.8414  -9.8324
    -9.8082  -9.7908  -9.7818  -9.7769  -9.7672  -9.7609  -9.7484  -9.7246
    -9.7223  -9.7136  -9.7070  -9.6795  -9.6568  -9.6117  -9.5961  -9.5705
    -9.5506  -9.5344  -9.5239  -9.5157  -9.5065  -9.4738  -9.4463  -9.4254
    -9.4194  -9.4100  -9.4042  -9.3917  -9.3901  -9.3752  -9.3738  -9.3655
    -9.3561  -9.3343  -9.3290  -9.3210  -9.3175  -9.3111  -9.2900  -9.2694
    -9.2650  -9.2554  -9.2215  -9.1969  -9.1735  -9.1677  -9.1562  -9.1505
    -9.1414  -9.1257  -9.1227  -9.1164  -9.1143  -9.1076  -9.0971  -9.0907
    -9.0829  -9.0758  -9.0635  -9.0539  -9.0446  -9.0278  -9.0177  -8.9930
    -8.9666  -8.9544  -8.9388  -8.9267  -8.9123  -8.9007  -8.8918  -8.8676
    -8.8593  -8.8462  -8.8336  -8.8207  -8.7893  -8.7727  -8.7509  -8.7340
    -8.7164  -8.6949  -8.6753  -8.6572  -8.6438  -8.5953  -8.5043  -8.4641
    -8.4568  -8.4511  -8.4175  -8.4022  -8.3844  -8.3688  -8.3594  -8.3371
    -8.3188  -8.3052  -8.3011  -8.2922  -8.2852  -8.2719  -8.2698  -8.2589
    -8.2475  -8.2239  -8.2177  -8.2116  -8.1924  -8.1823  -8.1507  -8.1430
    -8.1337  -8.1254  -8.1214  -8.1126  -8.1095  -8.0968  -8.0923  -8.0807
    -8.0781  -8.0715  -8.0606  -8.0539  -8.0241  -8.0110  -8.0066  -8.0040
    -7.9962  -7.9909  -7.9826  -7.9773  -7.9731  -7.9665  -7.9583  -7.9565
    -7.9486  -7.9461  -7.9382  -7.9302  -7.9246  -7.9225  -7.9133  -7.9033
    -7.8982  -7.8890  -7.8840  -7.8774  -7.8727  -7.8659  -7.8577  -7.8545
    -7.8532  -7.8485  -7.8451  -7.8333  -7.8300  -7.8267  -7.8245  -7.8126
    -7.8062  -7.8036  -7.7906  -7.7898  -7.7873  -7.7828  -7.7796  -7.7786
    -7.7686  -7.7643  -7.7470  -7.7412  -7.7354  -7.7277  -7.7183  -7.7135
    -7.7045  -7.6947  -7.6709  -7.6483  -7.6441  -7.6398  -7.6330  -7.6275
    -7.6174  -7.6115  -7.5981  -7.5896  -7.5832  -7.5810  -7.5738  -7.5654
    -7.5453  -7.5357  -7.5131  -7.5107  -7.5091  -7.5018  -7.4853  -7.4813
    -7.4696  -7.4662  -7.4612  -7.4478  -7.4370  -7.4145  -7.3730  -7.3634
    -7.3284  -7.3161  -7.2803  -7.2345  -7.1768  -7.0877  -7.0818  -7.0626
    -7.0452  -7.0424  -7.0091  -7.0043  -6.9895  -6.9566  -6.9289  -6.9250
    -6.9155  -6.9024  -6.8908  -6.8746  -6.8685  -6.8487  -6.8359  -6.8048
    -6.7919  -6.7818  -6.7384  -6.7099  -6.6782  -6.6465  -6.6359  -6.5049
    -6.4567  -6.2544  -6.1576  -6.0623  -6.0422  -5.9568  -5.8688  -5.7773
    -5.6794  -5.6188  -5.5202  -5.4935  -5.3911  -5.3267  -5.2450  -5.1186
    -5.0928  -4.9080  -4.8959

          k = 0.2500 0.1768 0.0000 (128340 PWs)   bands (ev):

   -94.9497 -94.9417 -94.9116 -94.9083 -94.9064 -94.8961 -94.8881 -94.8810
   -94.8807 -94.8801 -94.8793 -94.8768 -94.8698 -94.8637 -94.8623 -94.8615
   -94.8611 -94.8603 -94.8595 -94.8591 -94.8517 -94.8512 -94.8512 -94.8507
   -94.8481 -94.8398 -94.8379 -94.8325 -94.8208 -94.8137 -94.8044 -94.8019
   -94.7867 -94.7676 -94.7602 -94.7554 -94.7527 -94.7487 -94.7437 -94.7362
   -94.7349 -94.7338 -94.7308 -94.7305 -94.7299 -94.7296 -94.7283 -94.7272
   -94.7263 -94.7250 -94.7231 -94.7213 -94.7197 -94.7189 -94.7158 -94.7133
   -94.7110 -94.7071 -94.7059 -94.7048 -94.6962 -94.6933 -94.6802 -94.6754
   -61.1353 -61.1259 -61.1060 -61.0987 -61.0933 -61.0873 -61.0824 -61.0792
   -61.0719 -61.0698 -61.0696 -61.0653 -61.0618 -61.0614 -61.0599 -61.0584
   -61.0525 -61.0523 -61.0500 -61.0496 -61.0484 -61.0449 -61.0428 -61.0420
   -61.0365 -61.0353 -61.0310 -61.0267 -61.0240 -61.0216 -61.0195 -61.0184
   -61.0065 -61.0055 -61.0047 -61.0041 -60.9987 -60.9984 -60.9960 -60.9833
   -60.9819 -60.9772 -60.9767 -60.9756 -60.9747 -60.9670 -60.9510 -60.9504
   -60.9459 -60.9436 -60.9405 -60.9375 -60.9357 -60.9314 -60.9300 -60.9262
   -60.9230 -60.9178 -60.9168 -60.9159 -60.9124 -60.9087 -60.9027 -60.9024
   -60.8993 -60.8983 -60.8973 -60.8972 -60.8956 -60.8928 -60.8906 -60.8855
   -60.8849 -60.8821 -60.8783 -60.8780 -60.8695 -60.8693 -60.8662 -60.8658
   -60.8636 -60.8603 -60.8576 -60.8546 -60.8500 -60.8466 -60.8466 -60.8422
   -60.8373 -60.8369 -60.8352 -60.8331 -60.8293 -60.8269 -60.8253 -60.8233
   -60.8210 -60.8201 -60.8141 -60.8124 -60.8108 -60.8095 -60.8058 -60.8048
   -60.8046 -60.8025 -60.8021 -60.7994 -60.7978 -60.7944 -60.7940 -60.7918
   -60.7889 -60.7882 -60.7836 -60.7790 -60.7741 -60.7740 -60.7717 -60.7706
   -60.7702 -60.7663 -60.7657 -60.7640 -60.7606 -60.7591 -60.7583 -60.7581
   -60.7553 -60.7514 -60.7495 -60.7462 -60.7451 -60.7413 -60.7351 -60.7323
   -60.7320 -60.7305 -60.7283 -60.7270 -60.7269 -60.7239 -60.7233 -60.7169
   -60.7163 -60.7156 -60.7138 -60.7130 -60.7104 -60.7053 -60.7047 -60.6973
   -60.6969 -60.6942 -60.6933 -60.6871 -60.6836 -60.6831 -60.6816 -60.6785
   -60.6779 -60.6756 -60.6748 -60.6738 -60.6719 -60.6677 -60.6668 -60.6645
   -60.6634 -60.6623 -60.6572 -60.6557 -60.6556 -60.6515 -60.6490 -60.6464
   -60.6461 -60.6449 -60.6420 -60.6405 -60.6395 -60.6365 -60.6355 -60.6339
   -60.6330 -60.6322 -60.6312 -60.6302 -60.6292 -60.6288 -60.6252 -60.6196
   -22.9250 -14.7695 -14.4010 -13.6491 -13.3904 -13.3538 -13.2274 -12.8361
   -12.5269 -12.4899 -12.3379 -12.2917 -12.0668 -11.9707 -11.9365 -11.8039
   -11.6841 -11.5526 -11.5272 -11.4231 -11.3347 -11.3294 -11.3187 -11.2785
   -11.2652 -11.2141 -11.2004 -11.1999 -11.1775 -11.1035 -11.0879 -11.0756
   -10.9942 -10.9697 -10.9674 -10.9546 -10.8934 -10.8793 -10.8780 -10.8635
   -10.8425 -10.8310 -10.8307 -10.8151 -10.8091 -10.8066 -10.7988 -10.7970
   -10.7585 -10.7559 -10.7270 -10.7170 -10.7016 -10.6930 -10.6564 -10.6291
   -10.6244 -10.5738 -10.5584 -10.5467 -10.4641 -10.4630 -10.4257 -10.4208
   -10.3964 -10.3448 -10.3291 -10.3236 -10.2913 -10.2888 -10.2481 -10.2186
   -10.1561 -10.1413 -10.1234 -10.0617 -10.0547 -10.0462 -10.0459 -10.0303
   -10.0230 -10.0209 -10.0169 -10.0165 -10.0086 -10.0059  -9.9980  -9.9916
    -9.9905  -9.9695  -9.9567  -9.9450  -9.9156  -9.9025  -9.8872  -9.8740
    -9.8677  -9.8393  -9.8366  -9.8176  -9.8166  -9.8129  -9.8057  -9.7963
    -9.7847  -9.7696  -9.7620  -9.7549  -9.7290  -9.7177  -9.6903  -9.6803
    -9.6724  -9.6601  -9.6470  -9.6192  -9.6127  -9.6094  -9.6083  -9.6031
    -9.5966  -9.5847  -9.5818  -9.5667  -9.5611  -9.5411  -9.5073  -9.5034
    -9.4899  -9.4566  -9.4308  -9.4116  -9.4024  -9.3978  -9.3925  -9.3820
    -9.3719  -9.3557  -9.3393  -9.3207  -9.3074  -9.3047  -9.2941  -9.2850
    -9.2683  -9.2634  -9.2454  -9.2377  -9.2306  -9.2085  -9.1988  -9.1608
    -9.1587  -9.1361  -9.1338  -9.1158  -9.1071  -9.1028  -9.1005  -9.0816
    -9.0753  -9.0489  -9.0327  -9.0178  -9.0074  -9.0014  -8.9933  -8.9897
    -8.9843  -8.9791  -8.9676  -8.9673  -8.9538  -8.9485  -8.9440  -8.9305
    -8.9182  -8.9080  -8.8651  -8.8620  -8.8304  -8.7421  -8.6906  -8.6709
    -8.6613  -8.6298  -8.6229  -8.5582  -8.5371  -8.5290  -8.4886  -8.4794
    -8.4587  -8.4368  -8.4191  -8.4076  -8.4028  -8.3724  -8.3715  -8.3300
    -8.3223  -8.3097  -8.3003  -8.2902  -8.2881  -8.2731  -8.2713  -8.2429
    -8.2317  -8.2260  -8.2153  -8.2122  -8.2054  -8.1832  -8.1812  -8.1751
    -8.1743  -8.1595  -8.1299  -8.1263  -8.0950  -8.0820  -8.0753  -8.0631
    -8.0608  -8.0544  -8.0530  -8.0456  -8.0344  -8.0289  -8.0268  -8.0196
    -8.0013  -8.0007  -7.9812  -7.9775  -7.9704  -7.9631  -7.9598  -7.9516
    -7.9489  -7.9411  -7.9351  -7.9299  -7.9235  -7.9121  -7.8961  -7.8845
    -7.8764  -7.8724  -7.8672  -7.8605  -7.8577  -7.8481  -7.8350  -7.8264
    -7.8134  -7.8053  -7.8030  -7.8016  -7.7951  -7.7893  -7.7795  -7.7732
    -7.7608  -7.7543  -7.7429  -7.7413  -7.7349  -7.7282  -7.7272  -7.7219
    -7.7189  -7.7167  -7.7141  -7.7133  -7.6998  -7.6988  -7.6860  -7.6858
    -7.6795  -7.6544  -7.6538  -7.6455  -7.6431  -7.6392  -7.6347  -7.6315
    -7.6159  -7.6135  -7.6043  -7.6028  -7.5900  -7.5829  -7.5658  -7.5633
    -7.5535  -7.5345  -7.5328  -7.5245  -7.4836  -7.4824  -7.4630  -7.4574
    -7.4384  -7.4266  -7.4227  -7.4174  -7.4097  -7.3529  -7.3314  -7.3163
    -7.2940  -7.2927  -7.2814  -7.2629  -7.1402  -7.1237  -7.1177  -7.0582
    -7.0507  -7.0440  -7.0194  -6.9580  -6.9495  -6.9340  -6.9156  -6.8974
    -6.8903  -6.8889  -6.8727  -6.8587  -6.8509  -6.8462  -6.8257  -6.7786
    -6.7647  -6.7050  -6.7008  -6.6724  -6.6074  -6.5641  -6.5530  -6.4652
    -6.4582  -6.3473  -6.2334  -6.0775  -5.9769  -5.9221  -5.8943  -5.8852
    -5.8601  -5.8056  -5.7590  -5.7566  -5.7030  -5.6745  -5.5569  -5.5295
    -5.3515  -5.2162  -5.1180

          k = 0.2500-0.6187 0.0000 (128424 PWs)   bands (ev):

   -94.9497 -94.9417 -94.9113 -94.9088 -94.9061 -94.8934 -94.8909 -94.8845
   -94.8812 -94.8793 -94.8788 -94.8738 -94.8669 -94.8668 -94.8645 -94.8628
   -94.8614 -94.8595 -94.8577 -94.8570 -94.8543 -94.8527 -94.8498 -94.8490
   -94.8475 -94.8404 -94.8381 -94.8325 -94.8208 -94.8138 -94.8044 -94.8019
   -94.7865 -94.7665 -94.7626 -94.7579 -94.7506 -94.7465 -94.7403 -94.7373
   -94.7369 -94.7350 -94.7335 -94.7325 -94.7304 -94.7284 -94.7271 -94.7262
   -94.7258 -94.7247 -94.7223 -94.7210 -94.7190 -94.7180 -94.7162 -94.7126
   -94.7122 -94.7085 -94.7074 -94.7040 -94.6956 -94.6925 -94.6802 -94.6758
   -61.1343 -61.1261 -61.1061 -61.0991 -61.0931 -61.0861 -61.0805 -61.0793
   -61.0744 -61.0715 -61.0694 -61.0671 -61.0606 -61.0601 -61.0588 -61.0579
   -61.0519 -61.0507 -61.0495 -61.0482 -61.0476 -61.0461 -61.0452 -61.0405
   -61.0386 -61.0329 -61.0296 -61.0245 -61.0224 -61.0196 -61.0177 -61.0173
   -61.0108 -61.0032 -60.9970 -60.9947 -60.9933 -60.9910 -60.9896 -60.9880
   -60.9843 -60.9816 -60.9763 -60.9685 -60.9663 -60.9643 -60.9553 -60.9541
   -60.9513 -60.9493 -60.9484 -60.9450 -60.9424 -60.9400 -60.9345 -60.9300
   -60.9281 -60.9256 -60.9188 -60.9145 -60.9112 -60.9103 -60.9056 -60.9038
   -60.9001 -60.8991 -60.8982 -60.8929 -60.8903 -60.8881 -60.8852 -60.8833
   -60.8825 -60.8809 -60.8792 -60.8780 -60.8767 -60.8755 -60.8745 -60.8687
   -60.8667 -60.8643 -60.8630 -60.8598 -60.8550 -60.8535 -60.8508 -60.8491
   -60.8448 -60.8441 -60.8421 -60.8391 -60.8344 -60.8289 -60.8247 -60.8233
   -60.8204 -60.8181 -60.8147 -60.8135 -60.8081 -60.8063 -60.8043 -60.8031
   -60.7981 -60.7958 -60.7940 -60.7933 -60.7897 -60.7884 -60.7877 -60.7851
   -60.7850 -60.7822 -60.7798 -60.7789 -60.7770 -60.7750 -60.7716 -60.7703
   -60.7689 -60.7667 -60.7640 -60.7613 -60.7599 -60.7590 -60.7574 -60.7546
   -60.7537 -60.7499 -60.7485 -60.7445 -60.7418 -60.7397 -60.7344 -60.7323
   -60.7317 -60.7308 -60.7253 -60.7241 -60.7230 -60.7211 -60.7198 -60.7179
   -60.7172 -60.7156 -60.7132 -60.7092 -60.7060 -60.7041 -60.7036 -60.6994
   -60.6960 -60.6940 -60.6927 -60.6895 -60.6873 -60.6799 -60.6775 -60.6769
   -60.6734 -60.6715 -60.6685 -60.6667 -60.6654 -60.6640 -60.6629 -60.6608
   -60.6588 -60.6574 -60.6564 -60.6539 -60.6537 -60.6526 -60.6516 -60.6510
   -60.6500 -60.6488 -60.6472 -60.6450 -60.6441 -60.6430 -60.6425 -60.6420
   -60.6401 -60.6383 -60.6373 -60.6318 -60.6308 -60.6303 -60.6282 -60.6224
   -22.9250 -14.7103 -14.2427 -13.9612 -13.6730 -13.3620 -12.9036 -12.8558
   -12.6079 -12.4337 -12.3414 -12.1848 -12.0919 -11.7554 -11.6800 -11.6237
   -11.5965 -11.5647 -11.5055 -11.5027 -11.4659 -11.3711 -11.3014 -11.2972
   -11.2744 -11.2627 -11.2296 -11.1800 -11.1636 -11.1432 -11.1282 -11.1091
   -11.0899 -11.0862 -11.0595 -11.0217 -10.9920 -10.9780 -10.9684 -10.9577
   -10.9389 -10.9190 -10.8820 -10.8681 -10.8547 -10.8348 -10.7751 -10.7500
   -10.7434 -10.7212 -10.6778 -10.6626 -10.6374 -10.6052 -10.5905 -10.5705
   -10.5365 -10.5177 -10.5031 -10.4930 -10.4799 -10.4583 -10.4414 -10.4302
   -10.3995 -10.3833 -10.3650 -10.3476 -10.3273 -10.3201 -10.2820 -10.2389
   -10.2203 -10.2127 -10.2049 -10.1303 -10.0919 -10.0710 -10.0558 -10.0418
   -10.0372 -10.0277 -10.0152 -10.0087 -10.0019  -9.9879  -9.9515  -9.9310
    -9.9129  -9.8955  -9.8886  -9.8806  -9.8717  -9.8528  -9.8465  -9.8342
    -9.8253  -9.8175  -9.8127  -9.8052  -9.7989  -9.7902  -9.7848  -9.7745
    -9.7657  -9.7457  -9.7385  -9.7282  -9.7091  -9.6961  -9.6917  -9.6808
    -9.6735  -9.6720  -9.6536  -9.6315  -9.6248  -9.6197  -9.5963  -9.5885
    -9.5744  -9.5704  -9.5602  -9.5543  -9.5446  -9.5329  -9.5327  -9.5160
    -9.5085  -9.5039  -9.4979  -9.4897  -9.4803  -9.4724  -9.4508  -9.4358
    -9.4205  -9.4089  -9.3847  -9.3712  -9.3356  -9.2916  -9.2769  -9.2656
    -9.2507  -9.2484  -9.2393  -9.2345  -9.2162  -9.2089  -9.2032  -9.1998
    -9.1844  -9.1728  -9.1663  -9.1616  -9.1590  -9.1452  -9.1389  -9.1233
    -9.1014  -9.0948  -9.0916  -9.0865  -9.0473  -9.0353  -9.0012  -8.9752
    -8.9609  -8.9384  -8.9322  -8.8971  -8.8707  -8.8638  -8.8509  -8.8092
    -8.7932  -8.7652  -8.7400  -8.7172  -8.6817  -8.6661  -8.6604  -8.6197
    -8.6079  -8.5832  -8.5621  -8.5341  -8.5153  -8.5050  -8.4999  -8.4888
    -8.4651  -8.4520  -8.4496  -8.4421  -8.4330  -8.4154  -8.3830  -8.3663
    -8.3597  -8.3503  -8.3355  -8.3161  -8.3024  -8.2916  -8.2761  -8.2607
    -8.2540  -8.2349  -8.2274  -8.2180  -8.2009  -8.1951  -8.1918  -8.1855
    -8.1715  -8.1518  -8.1436  -8.1366  -8.1214  -8.1003  -8.0918  -8.0879
    -8.0816  -8.0767  -8.0723  -8.0586  -8.0507  -8.0461  -8.0411  -8.0341
    -8.0243  -8.0214  -8.0059  -7.9934  -7.9777  -7.9740  -7.9681  -7.9585
    -7.9415  -7.9387  -7.9271  -7.9205  -7.9116  -7.9052  -7.8953  -7.8851
    -7.8798  -7.8666  -7.8629  -7.8553  -7.8463  -7.8398  -7.8366  -7.8321
    -7.8208  -7.8086  -7.7963  -7.7908  -7.7837  -7.7808  -7.7700  -7.7639
    -7.7572  -7.7523  -7.7491  -7.7425  -7.7382  -7.7293  -7.7241  -7.7084
    -7.6980  -7.6960  -7.6896  -7.6846  -7.6816  -7.6726  -7.6681  -7.6591
    -7.6547  -7.6510  -7.6430  -7.6408  -7.6324  -7.6302  -7.6197  -7.6108
    -7.5961  -7.5795  -7.5704  -7.5600  -7.5431  -7.5348  -7.5279  -7.5251
    -7.5119  -7.4865  -7.4673  -7.4377  -7.4335  -7.4186  -7.4090  -7.3743
    -7.3609  -7.3371  -7.3229  -7.2900  -7.2807  -7.2646  -7.2373  -7.2223
    -7.2184  -7.2117  -7.2025  -7.1649  -7.1470  -7.1271  -7.1218  -7.1036
    -7.0932  -7.0644  -7.0529  -7.0200  -7.0075  -7.0045  -6.9945  -6.9830
    -6.9671  -6.9417  -6.9219  -6.9121  -6.9064  -6.8952  -6.8865  -6.8595
    -6.8432  -6.8277  -6.8068  -6.7987  -6.7759  -6.7177  -6.6813  -6.6696
    -6.6145  -6.5084  -6.3966  -6.2529  -6.1857  -6.1079  -6.0433  -5.9531
    -5.9152  -5.7774  -5.7547  -5.6705  -5.6168  -5.4463  -5.3932  -5.2093
    -5.1527  -5.1063  -5.0622

          k = 0.2500-0.3536 0.0000 (128397 PWs)   bands (ev):

   -94.9497 -94.9417 -94.9114 -94.9091 -94.9057 -94.8955 -94.8880 -94.8866
   -94.8811 -94.8792 -94.8736 -94.8722 -94.8703 -94.8695 -94.8670 -94.8627
   -94.8617 -94.8566 -94.8560 -94.8556 -94.8547 -94.8543 -94.8512 -94.8491
   -94.8458 -94.8425 -94.8367 -94.8325 -94.8209 -94.8137 -94.8044 -94.8019
   -94.7867 -94.7675 -94.7616 -94.7579 -94.7471 -94.7451 -94.7426 -94.7397
   -94.7389 -94.7362 -94.7340 -94.7321 -94.7311 -94.7277 -94.7265 -94.7257
   -94.7254 -94.7238 -94.7227 -94.7202 -94.7187 -94.7162 -94.7149 -94.7137
   -94.7117 -94.7103 -94.7077 -94.7035 -94.6960 -94.6932 -94.6799 -94.6756
   -61.1349 -61.1259 -61.1065 -61.0988 -61.0929 -61.0861 -61.0823 -61.0802
   -61.0737 -61.0714 -61.0696 -61.0679 -61.0630 -61.0587 -61.0575 -61.0531
   -61.0526 -61.0521 -61.0507 -61.0505 -61.0491 -61.0477 -61.0409 -61.0406
   -61.0391 -61.0327 -61.0296 -61.0267 -61.0247 -61.0224 -61.0178 -61.0174
   -61.0079 -61.0057 -61.0044 -61.0033 -60.9970 -60.9943 -60.9913 -60.9898
   -60.9879 -60.9864 -60.9843 -60.9737 -60.9727 -60.9687 -60.9536 -60.9524
   -60.9449 -60.9437 -60.9372 -60.9335 -60.9314 -60.9267 -60.9228 -60.9211
   -60.9199 -60.9182 -60.9149 -60.9127 -60.9114 -60.9087 -60.9075 -60.9039
   -60.9011 -60.9007 -60.8984 -60.8977 -60.8974 -60.8933 -60.8917 -60.8874
   -60.8858 -60.8829 -60.8801 -60.8743 -60.8727 -60.8697 -60.8644 -60.8625
   -60.8611 -60.8577 -60.8571 -60.8551 -60.8526 -60.8503 -60.8468 -60.8459
   -60.8415 -60.8390 -60.8361 -60.8343 -60.8306 -60.8286 -60.8255 -60.8230
   -60.8205 -60.8199 -60.8178 -60.8167 -60.8156 -60.8111 -60.8083 -60.8027
   -60.8019 -60.7978 -60.7935 -60.7927 -60.7904 -60.7882 -60.7877 -60.7865
   -60.7860 -60.7849 -60.7841 -60.7837 -60.7826 -60.7797 -60.7757 -60.7726
   -60.7705 -60.7695 -60.7687 -60.7642 -60.7626 -60.7614 -60.7594 -60.7584
   -60.7549 -60.7537 -60.7451 -60.7442 -60.7417 -60.7389 -60.7377 -60.7363
   -60.7290 -60.7284 -60.7257 -60.7256 -60.7237 -60.7222 -60.7211 -60.7206
   -60.7173 -60.7151 -60.7114 -60.7101 -60.7069 -60.7049 -60.7037 -60.7035
   -60.6994 -60.6984 -60.6966 -60.6932 -60.6879 -60.6853 -60.6831 -60.6810
   -60.6784 -60.6775 -60.6719 -60.6700 -60.6691 -60.6682 -60.6655 -60.6632
   -60.6590 -60.6580 -60.6560 -60.6555 -60.6525 -60.6509 -60.6507 -60.6481
   -60.6469 -60.6448 -60.6439 -60.6419 -60.6397 -60.6369 -60.6351 -60.6343
   -60.6339 -60.6314 -60.6301 -60.6296 -60.6291 -60.6287 -60.6250 -60.6215
   -22.9250 -14.7211 -14.3362 -13.8239 -13.7684 -13.3664 -12.8389 -12.6792
   -12.4408 -12.3419 -12.2966 -12.2031 -12.1416 -12.0813 -11.9333 -11.8983
   -11.6340 -11.4322 -11.4165 -11.4030 -11.3958 -11.3811 -11.3674 -11.3288
   -11.3227 -11.2459 -11.2426 -11.2392 -11.2065 -11.1868 -11.1516 -11.1347
   -11.1203 -11.0624 -10.9911 -10.9702 -10.9598 -10.9462 -10.9231 -10.9178
   -10.8956 -10.8889 -10.8815 -10.8668 -10.8317 -10.8068 -10.7721 -10.7427
   -10.7302 -10.7137 -10.6949 -10.6794 -10.6496 -10.6397 -10.5709 -10.5587
   -10.5109 -10.5045 -10.5034 -10.4784 -10.4657 -10.4592 -10.4558 -10.4454
   -10.3948 -10.3931 -10.3644 -10.3415 -10.3304 -10.3086 -10.2534 -10.2423
   -10.1616 -10.1494 -10.1290 -10.0985 -10.0849 -10.0475 -10.0445 -10.0304
   -10.0299  -9.9965  -9.9832  -9.9745  -9.9727  -9.9684  -9.9464  -9.9430
    -9.9391  -9.9268  -9.9223  -9.9183  -9.9124  -9.9097  -9.8919  -9.8723
    -9.8587  -9.8496  -9.8278  -9.8244  -9.8195  -9.8057  -9.8013  -9.7894
    -9.7744  -9.7669  -9.7654  -9.7552  -9.7449  -9.7349  -9.6944  -9.6634
    -9.6560  -9.6482  -9.6438  -9.6380  -9.6288  -9.6231  -9.6217  -9.6106
    -9.5990  -9.5961  -9.5839  -9.5512  -9.5321  -9.5192  -9.5057  -9.5010
    -9.4714  -9.4511  -9.4377  -9.3969  -9.3710  -9.3684  -9.3630  -9.3304
    -9.3280  -9.3143  -9.3064  -9.2939  -9.2929  -9.2896  -9.2822  -9.2792
    -9.2740  -9.2714  -9.2664  -9.2640  -9.2587  -9.2564  -9.2413  -9.2286
    -9.2275  -9.2195  -9.2098  -9.1911  -9.1703  -9.1608  -9.1434  -9.1125
[...]
    -5.4847  -5.4570  -5.4353  -5.4149  -5.3924  -5.3814  -5.3754  -5.3574
    -5.3449  -5.3276  -5.3113  -5.3012  -5.2905  -5.2795  -5.2664  -5.2482
    -5.2408  -5.2336  -5.2233  -5.2095  -5.1995  -5.1826  -5.1782  -5.1697
    -5.1544  -5.1457  -5.1292  -5.1281  -5.1052  -5.1045  -5.0949  -5.0883
    -5.0661  -5.0612  -5.0494  -5.0433  -5.0252  -5.0213  -5.0189  -5.0169
    -5.0072  -5.0003  -4.9853  -4.9807  -4.9610  -4.9549  -4.9530  -4.9484
    -4.9317  -4.9218  -4.9139  -4.9090  -4.8993  -4.8867  -4.8796  -4.8708
    -4.8508  -4.8368  -4.8240  -4.8196  -4.8090  -4.8039  -4.7986  -4.7952
    -4.7873  -4.7814  -4.7758  -4.7678  -4.7587  -4.7563  -4.7415  -4.7304
    -4.7236  -4.7170  -4.7062  -4.6930  -4.6860  -4.6766  -4.6723  -4.6665
    -4.6588  -4.6556  -4.6517  -4.6488  -4.6354  -4.6265  -4.6207  -4.6177
    -4.6066  -4.5975  -4.5859  -4.5829  -4.5776  -4.5631  -4.5544  -4.5453
    -4.5264  -4.5039  -4.4929  -4.4883  -4.4784  -4.4628  -4.4568  -4.4501
    -4.4448  -4.4366  -4.4281  -4.4171  -4.4099  -4.3864  -4.3656  -4.3595
    -4.3489  -4.3353  -4.3210  -4.3108  -4.2873  -4.2520  -4.2439  -4.1891
    -4.1845  -4.1530  -4.1007  -4.0536  -4.0200  -3.9474  -3.8816  -3.8592
    -3.8346  -3.8057  -3.6747

          k =-0.5000-0.3536 0.0000 (128560 PWs)   bands (ev):

   -92.3525 -92.3509 -92.0043 -92.0034 -91.9547 -91.9505 -91.9324 -91.9274
   -91.9099 -91.9039 -91.8875 -91.8843 -91.8770 -91.8757 -91.8755 -91.8722
   -91.8655 -91.8633 -91.8612 -91.8571 -91.8547 -91.8531 -91.8529 -91.8502
   -91.8469 -91.8438 -91.8421 -91.8382 -91.8376 -91.8359 -91.8358 -91.8342
   -91.8340 -91.8319 -91.8318 -91.8158 -91.8143 -91.8123 -91.8117 -91.8063
   -91.8044 -91.7943 -91.7937 -91.7928 -91.7925 -91.7924 -91.7910 -91.7904
   -91.7871 -91.7795 -91.7744 -91.7706 -91.7705 -91.7703 -91.7699 -91.7691
   -91.7688 -91.7681 -91.7679 -91.7662 -91.7483 -91.7479 -91.7472 -91.7449
   -58.7890 -58.7736 -58.4455 -58.4404 -58.2924 -58.2753 -58.2364 -58.2355
   -58.2244 -58.1999 -58.1725 -58.1662 -58.1659 -58.1600 -58.1582 -58.1558
   -58.1545 -58.1523 -58.1479 -58.1451 -58.1417 -58.1414 -58.1404 -58.1375
   -58.1355 -58.1313 -58.1295 -58.1259 -58.1246 -58.1195 -58.1151 -58.1143
   -58.1120 -58.1098 -58.1091 -58.1052 -58.1001 -58.0972 -58.0944 -58.0940
   -58.0925 -58.0878 -58.0866 -58.0815 -58.0796 -58.0771 -58.0750 -58.0739
   -58.0674 -58.0608 -58.0601 -58.0542 -58.0527 -58.0521 -58.0492 -58.0463
   -58.0462 -58.0461 -58.0451 -58.0451 -58.0393 -58.0376 -58.0369 -58.0358
   -58.0352 -58.0342 -58.0291 -58.0262 -58.0226 -58.0194 -58.0148 -58.0127
   -58.0071 -58.0002 -57.9976 -57.9956 -57.9898 -57.9868 -57.9804 -57.9793
   -57.9772 -57.9770 -57.9686 -57.9671 -57.9637 -57.9582 -57.9562 -57.9560
   -57.9505 -57.9493 -57.9480 -57.9448 -57.9442 -57.9391 -57.9372 -57.9363
   -57.9360 -57.9336 -57.9297 -57.9293 -57.9280 -57.9265 -57.9186 -57.9176
   -57.9119 -57.9103 -57.9093 -57.9075 -57.9006 -57.9005 -57.8971 -57.8959
   -57.8950 -57.8939 -57.8929 -57.8916 -57.8907 -57.8884 -57.8869 -57.8829
   -57.8818 -57.8809 -57.8791 -57.8759 -57.8718 -57.8707 -57.8700 -57.8688
   -57.8641 -57.8633 -57.8627 -57.8585 -57.8571 -57.8565 -57.8543 -57.8490
   -57.8486 -57.8477 -57.8448 -57.8446 -57.8419 -57.8408 -57.8388 -57.8387
   -57.8378 -57.8367 -57.8337 -57.8325 -57.8316 -57.8312 -57.8309 -57.8296
   -57.8277 -57.8243 -57.8218 -57.8205 -57.8171 -57.8129 -57.8128 -57.8120
   -57.8106 -57.8083 -57.8078 -57.8065 -57.8059 -57.8053 -57.8051 -57.8033
   -57.8023 -57.8022 -57.8016 -57.8009 -57.7996 -57.7977 -57.7965 -57.7953
   -57.7923 -57.7909 -57.7907 -57.7894 -57.7890 -57.7837 -57.7831 -57.7830
   -57.7818 -57.7799 -57.7788 -57.7787 -57.7767 -57.7750 -57.7728 -57.7723
   -22.9839 -14.5009 -13.8648 -13.8301 -13.3171 -13.2926 -12.8903 -12.5967
   -12.1746 -12.0894 -11.7777 -11.6602 -11.6293 -11.2640 -11.2184 -11.1845
   -11.1466 -10.7945 -10.5952 -10.4236 -10.4143 -10.4020 -10.3826 -10.3700
   -10.3328 -10.2994 -10.2795 -10.2747 -10.2368 -10.2291 -10.0078  -9.8779
    -9.8540  -9.8456  -9.8447  -9.8042  -9.7476  -9.6523  -9.5571  -9.3958
    -9.3754  -9.3720  -9.3413  -9.3382  -9.3092  -9.2890  -9.2472  -9.2348
    -9.2305  -9.1730  -9.1312  -9.1034  -9.0963  -9.0742  -9.0520  -9.0187
    -8.9797  -8.8368  -8.8293  -8.8080  -8.7968  -8.7852  -8.7471  -8.5754
    -8.5439  -8.5208  -8.5081  -8.4908  -8.4786  -8.3968  -8.3775  -8.3569
    -8.3310  -8.3132  -8.2927  -8.2821  -8.2801  -8.2703  -8.2542  -8.2540
    -8.2354  -8.2219  -8.2181  -8.1783  -8.1739  -8.1650  -8.1632  -8.1521
    -8.1443  -8.1263  -8.1128  -8.0666  -8.0392  -8.0221  -7.9445  -7.9365
    -7.9275  -7.8690  -7.8237  -7.8085  -7.8043  -7.8026  -7.7946  -7.7848
    -7.7723  -7.7661  -7.7596  -7.7590  -7.7339  -7.7323  -7.7253  -7.7221
    -7.7160  -7.7069  -7.6952  -7.6874  -7.6857  -7.6811  -7.6690  -7.6636
    -7.6608  -7.6555  -7.6487  -7.6406  -7.6289  -7.6279  -7.6191  -7.6069
    -7.5927  -7.5741  -7.5729  -7.5677  -7.5675  -7.5544  -7.5479  -7.5394
    -7.5387  -7.5377  -7.5076  -7.5048  -7.4998  -7.4492  -7.4312  -7.3767
    -7.3347  -7.3062  -7.2887  -7.2757  -7.2744  -7.2722  -7.2558  -7.2484
    -7.2393  -7.2246  -7.1664  -7.1631  -7.1263  -7.1163  -7.1140  -7.1034
    -7.0911  -7.0812  -7.0727  -7.0434  -7.0322  -7.0302  -7.0057  -6.9872
    -6.8924  -6.8641  -6.8423  -6.8253  -6.8041  -6.7936  -6.7809  -6.7780
    -6.7713  -6.7602  -6.7480  -6.7326  -6.7188  -6.7118  -6.6819  -6.6658
    -6.6604  -6.6558  -6.6556  -6.6207  -6.5988  -6.4370  -6.3870  -6.3739
    -6.3634  -6.2591  -6.2576  -6.2262  -6.0973  -6.0510  -6.0031  -5.9892
    -5.9670  -5.9297  -5.9149  -5.9053  -5.8970  -5.8735  -5.8655  -5.8370
    -5.8250  -5.8143  -5.8059  -5.7622  -5.7384  -5.7106  -5.6995  -5.6899
    -5.6849  -5.6735  -5.6613  -5.6245  -5.6120  -5.6069  -5.5795  -5.5301
    -5.5267  -5.5126  -5.5055  -5.5038  -5.4990  -5.4981  -5.4963  -5.4894
    -5.4881  -5.4718  -5.4664  -5.4628  -5.4258  -5.4099  -5.4060  -5.3905
    -5.3412  -5.3393  -5.3206  -5.3092  -5.3069  -5.3034  -5.2769  -5.2509
    -5.2042  -5.1882  -5.1831  -5.1806  -5.1393  -5.1355  -5.1026  -5.0928
    -5.0791  -5.0663  -5.0639  -5.0609  -5.0595  -5.0467  -5.0342  -5.0301
    -5.0138  -5.0080  -5.0034  -4.9960  -4.9947  -4.9837  -4.9814  -4.9766
    -4.9680  -4.9556  -4.9412  -4.9384  -4.9347  -4.9275  -4.9250  -4.9184
    -4.9103  -4.9012  -4.8960  -4.8893  -4.8873  -4.8852  -4.8789  -4.8779
    -4.8754  -4.8619  -4.8501  -4.8486  -4.8374  -4.8222  -4.8195  -4.8152
    -4.8126  -4.8051  -4.7976  -4.7969  -4.7917  -4.7693  -4.7632  -4.7575
    -4.7230  -4.7054  -4.6996  -4.6916  -4.6821  -4.6722  -4.6716  -4.6602
    -4.6567  -4.6563  -4.6372  -4.6255  -4.6247  -4.6180  -4.6177  -4.6107
    -4.6041  -4.6018  -4.5970  -4.5925  -4.5879  -4.5840  -4.5800  -4.5646
    -4.5586  -4.5505  -4.5474  -4.5430  -4.5403  -4.5334  -4.5210  -4.5199
    -4.5172  -4.5107  -4.5016  -4.4863  -4.4564  -4.4352  -4.4348  -4.4176
    -4.4164  -4.3928  -4.3430  -4.3271  -4.2227  -4.2034  -4.2012  -4.1883
    -4.0730  -4.0111  -3.9985  -3.9849  -3.9782  -3.9679  -3.9378  -3.9171
    -3.9167  -3.9029  -3.8886

     the Fermi energy is    -6.7362 ev

!    total energy              =  -21094.98569696 Ry
     Harris-Foulkes estimate   =  -21094.98569780 Ry
     estimated scf accuracy    <          4.9E-11 Ry

     The total energy is the sum of the following terms:

     one-electron contribution = -745073.57037398 Ry
     hartree contribution      =  372276.86863789 Ry
     xc contribution           =   -2234.98870561 Ry
     ewald contribution        =  358811.55006263 Ry
     Dispersion Correction     =      -1.39941478 Ry
     one-center paw contrib.   =   -4873.44770817 Ry
     smearing contrib. (-TS)   =       0.00180508 Ry

     total magnetization       =   160.54 Bohr mag/cell
     absolute magnetization    =   167.38 Bohr mag/cell

     convergence has been achieved in  17 iterations

     negative rho (up, down):  2.469E-02 1.985E-02

     Forces acting on atoms (cartesian axes, Ry/au):

     atom    1 type  1   force =     0.00064844   -0.00030040    0.00883592
     atom    2 type  1   force =     0.00143530   -0.00216152   -0.01346871
     atom    3 type  1   force =    -0.00052244   -0.00031527    0.00893430
     atom    4 type  1   force =     0.00077608    0.00087076   -0.00818909
     atom    5 type  1   force =    -0.00001422    0.00001255    0.00002300
     atom    6 type  1   force =    -0.00007008    0.00003397   -0.00003167
     atom    7 type  1   force =    -0.00000157   -0.00000080   -0.00004953
     atom    8 type  1   force =    -0.00003232   -0.00001627    0.00005901
     atom    9 type  1   force =     0.00000995    0.00000240    0.00953892
     atom   10 type  1   force =    -0.00017905   -0.00012258    0.00882463
     atom   11 type  1   force =    -0.00022248    0.00144373   -0.00729519
     atom   12 type  1   force =     0.00086532    0.00069107   -0.01151011
     atom   13 type  1   force =    -0.00001086   -0.00001563    0.00007826
     atom   14 type  1   force =    -0.00002515   -0.00002884   -0.00001585
     atom   15 type  1   force =    -0.00003599   -0.00001532    0.00008426
     atom   16 type  1   force =     0.00006605    0.00001824   -0.00009999
     atom   17 type  1   force =    -0.00045263   -0.00039763    0.00890431
     atom   18 type  1   force =     0.00107606    0.00051000   -0.00816212
     atom   19 type  1   force =     0.00050840    0.00034836    0.00905216
     atom   20 type  1   force =     0.00038414   -0.00078801   -0.01092116
     atom   21 type  1   force =     0.00001042   -0.00000679   -0.00004720
     atom   22 type  1   force =     0.00000117   -0.00004137    0.00005538
     atom   23 type  1   force =     0.00000306   -0.00001522   -0.00003091
     atom   24 type  1   force =     0.00004969   -0.00007905   -0.00005214
     atom   25 type  1   force =    -0.00002464   -0.00005258    0.00698319
     atom   26 type  1   force =    -0.00060959    0.00075956    0.00988635
     atom   27 type  1   force =    -0.00009863   -0.00009455   -0.00624429
     atom   28 type  1   force =    -0.00112927    0.00071877   -0.00671616
     atom   29 type  1   force =     0.00001306    0.00000770   -0.00012877
     atom   30 type  1   force =    -0.00000197   -0.00000002   -0.00001053
     atom   31 type  1   force =    -0.00010523   -0.00007841    0.00001697
     atom   32 type  1   force =     0.00002559    0.00002792    0.00004715
     atom   33 type  1   force =    -0.00047011    0.00027798    0.00865625
     atom   34 type  1   force =    -0.00060255   -0.00075183   -0.00828757
     atom   35 type  1   force =    -0.00005183    0.00068873    0.00883444
     atom   36 type  1   force =    -0.00166460    0.00221079   -0.01342763
     atom   37 type  1   force =     0.00000665   -0.00000081    0.00004760
     atom   38 type  1   force =     0.00000357   -0.00004314    0.00008276
     atom   39 type  1   force =     0.00002135   -0.00002920    0.00002135
     atom   40 type  1   force =     0.00001728   -0.00009744   -0.00002418
     atom   41 type  1   force =     0.00011197    0.00004532    0.00803287
     atom   42 type  1   force =     0.00052416   -0.00081357    0.00996152
     atom   43 type  1   force =    -0.00122908   -0.00075952   -0.01105159
     atom   44 type  1   force =     0.00027285   -0.00127140   -0.00668850
     atom   45 type  1   force =    -0.00000121   -0.00001393   -0.00001047
     atom   46 type  1   force =     0.00000662   -0.00001549   -0.00001942
     atom   47 type  1   force =     0.00004480    0.00001383    0.00004507
     atom   48 type  1   force =     0.00004268   -0.00001763    0.00004331
     atom   49 type  1   force =     0.00051571    0.00033308    0.00911552
     atom   50 type  1   force =    -0.00056897    0.00055049   -0.01088698
     atom   51 type  1   force =     0.00012117   -0.00054357    0.00867253
     atom   52 type  1   force =    -0.00093236   -0.00024403   -0.00828281
     atom   53 type  1   force =    -0.00000635    0.00000111   -0.00003230
     atom   54 type  1   force =    -0.00005268    0.00006669   -0.00004852
     atom   55 type  1   force =     0.00001693   -0.00000141    0.00004730
     atom   56 type  1   force =    -0.00002068    0.00000574    0.00008089
     atom   57 type  1   force =    -0.00004306    0.00000210    0.00953280
     atom   58 type  1   force =    -0.00005131   -0.00001690    0.00900129
     atom   59 type  1   force =     0.00125018   -0.00064714   -0.00723950
     atom   60 type  1   force =     0.00026743    0.00017216   -0.00621156
     atom   61 type  1   force =     0.00000302   -0.00001698    0.00007773
     atom   62 type  1   force =     0.00002061    0.00000385    0.00000668
     atom   63 type  1   force =    -0.00000605   -0.00004425    0.00008059
     atom   64 type  1   force =     0.00009935    0.00006130   -0.00000287
     atom   65 type  2   force =    -0.00000813   -0.00001581   -0.00009831
     atom   66 type  3   force =    -0.00000151   -0.00001638    0.00030047
     atom   67 type  3   force =     0.00002755    0.00001252    0.00000393

     Total force =     0.000536     Total SCF correction =     0.000018

     bfgs converged in   6 scf cycles and   5 bfgs steps
     (criteria: energy <  7.3E-07 Ry, force <  3.9E-04 Ry/Bohr)

     End of BFGS Geometry Optimization

     Final energy   =  -21094.9856969586 Ry
Begin final coordinates

ATOMIC_POSITIONS (angstrom)
Fe       1.654912953   1.170200133   0.000000000    0   0   0
Fe       0.000000000   0.000000000   2.026984232    0   0   0
Fe       4.964738858   3.510600399   0.000000000    0   0   0
Fe       3.309825906   2.340400266   2.026984232    0   0   0
Fe       1.676423441   1.169823445   4.024173452
Fe       3.320734805   9.355968160   6.001585510
Fe       4.976376455   3.524778554   4.042600490
Fe       3.369643760   2.333788631   6.009558196
Fe       2.482363858   3.510600399   0.000000000    0   0   0
Fe       4.137287953   1.170200133   0.000000000    0   0   0
Fe       0.827450906   2.340400266   2.026984232    0   0   0
Fe       2.482375000   0.000000000   2.026984232    0   0   0
Fe       2.482951271   3.509956537   4.041038625
Fe       4.161576142   1.187837356   4.033418783
Fe       0.863557504   2.321465608   5.999303945
Fe       2.496082450   0.010359964   6.010568942
Fe       6.619662953   1.170200133   0.000000000    0   0   0
Fe       4.964750000   0.000000000   2.026984232    0   0   0
Fe       9.929488858   3.510600399   0.000000000    0   0   0
Fe       8.274575906   2.340400266   2.026984232    0   0   0
Fe       6.636521692   1.176806932   4.042319942
Fe       4.977946306   0.059222505   6.009802758
Fe       9.917399483   3.495596118   4.040271542
Fe       8.364438234   2.213594311   5.984960287
Fe       7.447113858   3.510600399   0.000000000    0   0   0
Fe       9.102037953   1.170200133   0.000000000    0   0   0
Fe       5.792200906   2.340400266   2.026984232    0   0   0
Fe       7.447125000   0.000000000   2.026984232    0   0   0
Fe       7.446661140   3.510271572   4.000956424
Fe       9.120561431   1.142220637   4.012876760
Fe       5.887758762   2.408150820   6.049814854
Fe      10.770263006   9.323475854   5.999459258
Fe       3.309814764   5.851000664   0.000000000    0   0   0
Fe       1.654901811   4.680800531   2.026984232    0   0   0
Fe       6.619640670   8.191400930   0.000000000    0   0   0
Fe       4.964727717   7.021200797   2.026984232    0   0   0
Fe       3.289121121   5.851648860   4.027445487
Fe      11.525785072   4.679731205   6.005822438
Fe       6.626356752   8.212163618   4.024378007
Fe       4.962899446   7.034151740   6.001159520
Fe       4.137265670   8.191400930   0.000000000    0   0   0
Fe       5.792189764   5.851000664   0.000000000    0   0   0
Fe      12.411852717   7.021200797   2.026984232    0   0   0
Fe       4.137276811   4.680800531   2.026984232    0   0   0
Fe       4.136141752   8.191016839   4.015424090
Fe       5.771951760   5.877975758   4.012935757
Fe      12.386474124   7.003612651   6.013152005
Fe       4.105485577   4.706942885   6.000158492
Fe       8.274564764   5.851000664   0.000000000    0   0   0
Fe       6.619651811   4.680800531   2.026984232    0   0   0
Fe      11.584390670   8.191400930   0.000000000    0   0   0
Fe       9.929477717   7.021200797   2.026984232    0   0   0
Fe       8.256206859   5.844979294   4.040540988
Fe       6.529944530   4.808217310   5.984920770
Fe      11.577927796   8.171897344   4.027350313
Fe       9.908786055   6.966478275   6.005837295
Fe       9.102015670   8.191400930   0.000000000    0   0   0
Fe      10.756939764   5.851000664   0.000000000    0   0   0
Fe       7.447102717   7.021200797   2.026984232    0   0   0
Fe       9.102026811   4.680800531   2.026984232    0   0   0
Fe       9.101448726   8.192648340   4.041160035
Fe      10.732039797   5.833752897   4.031287322
Fe       7.441025308   7.062236761   5.999943315
Fe       9.008858120   4.614959448   6.049042617
N        7.448111054   3.511604843   6.997415985
H        7.449649892   3.512910324   8.026751116
H        4.561141570   8.491549484   6.939480778
End final coordinates



     Writing output data file Fe_NH_H_paper_480c_ESM_pn25.save/

     init_run     :     87.15s CPU     88.40s WALL (       1 calls)
     electrons    :  46053.09s CPU  46381.00s WALL (       6 calls)
     update_pot   :     91.21s CPU     91.32s WALL (       5 calls)
     forces       :    271.22s CPU    274.15s WALL (       6 calls)

     Called by init_run:
     wfcinit      :     61.27s CPU     62.27s WALL (       1 calls)
     potinit      :      7.85s CPU      7.89s WALL (       1 calls)
     hinit0       :     14.82s CPU     14.92s WALL (       1 calls)

     Called by electrons:
     c_bands      :  42588.23s CPU  42870.63s WALL (     121 calls)
     sum_band     :   1946.49s CPU   1976.36s WALL (     121 calls)
     v_of_rho     :    198.99s CPU    200.36s WALL (     122 calls)
     newd         :     36.30s CPU     37.50s WALL (     122 calls)
     PAW_pot      :     56.28s CPU     56.58s WALL (     127 calls)
     mix_rho      :   1180.19s CPU   1190.43s WALL (     121 calls)

     Called by c_bands:
     init_us_2    :     55.95s CPU     57.49s WALL (     762 calls)
     cegterg      :  31308.51s CPU  31493.57s WALL (     368 calls)

     Called by sum_band:
     sum_band:bec :      3.63s CPU      3.64s WALL (     378 calls)
     addusdens    :     44.08s CPU     46.30s WALL (     121 calls)

     Called by *egterg:
     h_psi        :   9293.63s CPU   9367.73s WALL (    3057 calls)
     s_psi        :   1934.55s CPU   1938.84s WALL (    3057 calls)
     g_psi        :     26.29s CPU     26.39s WALL (    2686 calls)
     cdiaghg      :  12172.52s CPU  12218.78s WALL (    3024 calls)

     Called by h_psi:
     h_psi:pot    :   9246.27s CPU   9293.19s WALL (    3057 calls)
     h_psi:calbec :   1956.38s CPU   1959.06s WALL (    3057 calls)
     vloc_psi     :   5353.13s CPU   5393.85s WALL (    3057 calls)
     add_vuspsi   :   1936.72s CPU   1940.26s WALL (    3057 calls)

     General routines
     calbec       :   2770.14s CPU   2774.15s WALL (    3507 calls)
     fft          :    125.45s CPU    126.57s WALL (    3143 calls)
     ffts         :    615.89s CPU    620.12s WALL (   71828 calls)
     fftw         :   5060.46s CPU   5101.57s WALL ( 1495911 calls)
     interpolate  :     12.08s CPU     12.24s WALL (     244 calls)
     davcio       :      0.60s CPU     74.98s WALL (    3102 calls)

     Parallel routines
     fft_scatt_xy :   1002.56s CPU   1007.58s WALL ( 1570882 calls)
     fft_scatt_yz :   1439.96s CPU   1461.34s WALL ( 1570882 calls)

     PWSCF        :     12h56m CPU     13h 1m WALL


   This run was terminated on:  14:38:18  13Jun2022            

=------------------------------------------------------------------------------=
   JOB DONE.
=------------------------------------------------------------------------------=
