
     Program PWSCF v.6.7MaX starts on 16Jun2022 at 19:29:11 

     This program is part of the open-source Quantum ESPRESSO suite
     for quantum simulation of materials; please cite
         "P. Giannozzi et al., J. Phys.:Condens. Matter 21 395502 (2009);
         "P. Giannozzi et al., J. Phys.:Condens. Matter 29 465901 (2017);
          URL http://www.quantum-espresso.org", 
     in publications or presentations arising from this work. More details at
     http://www.quantum-espresso.org/quote

     Parallel version (MPI), running on   256 processors

     MPI processes distributed on     2 nodes
     K-points division:     npool     =       8
     R & G space division:  proc/nbgrp/npool/nimage =      32
     Waiting for input...
     Reading input from standard input
Warning: card &CELL ignored
Warning: card / ignored

     Current dimensions of program PWSCF are:
     Max number of different atomic species (ntypx) = 10
     Max number of k-points (npk) =  40000
     Max angular momentum in pseudopotentials (lmaxx) =  3
     file Fe.pbe-spn-kjpaw_psl.0.2.1.UPF: wavefunction(s)  3D renormalized

     IMPORTANT: XC functional enforced from input :
     Exchange-correlation= PBE
                           (   1   4   3   4   0   0   0)
     Any further DFT definition will be discarded
     Please, verify this is what you really want


     -------------------------------------------------
     Parameters for Dispersion (Grimme-D2) Correction:
     -------------------------------------------------
       atom      VdW radius       C_6     

        Fe         2.952        374.666
        N          2.640         42.670
        H          1.892          4.857

     Subspace diagonalization in iterative solution of the eigenvalue problem:
     one sub-group per band group will be used
     scalapack distributed-memory algorithm (size of sub-group:  5*  5 procs)


     Parallelization info
     --------------------
     sticks:   dense  smooth     PW     G-vecs:    dense   smooth      PW
     Min         396     198     52                90796    32100    4368
     Max         397     199     53                90807    32109    4377
     Sum       12685    6351   1677              2905599  1027285  139897



     bravais-lattice index     =            0
     lattice parameter (alat)  =      18.7640  a.u.
     unit-cell volume          =   16360.3161 (a.u.)^3
     number of atoms/cell      =           66
     number of atomic types    =            3
     number of electrons       =      1030.00
     number of Kohn-Sham states=          618
     kinetic-energy cutoff     =      60.0000  Ry
     charge density cutoff     =     480.0000  Ry
     scf convergence threshold =      1.0E-08
     mixing beta               =       0.2000
     number of iterations used =           10  local-TF  mixing
     energy convergence thresh.=      7.3E-07
     force convergence thresh. =      3.9E-04
     Exchange-correlation= PBE
                           (   1   4   3   4   0   0   0)
     nstep                     =           50


     Effective Screening Medium Method
     =================================
     Boundary Conditions: Metal-Slab-Metal
     field strength                   =     0.02 Ry/a.u.
     grid points for fit at edges     =        4 


     celldm(1)=  18.764036  celldm(2)=   0.000000  celldm(3)=   0.000000
     celldm(4)=   0.000000  celldm(5)=   0.000000  celldm(6)=   0.000000

     crystal axes: (cart. coord. in units of alat)
               a(1) = (   1.000000   0.000000   0.000000 )  
               a(2) = (   0.333330   0.942807   0.000000 )  
               a(3) = (   0.000000   0.000000   2.626577 )  

     reciprocal axes: (cart. coord. in units 2 pi/alat)
               b(1) = (  1.000000 -0.353551  0.000000 )  
               b(2) = (  0.000000  1.060663  0.000000 )  
               b(3) = (  0.000000  0.000000  0.380724 )  


     PseudoPot. # 1 for Fe read from file:
     ../../SSSP/Fe.pbe-spn-kjpaw_psl.0.2.1.UPF
     MD5 check sum: e86618425769142926afa95317d90200
     Pseudo is Projector augmented-wave + core cor, Zval = 16.0
     Generated using "atomic" code by A. Dal Corso  v.5.0.99 svn rev. 10869
     Shape of augmentation charge: PSQ
     Using radial grid of 1191 points,  6 beta functions with: 
                l(1) =   0
                l(2) =   0
                l(3) =   1
                l(4) =   1
                l(5) =   2
                l(6) =   2
     Q(r) pseudized with 0 coefficients 


     PseudoPot. # 2 for N  read from file:
     ../../SSSP/N.pbe-n-radius_5.UPF
     MD5 check sum: 16739722b17309cd8fe442a2ace49922
     Pseudo is Ultrasoft + core correction, Zval =  5.0
     Generated using "atomic" code by A. Dal Corso  v.5.1
     Using radial grid of 1085 points,  4 beta functions with: 
                l(1) =   0
                l(2) =   0
                l(3) =   1
                l(4) =   1
     Q(r) pseudized with 0 coefficients 


     PseudoPot. # 3 for H  read from file:
     ../../SSSP/H.pbe-rrkjus_psl.1.0.0.UPF
     MD5 check sum: f52b6d4d1c606e5624b1dc7b2218f220
     Pseudo is Ultrasoft, Zval =  1.0
     Generated using "atomic" code by A. Dal Corso  v.5.1
     Using radial grid of  929 points,  2 beta functions with: 
                l(1) =   0
                l(2) =   0
     Q(r) pseudized with 0 coefficients 


     atomic species   valence    mass     pseudopotential
        Fe            16.00    55.84500     Fe( 1.00)
        N              5.00    14.00700     N ( 1.00)
        H              1.00     1.00800     H ( 1.00)

     Starting magnetic structure 
     atomic species   magnetization
        Fe           0.100
        N            0.100
        H            0.100

     No symmetry found



   Cartesian axes

     site n.     atom                  positions (alat units)
         1           Fe  tau(   1) = (   0.1666663   0.1178509   0.0000000  )
         2           Fe  tau(   2) = (   0.0000000   0.0000000   0.2041376  )
         3           Fe  tau(   3) = (   0.4999989   0.3535526   0.0000000  )
         4           Fe  tau(   4) = (   0.3333326   0.2357017   0.2041376  )
         5           Fe  tau(   5) = (   0.1692309   0.1174836   0.4055241  )
         6           Fe  tau(   6) = (   0.3358430   0.9392619   0.6065572  )
         7           Fe  tau(   7) = (   0.4994978   0.3560176   0.4072674  )
         8           Fe  tau(   8) = (   0.3419286   0.2351907   0.6069021  )
         9           Fe  tau(   9) = (   0.2499989   0.3535526   0.0000000  )
        10           Fe  tau(  10) = (   0.4166663   0.1178509   0.0000000  )
        11           Fe  tau(  11) = (   0.0833326   0.2357017   0.2041376  )
        12           Fe  tau(  12) = (   0.2500000   0.0000000   0.2041376  )
        13           Fe  tau(  13) = (   0.2500452   0.3534538   0.4077446  )
        14           Fe  tau(  14) = (   0.4190567   0.1195660   0.4061143  )
        15           Fe  tau(  15) = (   0.0922598   0.2320729   0.6067819  )
        16           Fe  tau(  16) = (   0.2529537   0.0020846   0.6064834  )
        17           Fe  tau(  17) = (   0.6666663   0.1178509   0.0000000  )
        18           Fe  tau(  18) = (   0.5000000   0.0000000   0.2041376  )
        19           Fe  tau(  19) = (   0.9999989   0.3535526   0.0000000  )
        20           Fe  tau(  20) = (   0.8333326   0.2357017   0.2041376  )
        21           Fe  tau(  21) = (   0.6687947   0.1165307   0.4072326  )
        22           Fe  tau(  22) = (   0.5023735   0.0082670   0.6069204  )
        23           Fe  tau(  23) = (   1.0003151   0.3509709   0.4069601  )
        24           Fe  tau(  24) = (   0.8517145   0.2096852   0.6029056  )
        25           Fe  tau(  25) = (   0.7499989   0.3535526   0.0000000  )
        26           Fe  tau(  26) = (   0.9166663   0.1178509   0.0000000  )
        27           Fe  tau(  27) = (   0.5833326   0.2357017   0.2041376  )
        28           Fe  tau(  28) = (   0.7500000   0.0000000   0.2041376  )
        29           Fe  tau(  29) = (   0.7499020   0.3534409   0.4088301  )
        30           Fe  tau(  30) = (   0.9195851   0.1134197   0.4032914  )
        31           Fe  tau(  31) = (   0.5924423   0.2420789   0.6050697  )
        32           Fe  tau(  32) = (   1.0846088   0.9332379   0.6074062  )
        33           Fe  tau(  33) = (   0.3333315   0.5892543   0.0000000  )
        34           Fe  tau(  34) = (   0.1666652   0.4714034   0.2041376  )
        35           Fe  tau(  35) = (   0.6666640   0.8249560   0.0000000  )
        36           Fe  tau(  36) = (   0.4999978   0.7071052   0.2041376  )
        37           Fe  tau(  37) = (   0.3307324   0.5895106   0.4058920  )
        38           Fe  tau(  38) = (   1.1584047   0.4709276   0.6065009  )
        39           Fe  tau(  39) = (   0.6671769   0.8274891   0.4055425  )
        40           Fe  tau(  40) = (   0.4974926   0.7106378   0.6065960  )
        41           Fe  tau(  41) = (   0.4166640   0.8249560   0.0000000  )
        42           Fe  tau(  42) = (   0.5833315   0.5892543   0.0000000  )
        43           Fe  tau(  43) = (   0.2499978   0.7071052   0.2041376  )
        44           Fe  tau(  44) = (   0.4166652   0.4714034   0.2041376  )
        45           Fe  tau(  45) = (   0.4165103   0.8248470   0.4041333  )
        46           Fe  tau(  46) = (   0.5801172   0.5934896   0.4033157  )
        47           Fe  tau(  47) = (   1.2456829   0.7040520   0.6068983  )
        48           Fe  tau(  48) = (   0.4080929   0.4758174   0.6074594  )
        49           Fe  tau(  49) = (   0.8333315   0.5892543   0.0000000  )
        50           Fe  tau(  50) = (   0.6666652   0.4714034   0.2041376  )
        51           Fe  tau(  51) = (   1.1666640   0.8249560   0.0000000  )
        52           Fe  tau(  52) = (   0.9999978   0.7071052   0.2041376  )
        53           Fe  tau(  53) = (   0.8309700   0.5903883   0.4069933  )
        54           Fe  tau(  54) = (   0.6482997   0.4973457   0.6029042  )
        55           Fe  tau(  55) = (   1.1660452   0.8224115   0.4058740  )
        56           Fe  tau(  56) = (   0.9967589   0.6994986   0.6064705  )
        57           Fe  tau(  57) = (   0.9166640   0.8249560   0.0000000  )
        58           Fe  tau(  58) = (   1.0833315   0.5892543   0.0000000  )
        59           Fe  tau(  59) = (   0.7499978   0.7071052   0.2041376  )
        60           Fe  tau(  60) = (   0.9166652   0.4714034   0.2041376  )
        61           Fe  tau(  61) = (   0.9165754   0.8250215   0.4077364  )
        62           Fe  tau(  62) = (   1.0807259   0.5874363   0.4059540  )
        63           Fe  tau(  63) = (   0.7494962   0.7167127   0.6068311  )
        64           Fe  tau(  64) = (   0.9077209   0.4650257   0.6049361  )
        65           N   tau(  65) = (   0.7501081   0.3535878   0.6396766  )
        66           H   tau(  66) = (   0.4633179   0.8579521   0.7025783  )

     number of k points=    10  Methfessel-Paxton smearing, width (Ry)=  0.0100
                       cart. coord. in units 2pi/alat
        k(    1) = (   0.0000000   0.0000000   0.0000000), wk =   0.0625000
        k(    2) = (   0.0000000   0.2651656   0.0000000), wk =   0.1250000
        k(    3) = (   0.0000000  -0.5303313   0.0000000), wk =   0.0625000
        k(    4) = (   0.2500000  -0.0883878   0.0000000), wk =   0.1250000
        k(    5) = (   0.2500000   0.1767779   0.0000000), wk =   0.1250000
        k(    6) = (   0.2500000  -0.6187190   0.0000000), wk =   0.1250000
        k(    7) = (   0.2500000  -0.3535534   0.0000000), wk =   0.1250000
        k(    8) = (  -0.5000000   0.1767755   0.0000000), wk =   0.0625000
        k(    9) = (  -0.5000000   0.4419412   0.0000000), wk =   0.1250000
        k(   10) = (  -0.5000000  -0.3535558   0.0000000), wk =   0.0625000

     Dense  grid:  2905599 G-vectors     FFT dimensions: ( 135, 135, 360)

     Smooth grid:  1027285 G-vectors     FFT dimensions: (  96,  96, 243)

     Estimated max dynamical RAM per process >     639.95 MB

     Estimated total dynamical RAM >     159.99 GB

     Check: negative core charge=   -0.000039
     Generating pointlists ...
     new r_m :   0.0737 (alat units)  1.3827 (a.u.) for type    1
     new r_m :   0.0742 (alat units)  1.3929 (a.u.) for type    2
     new r_m :   0.0737 (alat units)  1.3827 (a.u.) for type    3

     Initial potential from superposition of free atoms

     starting charge 1029.97193, renormalised to 1030.00000

     negative rho (up, down):  1.363E-02 1.115E-02
     Starting wfcs are  837 randomized atomic wfcs
     Checking if some PAW data can be deallocated... 

     total cpu time spent up to now is       31.8 secs

     Self-consistent Calculation

     iteration #  1     ecut=    60.00 Ry     beta= 0.20
     Davidson diagonalization with overlap
     ethr =  1.00E-04,  avg # of iterations = 17.5

     negative rho (up, down):  8.219E-03 6.684E-03

     total cpu time spent up to now is      337.1 secs

     total energy              =  -21077.53167908 Ry
     estimated scf accuracy    <    1273.12503314 Ry

     total magnetization       =    67.85 Bohr mag/cell
     absolute magnetization    =    69.76 Bohr mag/cell

     iteration #  2     ecut=    60.00 Ry     beta= 0.20
     Davidson diagonalization with overlap
     ethr =  1.00E-02,  avg # of iterations =  1.0

     negative rho (up, down):  6.583E-03 7.690E-03

     total cpu time spent up to now is      384.7 secs

     total energy              =  -21090.93945791 Ry
     estimated scf accuracy    <     339.82535929 Ry

     total magnetization       =    79.05 Bohr mag/cell
     absolute magnetization    =    81.36 Bohr mag/cell

     iteration #  3     ecut=    60.00 Ry     beta= 0.20
     Davidson diagonalization with overlap
     ethr =  1.00E-02,  avg # of iterations =  1.0

     negative rho (up, down):  7.499E-03 8.972E-03

     total cpu time spent up to now is      431.9 secs

     total energy              =  -21093.79145574 Ry
     estimated scf accuracy    <      16.68011807 Ry

     total magnetization       =   120.83 Bohr mag/cell
     absolute magnetization    =   121.48 Bohr mag/cell

     iteration #  4     ecut=    60.00 Ry     beta= 0.20
     Davidson diagonalization with overlap
     ethr =  1.62E-03,  avg # of iterations =  1.0

     negative rho (up, down):  5.733E-03 6.630E-03

     total cpu time spent up to now is      478.4 secs

     total energy              =  -21093.82086933 Ry
     estimated scf accuracy    <      20.77988255 Ry

     total magnetization       =   126.66 Bohr mag/cell
     absolute magnetization    =   127.30 Bohr mag/cell

     iteration #  5     ecut=    60.00 Ry     beta= 0.20
     Davidson diagonalization with overlap
     ethr =  1.62E-03,  avg # of iterations =  1.0

     negative rho (up, down):  1.726E-02 4.371E-02

     total cpu time spent up to now is      523.9 secs

     total energy              =  -21092.80659483 Ry
     estimated scf accuracy    <      25.34289731 Ry

     total magnetization       =   131.19 Bohr mag/cell
     absolute magnetization    =   131.88 Bohr mag/cell

     iteration #  6     ecut=    60.00 Ry     beta= 0.20
     Davidson diagonalization with overlap
     ethr =  1.62E-03,  avg # of iterations =  1.0

     negative rho (up, down):  2.198E-02 6.492E-02

     total cpu time spent up to now is      569.8 secs

     total energy              =  -21092.67447998 Ry
     estimated scf accuracy    <       8.98327731 Ry

     total magnetization       =   145.99 Bohr mag/cell
     absolute magnetization    =   147.21 Bohr mag/cell

     iteration #  7     ecut=    60.00 Ry     beta= 0.20
     Davidson diagonalization with overlap
     ethr =  8.72E-04,  avg # of iterations =  4.4

     negative rho (up, down):  8.083E-04 2.286E-02

     total cpu time spent up to now is      632.7 secs

     total energy              =  -21092.94672268 Ry
     estimated scf accuracy    <       2.95992511 Ry

     total magnetization       =   151.84 Bohr mag/cell
     absolute magnetization    =   153.97 Bohr mag/cell

     iteration #  8     ecut=    60.00 Ry     beta= 0.20
     Davidson diagonalization with overlap
     ethr =  2.87E-04,  avg # of iterations = 13.4

     negative rho (up, down):  1.718E-04 4.716E-03

     total cpu time spent up to now is      758.7 secs

     total energy              =  -21093.57611917 Ry
     estimated scf accuracy    <       3.71765262 Ry

     total magnetization       =   149.43 Bohr mag/cell
     absolute magnetization    =   153.64 Bohr mag/cell

     iteration #  9     ecut=    60.00 Ry     beta= 0.20
     Davidson diagonalization with overlap
     ethr =  2.87E-04,  avg # of iterations =  1.3

     negative rho (up, down):  6.962E-05 1.621E-03

     total cpu time spent up to now is      807.6 secs

     total energy              =  -21093.70024384 Ry
     estimated scf accuracy    <       0.45508508 Ry

     total magnetization       =   147.57 Bohr mag/cell
     absolute magnetization    =   151.26 Bohr mag/cell

     iteration # 10     ecut=    60.00 Ry     beta= 0.20
     Davidson diagonalization with overlap
     ethr =  4.42E-05,  avg # of iterations = 12.3

     negative rho (up, down):  2.070E-04 7.822E-04

     total cpu time spent up to now is      969.3 secs

     total energy              =  -21093.85494778 Ry
     estimated scf accuracy    <       0.48001820 Ry

     total magnetization       =   148.55 Bohr mag/cell
     absolute magnetization    =   152.80 Bohr mag/cell

     iteration # 11     ecut=    60.00 Ry     beta= 0.20
     Davidson diagonalization with overlap
     ethr =  4.42E-05,  avg # of iterations =  1.4

     negative rho (up, down):  1.045E-03 2.073E-03

     total cpu time spent up to now is     1018.8 secs

     total energy              =  -21093.81619509 Ry
     estimated scf accuracy    <       0.44608607 Ry

     total magnetization       =   150.76 Bohr mag/cell
     absolute magnetization    =   154.98 Bohr mag/cell

     iteration # 12     ecut=    60.00 Ry     beta= 0.20
     Davidson diagonalization with overlap
     ethr =  4.33E-05,  avg # of iterations =  3.6

     negative rho (up, down):  6.255E-04 2.015E-03

     total cpu time spent up to now is     1081.9 secs

     total energy              =  -21093.86818823 Ry
     estimated scf accuracy    <       0.24035855 Ry

     total magnetization       =   157.25 Bohr mag/cell
     absolute magnetization    =   162.17 Bohr mag/cell

     iteration # 13     ecut=    60.00 Ry     beta= 0.20
     Davidson diagonalization with overlap
     ethr =  2.33E-05,  avg # of iterations =  4.9

     negative rho (up, down):  2.044E-03 2.100E-03

     total cpu time spent up to now is     1145.9 secs

     total energy              =  -21093.87439771 Ry
     estimated scf accuracy    <       0.59494595 Ry

     total magnetization       =   159.04 Bohr mag/cell
     absolute magnetization    =   164.27 Bohr mag/cell

     iteration # 14     ecut=    60.00 Ry     beta= 0.20
     Davidson diagonalization with overlap
     ethr =  2.33E-05,  avg # of iterations =  5.0

     negative rho (up, down):  1.030E-02 9.127E-03

     total cpu time spent up to now is     1211.5 secs

     total energy              =  -21093.87622927 Ry
     estimated scf accuracy    <       0.60300113 Ry

     total magnetization       =   160.21 Bohr mag/cell
     absolute magnetization    =   165.66 Bohr mag/cell

     iteration # 15     ecut=    60.00 Ry     beta= 0.20
     Davidson diagonalization with overlap
     ethr =  2.33E-05,  avg # of iterations =  1.0

     negative rho (up, down):  2.167E-02 2.074E-02

     total cpu time spent up to now is     1256.9 secs

     total energy              =  -21093.87058287 Ry
     estimated scf accuracy    <       0.37325251 Ry

     total magnetization       =   161.32 Bohr mag/cell
     absolute magnetization    =   166.82 Bohr mag/cell

     iteration # 16     ecut=    60.00 Ry     beta= 0.20
     Davidson diagonalization with overlap
     ethr =  2.33E-05,  avg # of iterations =  1.2

     negative rho (up, down):  1.798E-02 1.615E-02

     total cpu time spent up to now is     1305.5 secs

     total energy              =  -21093.83446396 Ry
     estimated scf accuracy    <       0.27789784 Ry

     total magnetization       =   160.93 Bohr mag/cell
     absolute magnetization    =   166.44 Bohr mag/cell

     iteration # 17     ecut=    60.00 Ry     beta= 0.20
     Davidson diagonalization with overlap
     ethr =  2.33E-05,  avg # of iterations =  4.2

     negative rho (up, down):  1.848E-02 1.671E-02

     total cpu time spent up to now is     1367.4 secs

     total energy              =  -21093.84369487 Ry
     estimated scf accuracy    <       0.09236230 Ry

     total magnetization       =   161.05 Bohr mag/cell
     absolute magnetization    =   166.69 Bohr mag/cell

     iteration # 18     ecut=    60.00 Ry     beta= 0.20
     Davidson diagonalization with overlap
     c_bands:  1 eigenvalues not converged
     ethr =  8.97E-06,  avg # of iterations = 21.2

     negative rho (up, down):  8.213E-03 7.608E-03

     total cpu time spent up to now is     1600.2 secs

     total energy              =  -21093.86440396 Ry
     estimated scf accuracy    <       0.10694173 Ry

     total magnetization       =   160.28 Bohr mag/cell
     absolute magnetization    =   166.48 Bohr mag/cell

     iteration # 19     ecut=    60.00 Ry     beta= 0.20
     Davidson diagonalization with overlap
     ethr =  8.97E-06,  avg # of iterations =  4.7

     negative rho (up, down):  4.639E-02 4.635E-02

     total cpu time spent up to now is     1667.0 secs

     total energy              =  -21093.85234822 Ry
     estimated scf accuracy    <       0.05402720 Ry

     total magnetization       =   160.31 Bohr mag/cell
     absolute magnetization    =   166.47 Bohr mag/cell

     iteration # 20     ecut=    60.00 Ry     beta= 0.20
     Davidson diagonalization with overlap
     ethr =  5.25E-06,  avg # of iterations =  8.4

     negative rho (up, down):  7.405E-02 7.367E-02

     total cpu time spent up to now is     1815.9 secs

     total energy              =  -21093.86033452 Ry
     estimated scf accuracy    <       0.06449638 Ry

     total magnetization       =   160.73 Bohr mag/cell
     absolute magnetization    =   167.67 Bohr mag/cell

     iteration # 21     ecut=    60.00 Ry     beta= 0.20
     Davidson diagonalization with overlap
     ethr =  5.25E-06,  avg # of iterations =  1.4

     negative rho (up, down):  7.435E-02 7.430E-02

     total cpu time spent up to now is     1866.4 secs

     total energy              =  -21093.85817262 Ry
     estimated scf accuracy    <       0.03995486 Ry

     total magnetization       =   160.96 Bohr mag/cell
     absolute magnetization    =   167.90 Bohr mag/cell

     iteration # 22     ecut=    60.00 Ry     beta= 0.20
     Davidson diagonalization with overlap
     ethr =  3.88E-06,  avg # of iterations =  1.5

     negative rho (up, down):  7.182E-02 7.226E-02

     total cpu time spent up to now is     1921.7 secs

     total energy              =  -21093.85294052 Ry
     estimated scf accuracy    <       0.02985530 Ry

     total magnetization       =   160.48 Bohr mag/cell
     absolute magnetization    =   167.40 Bohr mag/cell

     iteration # 23     ecut=    60.00 Ry     beta= 0.20
     Davidson diagonalization with overlap
     ethr =  2.90E-06,  avg # of iterations = 10.9

     negative rho (up, down):  6.014E-02 6.109E-02

     total cpu time spent up to now is     2014.1 secs

     total energy              =  -21093.85042000 Ry
     estimated scf accuracy    <       0.01671649 Ry

     total magnetization       =   160.47 Bohr mag/cell
     absolute magnetization    =   167.40 Bohr mag/cell

     iteration # 24     ecut=    60.00 Ry     beta= 0.20
     Davidson diagonalization with overlap
     c_bands:  1 eigenvalues not converged
     c_bands:  1 eigenvalues not converged
     ethr =  1.62E-06,  avg # of iterations = 21.8

     negative rho (up, down):  6.119E-02 6.240E-02

     total cpu time spent up to now is     2219.7 secs

     total energy              =  -21093.85444828 Ry
     estimated scf accuracy    <       0.01420447 Ry

     total magnetization       =   160.43 Bohr mag/cell
     absolute magnetization    =   167.38 Bohr mag/cell

     iteration # 25     ecut=    60.00 Ry     beta= 0.20
     Davidson diagonalization with overlap
     ethr =  1.38E-06,  avg # of iterations = 10.9

     negative rho (up, down):  4.058E-02 4.246E-02

     total cpu time spent up to now is     2307.0 secs

     total energy              =  -21093.85283798 Ry
     estimated scf accuracy    <       0.01063120 Ry

     total magnetization       =   160.37 Bohr mag/cell
     absolute magnetization    =   167.35 Bohr mag/cell

     iteration # 26     ecut=    60.00 Ry     beta= 0.20
     Davidson diagonalization with overlap
     ethr =  1.03E-06,  avg # of iterations = 10.5

     negative rho (up, down):  3.548E-02 3.742E-02

     total cpu time spent up to now is     2440.2 secs

     total energy              =  -21093.85265895 Ry
     estimated scf accuracy    <       0.01034666 Ry

     total magnetization       =   159.99 Bohr mag/cell
     absolute magnetization    =   167.10 Bohr mag/cell

     iteration # 27     ecut=    60.00 Ry     beta= 0.20
     Davidson diagonalization with overlap
     ethr =  1.00E-06,  avg # of iterations =  8.7

     negative rho (up, down):  2.950E-02 3.170E-02

     total cpu time spent up to now is     2531.6 secs

     total energy              =  -21093.85273529 Ry
     estimated scf accuracy    <       0.00530779 Ry

     total magnetization       =   160.11 Bohr mag/cell
     absolute magnetization    =   167.17 Bohr mag/cell

     iteration # 28     ecut=    60.00 Ry     beta= 0.20
     Davidson diagonalization with overlap
     ethr =  5.15E-07,  avg # of iterations =  7.5

     negative rho (up, down):  2.816E-02 3.051E-02

     total cpu time spent up to now is     2617.5 secs

     total energy              =  -21093.85267663 Ry
     estimated scf accuracy    <       0.00282064 Ry

     total magnetization       =   160.26 Bohr mag/cell
     absolute magnetization    =   167.30 Bohr mag/cell

     iteration # 29     ecut=    60.00 Ry     beta= 0.20
     Davidson diagonalization with overlap
     ethr =  2.74E-07,  avg # of iterations =  9.7

     negative rho (up, down):  1.753E-02 2.047E-02

     total cpu time spent up to now is     2697.1 secs

     total energy              =  -21093.85131522 Ry
     estimated scf accuracy    <       0.00153702 Ry

     total magnetization       =   160.26 Bohr mag/cell
     absolute magnetization    =   167.31 Bohr mag/cell

     iteration # 30     ecut=    60.00 Ry     beta= 0.20
     Davidson diagonalization with overlap
     c_bands:  1 eigenvalues not converged
     ethr =  1.49E-07,  avg # of iterations = 16.9

     negative rho (up, down):  1.511E-02 1.822E-02

     total cpu time spent up to now is     2904.0 secs

     total energy              =  -21093.85047026 Ry
     estimated scf accuracy    <       0.00095527 Ry

     total magnetization       =   160.48 Bohr mag/cell
     absolute magnetization    =   167.52 Bohr mag/cell

     iteration # 31     ecut=    60.00 Ry     beta= 0.20
     Davidson diagonalization with overlap
     ethr =  9.27E-08,  avg # of iterations =  8.7

     negative rho (up, down):  1.519E-02 1.848E-02

     total cpu time spent up to now is     3010.7 secs

     total energy              =  -21093.84926065 Ry
     estimated scf accuracy    <       0.00045221 Ry

     total magnetization       =   160.49 Bohr mag/cell
     absolute magnetization    =   167.54 Bohr mag/cell

     iteration # 32     ecut=    60.00 Ry     beta= 0.20
     Davidson diagonalization with overlap
     ethr =  4.39E-08,  avg # of iterations =  8.1

     negative rho (up, down):  1.421E-02 1.764E-02

     total cpu time spent up to now is     3110.0 secs

     total energy              =  -21093.84729136 Ry
     estimated scf accuracy    <       0.00027850 Ry

     total magnetization       =   160.47 Bohr mag/cell
     absolute magnetization    =   167.51 Bohr mag/cell

     iteration # 33     ecut=    60.00 Ry     beta= 0.20
     Davidson diagonalization with overlap
     ethr =  2.70E-08,  avg # of iterations =  4.3

     negative rho (up, down):  1.272E-02 1.617E-02

     total cpu time spent up to now is     3166.7 secs

     total energy              =  -21093.84542790 Ry
     estimated scf accuracy    <       0.00015720 Ry

     total magnetization       =   160.50 Bohr mag/cell
     absolute magnetization    =   167.54 Bohr mag/cell

     iteration # 34     ecut=    60.00 Ry     beta= 0.20
     Davidson diagonalization with overlap
     ethr =  1.53E-08,  avg # of iterations =  8.3

     negative rho (up, down):  1.257E-02 1.607E-02

     total cpu time spent up to now is     3297.7 secs

     total energy              =  -21093.84452681 Ry
     estimated scf accuracy    <       0.00015623 Ry

     total magnetization       =   160.54 Bohr mag/cell
     absolute magnetization    =   167.56 Bohr mag/cell

     iteration # 35     ecut=    60.00 Ry     beta= 0.20
     Davidson diagonalization with overlap
     ethr =  1.52E-08,  avg # of iterations =  6.0

     negative rho (up, down):  1.171E-02 1.523E-02

     total cpu time spent up to now is     3399.3 secs

     total energy              =  -21093.84327790 Ry
     estimated scf accuracy    <       0.00004691 Ry

     total magnetization       =   160.51 Bohr mag/cell
     absolute magnetization    =   167.55 Bohr mag/cell

     iteration # 36     ecut=    60.00 Ry     beta= 0.20
     Davidson diagonalization with overlap
     ethr =  4.55E-09,  avg # of iterations =  7.8

     negative rho (up, down):  1.095E-02 1.444E-02

     total cpu time spent up to now is     3496.8 secs

     total energy              =  -21093.84257004 Ry
     estimated scf accuracy    <       0.00001968 Ry

     total magnetization       =   160.52 Bohr mag/cell
     absolute magnetization    =   167.56 Bohr mag/cell

     iteration # 37     ecut=    60.00 Ry     beta= 0.20
     Davidson diagonalization with overlap
     ethr =  1.91E-09,  avg # of iterations =  7.3

     negative rho (up, down):  1.092E-02 1.440E-02

     total cpu time spent up to now is     3647.5 secs

     total energy              =  -21093.84237806 Ry
     estimated scf accuracy    <       0.00000598 Ry

     total magnetization       =   160.53 Bohr mag/cell
     absolute magnetization    =   167.58 Bohr mag/cell

     iteration # 38     ecut=    60.00 Ry     beta= 0.20
     Davidson diagonalization with overlap
     ethr =  5.81E-10,  avg # of iterations = 11.4

     negative rho (up, down):  1.106E-02 1.454E-02

     total cpu time spent up to now is     3815.8 secs

     total energy              =  -21093.84230514 Ry
     estimated scf accuracy    <       0.00000357 Ry

     total magnetization       =   160.54 Bohr mag/cell
     absolute magnetization    =   167.58 Bohr mag/cell

     iteration # 39     ecut=    60.00 Ry     beta= 0.20
     Davidson diagonalization with overlap
     ethr =  3.47E-10,  avg # of iterations =  5.8

     negative rho (up, down):  1.139E-02 1.484E-02

     total cpu time spent up to now is     3879.3 secs

     total energy              =  -21093.84206960 Ry
     estimated scf accuracy    <       0.00000160 Ry

     total magnetization       =   160.53 Bohr mag/cell
     absolute magnetization    =   167.57 Bohr mag/cell

     iteration # 40     ecut=    60.00 Ry     beta= 0.20
     Davidson diagonalization with overlap
     ethr =  1.55E-10,  avg # of iterations =  9.3

     negative rho (up, down):  1.141E-02 1.486E-02

     total cpu time spent up to now is     4039.6 secs

     total energy              =  -21093.84212298 Ry
     estimated scf accuracy    <       0.00000059 Ry

     total magnetization       =   160.52 Bohr mag/cell
     absolute magnetization    =   167.57 Bohr mag/cell

     iteration # 41     ecut=    60.00 Ry     beta= 0.20
     Davidson diagonalization with overlap
     ethr =  5.77E-11,  avg # of iterations =  7.2

     negative rho (up, down):  1.144E-02 1.489E-02

     total cpu time spent up to now is     4156.5 secs

     total energy              =  -21093.84213235 Ry
     estimated scf accuracy    <       0.00000030 Ry

     total magnetization       =   160.52 Bohr mag/cell
     absolute magnetization    =   167.57 Bohr mag/cell

     iteration # 42     ecut=    60.00 Ry     beta= 0.20
     Davidson diagonalization with overlap
     ethr =  2.89E-11,  avg # of iterations =  4.2

     negative rho (up, down):  1.153E-02 1.498E-02

     total cpu time spent up to now is     4216.5 secs

     total energy              =  -21093.84209559 Ry
     estimated scf accuracy    <       0.00000021 Ry

     total magnetization       =   160.52 Bohr mag/cell
     absolute magnetization    =   167.57 Bohr mag/cell

     iteration # 43     ecut=    60.00 Ry     beta= 0.20
     Davidson diagonalization with overlap
     ethr =  2.04E-11,  avg # of iterations =  7.3

     negative rho (up, down):  1.155E-02 1.500E-02

     total cpu time spent up to now is     4293.2 secs

     total energy              =  -21093.84207635 Ry
     estimated scf accuracy    <       0.00000012 Ry

     total magnetization       =   160.52 Bohr mag/cell
     absolute magnetization    =   167.57 Bohr mag/cell

     iteration # 44     ecut=    60.00 Ry     beta= 0.20
     Davidson diagonalization with overlap
     ethr =  1.19E-11,  avg # of iterations =  9.1

     negative rho (up, down):  1.159E-02 1.504E-02

     total cpu time spent up to now is     4376.4 secs

     total energy              =  -21093.84208228 Ry
     estimated scf accuracy    <       0.00000009 Ry

     total magnetization       =   160.52 Bohr mag/cell
     absolute magnetization    =   167.57 Bohr mag/cell

     iteration # 45     ecut=    60.00 Ry     beta= 0.20
     Davidson diagonalization with overlap
     ethr =  8.95E-12,  avg # of iterations =  9.2

     negative rho (up, down):  1.161E-02 1.505E-02

     total cpu time spent up to now is     4478.0 secs

     total energy              =  -21093.84208787 Ry
     estimated scf accuracy    <       0.00000003 Ry

     total magnetization       =   160.52 Bohr mag/cell
     absolute magnetization    =   167.56 Bohr mag/cell

     iteration # 46     ecut=    60.00 Ry     beta= 0.20
     Davidson diagonalization with overlap
     ethr =  2.94E-12,  avg # of iterations =  9.5

     negative rho (up, down):  1.163E-02 1.507E-02

     total cpu time spent up to now is     4631.5 secs

     total energy              =  -21093.84208680 Ry
     estimated scf accuracy    <       0.00000002 Ry

     total magnetization       =   160.52 Bohr mag/cell
     absolute magnetization    =   167.56 Bohr mag/cell

     iteration # 47     ecut=    60.00 Ry     beta= 0.20
     Davidson diagonalization with overlap
     ethr =  1.69E-12,  avg # of iterations =  6.0

     negative rho (up, down):  1.164E-02 1.508E-02

     total cpu time spent up to now is     4692.9 secs

     total energy              =  -21093.84208690 Ry
     estimated scf accuracy    <       0.00000001 Ry

     total magnetization       =   160.52 Bohr mag/cell
     absolute magnetization    =   167.56 Bohr mag/cell

     iteration # 48     ecut=    60.00 Ry     beta= 0.20
     Davidson diagonalization with overlap
     ethr =  1.06E-12,  avg # of iterations = 10.2

     negative rho (up, down):  1.165E-02 1.509E-02

     Magnetic moment per site:
     atom:    1    charge:   12.5888    magn:    2.3601    constr:    0.0000
     atom:    2    charge:   12.5772    magn:    2.1619    constr:    0.0000
     atom:    3    charge:   12.5884    magn:    2.3608    constr:    0.0000
     atom:    4    charge:   12.5755    magn:    2.2024    constr:    0.0000
     atom:    5    charge:   12.5788    magn:    2.2076    constr:    0.0000
     atom:    6    charge:   12.5799    magn:    2.2237    constr:    0.0000
     atom:    7    charge:   12.5750    magn:    2.2572    constr:    0.0000
     atom:    8    charge:   12.5819    magn:    2.3651    constr:    0.0000
     atom:    9    charge:   12.5892    magn:    2.3538    constr:    0.0000
     atom:   10    charge:   12.5890    magn:    2.3575    constr:    0.0000
     atom:   11    charge:   12.5761    magn:    2.2072    constr:    0.0000
     atom:   12    charge:   12.5767    magn:    2.1963    constr:    0.0000
     atom:   13    charge:   12.5749    magn:    2.2121    constr:    0.0000
     atom:   14    charge:   12.5790    magn:    2.1790    constr:    0.0000
     atom:   15    charge:   12.5869    magn:    2.3323    constr:    0.0000
     atom:   16    charge:   12.5834    magn:    2.2215    constr:    0.0000
     atom:   17    charge:   12.5882    magn:    2.3607    constr:    0.0000
     atom:   18    charge:   12.5756    magn:    2.2024    constr:    0.0000
     atom:   19    charge:   12.5883    magn:    2.3615    constr:    0.0000
     atom:   20    charge:   12.5749    magn:    2.2222    constr:    0.0000
     atom:   21    charge:   12.5750    magn:    2.2569    constr:    0.0000
     atom:   22    charge:   12.5817    magn:    2.3652    constr:    0.0000
     atom:   23    charge:   12.5754    magn:    2.2510    constr:    0.0000
     atom:   24    charge:   12.5933    magn:    1.6365    constr:    0.0000
     atom:   25    charge:   12.5886    magn:    2.3672    constr:    0.0000
     atom:   26    charge:   12.5883    magn:    2.3608    constr:    0.0000
     atom:   27    charge:   12.5752    magn:    2.2185    constr:    0.0000
     atom:   28    charge:   12.5759    magn:    2.2046    constr:    0.0000
     atom:   29    charge:   12.5769    magn:    2.2774    constr:    0.0000
     atom:   30    charge:   12.5786    magn:    2.0638    constr:    0.0000
     atom:   31    charge:   12.5816    magn:    2.1303    constr:    0.0000
     atom:   32    charge:   12.5859    magn:    2.3347    constr:    0.0000
     atom:   33    charge:   12.5888    magn:    2.3612    constr:    0.0000
     atom:   34    charge:   12.5756    magn:    2.1971    constr:    0.0000
     atom:   35    charge:   12.5888    magn:    2.3601    constr:    0.0000
     atom:   36    charge:   12.5772    magn:    2.1619    constr:    0.0000
     atom:   37    charge:   12.5785    magn:    2.1983    constr:    0.0000
     atom:   38    charge:   12.5836    magn:    2.3465    constr:    0.0000
     atom:   39    charge:   12.5786    magn:    2.2076    constr:    0.0000
     atom:   40    charge:   12.5797    magn:    2.2238    constr:    0.0000
     atom:   41    charge:   12.5890    magn:    2.3619    constr:    0.0000
     atom:   42    charge:   12.5887    magn:    2.3609    constr:    0.0000
     atom:   43    charge:   12.5763    magn:    2.1996    constr:    0.0000
     atom:   44    charge:   12.5761    magn:    2.2048    constr:    0.0000
     atom:   45    charge:   12.5787    magn:    2.1615    constr:    0.0000
     atom:   46    charge:   12.5790    magn:    2.0638    constr:    0.0000
     atom:   47    charge:   12.5853    magn:    2.3575    constr:    0.0000
     atom:   48    charge:   12.5859    magn:    2.3350    constr:    0.0000
     atom:   49    charge:   12.5885    magn:    2.3616    constr:    0.0000
     atom:   50    charge:   12.5754    magn:    2.2225    constr:    0.0000
     atom:   51    charge:   12.5889    magn:    2.3612    constr:    0.0000
     atom:   52    charge:   12.5755    magn:    2.1970    constr:    0.0000
     atom:   53    charge:   12.5752    magn:    2.2512    constr:    0.0000
     atom:   54    charge:   12.5930    magn:    1.6366    constr:    0.0000
     atom:   55    charge:   12.5788    magn:    2.1983    constr:    0.0000
     atom:   56    charge:   12.5837    magn:    2.3465    constr:    0.0000
     atom:   57    charge:   12.5892    magn:    2.3538    constr:    0.0000
     atom:   58    charge:   12.5889    magn:    2.3586    constr:    0.0000
     atom:   59    charge:   12.5763    magn:    2.2074    constr:    0.0000
     atom:   60    charge:   12.5752    magn:    2.2171    constr:    0.0000
     atom:   61    charge:   12.5749    magn:    2.2121    constr:    0.0000
     atom:   62    charge:   12.5788    magn:    2.1907    constr:    0.0000
     atom:   63    charge:   12.5869    magn:    2.3324    constr:    0.0000
     atom:   64    charge:   12.5810    magn:    2.1368    constr:    0.0000
     atom:   65    charge:    3.7484    magn:   -0.1321    constr:    0.0000
     atom:   66    charge:    0.9790    magn:   -0.0236    constr:    0.0000

     total cpu time spent up to now is     4782.4 secs

     End of self-consistent calculation

 ------ SPIN UP ------------


          k = 0.0000 0.0000 0.0000 (128403 PWs)   bands (ev):

   -89.0705 -89.0248 -89.0174 -88.9912 -88.9879 -88.9813 -88.9783 -88.9769
   -88.9737 -88.9718 -88.9709 -88.9685 -88.9636 -88.9603 -88.9597 -88.9580
   -88.9571 -88.9557 -88.9541 -88.9540 -88.9519 -88.9484 -88.9450 -88.9446
   -88.9420 -88.9387 -88.9370 -88.9358 -88.9343 -88.9271 -88.9098 -88.9077
   -88.9007 -88.8981 -88.8886 -88.8521 -88.8422 -88.8417 -88.8384 -88.8333
   -88.8317 -88.8254 -88.8223 -88.8220 -88.8168 -88.8140 -88.8134 -88.8112
   -88.8105 -88.8096 -88.8087 -88.8049 -88.8045 -88.8027 -88.8003 -88.7985
   -88.7963 -88.7906 -88.7867 -88.7863 -88.7832 -88.7737 -88.7701 -88.7668
   -55.2475 -55.2052 -55.1860 -55.1841 -55.1787 -55.1755 -55.1723 -55.1721
   -55.1707 -55.1696 -55.1671 -55.1632 -55.1615 -55.1603 -55.1580 -55.1553
   -55.1549 -55.1534 -55.1517 -55.1515 -55.1511 -55.1467 -55.1462 -55.1408
   -55.1393 -55.1355 -55.1335 -55.1330 -55.1318 -55.1263 -55.1231 -55.1179
   -55.1166 -55.1139 -55.1102 -55.1083 -55.0968 -55.0958 -55.0934 -55.0933
   -55.0816 -55.0759 -55.0735 -55.0725 -55.0721 -55.0697 -55.0642 -55.0575
   -55.0516 -55.0466 -55.0408 -55.0323 -55.0256 -55.0224 -55.0165 -55.0139
   -55.0124 -55.0098 -55.0085 -55.0058 -54.9992 -54.9986 -54.9973 -54.9954
   -54.9949 -54.9877 -54.9875 -54.9857 -54.9850 -54.9825 -54.9814 -54.9765
   -54.9734 -54.9714 -54.9654 -54.9598 -54.9592 -54.9546 -54.9523 -54.9498
   -54.9491 -54.9470 -54.9468 -54.9433 -54.9419 -54.9391 -54.9375 -54.9339
   -54.9313 -54.9309 -54.9301 -54.9270 -54.9270 -54.9240 -54.9227 -54.9222
   -54.9206 -54.9202 -54.9158 -54.9136 -54.9116 -54.9113 -54.9095 -54.9041
   -54.9031 -54.9019 -54.8969 -54.8942 -54.8939 -54.8891 -54.8884 -54.8871
   -54.8851 -54.8822 -54.8777 -54.8751 -54.8727 -54.8682 -54.8664 -54.8652
   -54.8643 -54.8622 -54.8617 -54.8583 -54.8560 -54.8530 -54.8519 -54.8501
   -54.8486 -54.8485 -54.8448 -54.8440 -54.8435 -54.8415 -54.8414 -54.8372
   -54.8295 -54.8270 -54.8248 -54.8230 -54.8189 -54.8169 -54.8168 -54.8165
   -54.8156 -54.8117 -54.8108 -54.8066 -54.8028 -54.7994 -54.7981 -54.7972
   -54.7963 -54.7949 -54.7941 -54.7898 -54.7896 -54.7881 -54.7848 -54.7841
   -54.7789 -54.7759 -54.7749 -54.7748 -54.7738 -54.7708 -54.7632 -54.7609
   -54.7593 -54.7571 -54.7543 -54.7464 -54.7461 -54.7442 -54.7425 -54.7386
   -54.7347 -54.7288 -54.7237 -54.7217 -54.7206 -54.7186 -54.7176 -54.7166
   -54.7119 -54.7092 -54.7089 -54.7038 -54.7033 -54.7010 -54.6347 -54.6340
   -16.4262  -8.7589  -7.7606  -7.4529  -7.4031  -7.2109  -7.0664  -6.9703
    -6.8846  -6.8829  -6.6285  -6.5552  -6.3021  -6.0901  -6.0131  -5.9502
    -5.9314  -5.7608  -5.6597  -5.6271  -5.5110  -5.4581  -5.4305  -5.4246
    -5.3982  -5.3636  -5.3553  -5.3333  -5.2762  -5.1915  -5.0460  -5.0002
    -4.9664  -4.9624  -4.9367  -4.9128  -4.8978  -4.8930  -4.8839  -4.8729
    -4.8670  -4.8661  -4.8575  -4.8554  -4.8535  -4.8431  -4.8430  -4.8283
    -4.8067  -4.8005  -4.7995  -4.7980  -4.7778  -4.7732  -4.7533  -4.7291
    -4.7281  -4.6903  -4.6806  -4.6156  -4.6155  -4.6026  -4.5964  -4.5268
    -4.5241  -4.4371  -4.3522  -4.3358  -4.3127  -4.2929  -4.2854  -4.2799
    -4.2725  -4.2461  -4.2065  -4.1350  -4.1322  -4.1271  -4.1227  -4.1147
    -4.1046  -4.1045  -4.0985  -4.0837  -4.0703  -4.0649  -4.0637  -4.0589
    -4.0570  -4.0440  -4.0330  -4.0301  -4.0211  -4.0210  -4.0168  -4.0037
    -3.9867  -3.9867  -3.9739  -3.9664  -3.9599  -3.9589  -3.9509  -3.9476
    -3.9376  -3.9320  -3.9209  -3.9136  -3.9007  -3.8872  -3.8278  -3.8194
    -3.8164  -3.7538  -3.7493  -3.7492  -3.7435  -3.7140  -3.6822  -3.6651
    -3.6514  -3.6252  -3.5854  -3.5617  -3.5504  -3.5361  -3.5248  -3.5247
    -3.5192  -3.5173  -3.5034  -3.4864  -3.4601  -3.4469  -3.4286  -3.4256
    -3.4192  -3.4167  -3.4063  -3.4018  -3.3897  -3.3888  -3.3871  -3.3769
    -3.3618  -3.3290  -3.3155  -3.2847  -3.2679  -3.2325  -3.2323  -3.2294
    -3.2264  -3.2232  -3.2071  -3.1960  -3.1783  -3.1696  -3.1539  -3.1312
    -3.1100  -3.1032  -3.0994  -3.0991  -3.0944  -3.0915  -3.0896  -3.0799
    -3.0748  -3.0260  -3.0103  -3.0049  -2.9977  -2.9795  -2.9727  -2.9680
    -2.9678  -2.9504  -2.9490  -2.9481  -2.9452  -2.9373  -2.9251  -2.9129
    -2.8943  -2.8565  -2.8439  -2.8246  -2.7032  -2.6937  -2.5912  -2.5704
    -2.4616  -2.4469  -2.4341  -2.4296  -2.4268  -2.4218  -2.4137  -2.4103
    -2.4020  -2.3936  -2.3785  -2.3768  -2.3731  -2.3598  -2.3278  -2.3182
    -2.3039  -2.2870  -2.2844  -2.2690  -2.2668  -2.2573  -2.2422  -2.2329
    -2.2315  -2.2247  -2.2161  -2.2143  -2.2056  -2.1961  -2.1886  -2.1836
    -2.1769  -2.1602  -2.1544  -2.1440  -2.1192  -2.1079  -2.1044  -2.1025
    -2.0890  -2.0849  -2.0804  -2.0794  -2.0754  -2.0557  -2.0533  -2.0488
    -2.0473  -2.0423  -2.0321  -2.0275  -2.0248  -2.0153  -2.0061  -1.9998
    -1.9994  -1.9987  -1.9892  -1.9871  -1.9857  -1.9834  -1.9757  -1.9725
    -1.9710  -1.9664  -1.9550  -1.9537  -1.9491  -1.9369  -1.9358  -1.9279
    -1.9252  -1.9084  -1.9054  -1.8951  -1.8886  -1.8869  -1.8854  -1.8773
    -1.8741  -1.8726  -1.8667  -1.8632  -1.8442  -1.8395  -1.8205  -1.8116
    -1.8035  -1.7854  -1.7809  -1.7734  -1.7656  -1.7597  -1.7566  -1.7508
    -1.7443  -1.7339  -1.7227  -1.7200  -1.6591  -1.6374  -1.6207  -1.6205
    -1.6154  -1.6103  -1.6055  -1.6055  -1.6002  -1.5890  -1.5730  -1.5713
    -1.5693  -1.5558  -1.5535  -1.5481  -1.5393  -1.5351  -1.5123  -1.5082
    -1.5009  -1.4562  -1.4429  -1.2688  -1.1734  -1.1721  -1.1317  -1.1180
    -1.1108  -1.0870  -1.0243  -1.0176  -0.9940  -0.9646  -0.9523  -0.9471
    -0.9331  -0.8719  -0.8704  -0.8699  -0.8402  -0.8193  -0.8058  -0.7977
    -0.7683  -0.7621  -0.7358  -0.6819  -0.6539  -0.6324  -0.6007  -0.5443
    -0.5300  -0.3124  -0.1927  -0.1042   0.0527   0.1845   0.2025   0.2127
     0.2621   0.5292   0.7534   0.7976   0.8697   1.0096   1.0284   1.0539
     1.0758   1.1128

          k = 0.0000 0.2652 0.0000 (128375 PWs)   bands (ev):

   -89.0705 -89.0248 -89.0174 -88.9901 -88.9873 -88.9821 -88.9801 -88.9782
   -88.9726 -88.9714 -88.9706 -88.9661 -88.9642 -88.9634 -88.9616 -88.9579
   -88.9549 -88.9539 -88.9538 -88.9534 -88.9512 -88.9486 -88.9467 -88.9450
   -88.9420 -88.9383 -88.9370 -88.9360 -88.9333 -88.9279 -88.9098 -88.9077
   -88.9006 -88.8980 -88.8887 -88.8513 -88.8450 -88.8401 -88.8386 -88.8341
   -88.8286 -88.8277 -88.8233 -88.8197 -88.8169 -88.8147 -88.8138 -88.8120
   -88.8105 -88.8094 -88.8072 -88.8052 -88.8047 -88.8034 -88.7999 -88.7972
   -88.7962 -88.7923 -88.7881 -88.7864 -88.7806 -88.7741 -88.7699 -88.7673
   -55.2473 -55.2025 -55.1874 -55.1834 -55.1825 -55.1757 -55.1745 -55.1720
   -55.1708 -55.1666 -55.1656 -55.1641 -55.1608 -55.1592 -55.1573 -55.1562
   -55.1551 -55.1537 -55.1517 -55.1495 -55.1478 -55.1469 -55.1446 -55.1416
   -55.1398 -55.1347 -55.1334 -55.1319 -55.1296 -55.1258 -55.1238 -55.1189
   -55.1172 -55.1157 -55.1050 -55.1037 -55.0952 -55.0916 -55.0905 -55.0853
   -55.0805 -55.0785 -55.0760 -55.0735 -55.0680 -55.0633 -55.0611 -55.0588
   -55.0557 -55.0436 -55.0410 -55.0343 -55.0313 -55.0244 -55.0226 -55.0178
   -55.0147 -55.0123 -55.0097 -55.0047 -55.0043 -55.0021 -54.9960 -54.9954
   -54.9924 -54.9908 -54.9891 -54.9869 -54.9861 -54.9849 -54.9830 -54.9821
   -54.9788 -54.9768 -54.9746 -54.9706 -54.9678 -54.9627 -54.9623 -54.9585
   -54.9565 -54.9533 -54.9519 -54.9465 -54.9443 -54.9392 -54.9383 -54.9370
   -54.9348 -54.9325 -54.9305 -54.9252 -54.9239 -54.9210 -54.9187 -54.9168
   -54.9150 -54.9110 -54.9107 -54.9093 -54.9061 -54.9026 -54.9011 -54.9002
   -54.8986 -54.8967 -54.8940 -54.8930 -54.8911 -54.8893 -54.8882 -54.8855
   -54.8849 -54.8825 -54.8795 -54.8773 -54.8752 -54.8729 -54.8703 -54.8672
   -54.8656 -54.8611 -54.8602 -54.8561 -54.8552 -54.8524 -54.8508 -54.8484
   -54.8470 -54.8455 -54.8421 -54.8389 -54.8379 -54.8366 -54.8338 -54.8313
   -54.8287 -54.8261 -54.8228 -54.8212 -54.8194 -54.8167 -54.8147 -54.8133
   -54.8119 -54.8102 -54.8081 -54.8055 -54.8033 -54.8001 -54.7979 -54.7963
   -54.7955 -54.7916 -54.7903 -54.7897 -54.7892 -54.7881 -54.7877 -54.7832
   -54.7802 -54.7778 -54.7762 -54.7737 -54.7717 -54.7668 -54.7644 -54.7594
   -54.7558 -54.7549 -54.7532 -54.7477 -54.7455 -54.7441 -54.7421 -54.7388
   -54.7354 -54.7320 -54.7281 -54.7262 -54.7242 -54.7216 -54.7195 -54.7180
   -54.7158 -54.7128 -54.7112 -54.7084 -54.7047 -54.7021 -54.6353 -54.6344
   -16.4261  -8.6527  -7.8987  -7.6039  -7.4224  -7.2465  -7.1320  -7.0432
    -6.8601  -6.6937  -6.5190  -6.3807  -6.2604  -6.1067  -6.0053  -5.9380
    -5.7928  -5.7352  -5.6876  -5.5925  -5.5192  -5.4702  -5.4293  -5.3776
    -5.3684  -5.3467  -5.3239  -5.3085  -5.2637  -5.2252  -5.1434  -5.0829
    -5.0519  -5.0294  -5.0048  -4.9984  -4.9862  -4.9815  -4.9596  -4.9525
    -4.9378  -4.9118  -4.9099  -4.8917  -4.8807  -4.8541  -4.8396  -4.8265
    -4.8056  -4.7999  -4.7850  -4.7763  -4.7693  -4.7316  -4.7149  -4.7084
    -4.7032  -4.6948  -4.6699  -4.6311  -4.5772  -4.5688  -4.5348  -4.5223
    -4.4803  -4.4660  -4.4232  -4.4032  -4.3720  -4.3383  -4.3055  -4.2596
    -4.2413  -4.2281  -4.2059  -4.1797  -4.1417  -4.1352  -4.1205  -4.1163
    -4.1058  -4.0968  -4.0909  -4.0787  -4.0727  -4.0653  -4.0570  -4.0428
    -4.0348  -4.0278  -4.0188  -4.0155  -4.0014  -3.9980  -3.9886  -3.9844
    -3.9773  -3.9709  -3.9683  -3.9590  -3.9564  -3.9338  -3.9280  -3.9017
    -3.8798  -3.8759  -3.8701  -3.8599  -3.8558  -3.8442  -3.8286  -3.8178
    -3.8052  -3.7940  -3.7875  -3.7370  -3.7097  -3.6947  -3.6869  -3.6745
    -3.6505  -3.6346  -3.6199  -3.5998  -3.5818  -3.5562  -3.5300  -3.5217
    -3.5152  -3.5005  -3.4914  -3.4860  -3.4833  -3.4667  -3.4608  -3.4549
    -3.4381  -3.4290  -3.4183  -3.4073  -3.4019  -3.3955  -3.3822  -3.3684
    -3.3547  -3.3392  -3.3073  -3.2918  -3.2803  -3.2518  -3.2459  -3.2428
    -3.2325  -3.2155  -3.2098  -3.2034  -3.2001  -3.1905  -3.1835  -3.1754
    -3.1648  -3.1599  -3.1461  -3.1377  -3.1174  -3.1106  -3.0750  -3.0611
    -3.0454  -3.0334  -3.0265  -3.0164  -2.9974  -2.9830  -2.9604  -2.9488
    -2.9409  -2.9300  -2.9176  -2.8889  -2.8776  -2.8609  -2.8268  -2.8200
    -2.8053  -2.7670  -2.7502  -2.7366  -2.6920  -2.5988  -2.5842  -2.5462
    -2.5374  -2.5267  -2.5048  -2.4807  -2.4686  -2.4624  -2.4438  -2.4219
    -2.4083  -2.3988  -2.3848  -2.3803  -2.3683  -2.3631  -2.3532  -2.3479
    -2.3351  -2.3150  -2.3111  -2.2991  -2.2826  -2.2774  -2.2670  -2.2423
    -2.2353  -2.2292  -2.2228  -2.2053  -2.1982  -2.1846  -2.1783  -2.1770
    -2.1718  -2.1641  -2.1505  -2.1267  -2.1203  -2.1141  -2.1096  -2.0925
    -2.0912  -2.0845  -2.0781  -2.0715  -2.0661  -2.0598  -2.0578  -2.0500
    -2.0469  -2.0367  -2.0272  -2.0243  -2.0136  -2.0045  -1.9987  -1.9940
    -1.9869  -1.9850  -1.9746  -1.9704  -1.9636  -1.9582  -1.9567  -1.9478
    -1.9417  -1.9374  -1.9290  -1.9239  -1.9122  -1.9061  -1.9041  -1.8986
    -1.8908  -1.8877  -1.8830  -1.8807  -1.8781  -1.8691  -1.8672  -1.8541
    -1.8503  -1.8473  -1.8375  -1.8253  -1.8149  -1.8104  -1.7958  -1.7932
    -1.7808  -1.7558  -1.7476  -1.7407  -1.7349  -1.7289  -1.7210  -1.7066
    -1.7035  -1.6921  -1.6851  -1.6783  -1.6715  -1.6684  -1.6515  -1.6360
    -1.6190  -1.6153  -1.6111  -1.6031  -1.5965  -1.5839  -1.5767  -1.5748
    -1.5619  -1.5556  -1.5354  -1.5206  -1.5024  -1.4682  -1.4560  -1.4273
    -1.4147  -1.3981  -1.2991  -1.2539  -1.2343  -1.2088  -1.1801  -1.1577
    -1.1479  -1.1255  -1.1007  -1.0681  -1.0507  -1.0209  -1.0166  -1.0092
    -0.9981  -0.9784  -0.9657  -0.9571  -0.9392  -0.9351  -0.9073  -0.8924
    -0.8755  -0.8296  -0.8056  -0.7818  -0.7523  -0.6988  -0.6060  -0.4103
    -0.3338  -0.2566  -0.2043  -0.1537  -0.0348   0.0889   0.1643   0.2311
     0.4217   0.4483   0.4850   0.5044   0.6226   0.7110   0.8393   0.9179
     0.9692   1.0415

          k = 0.0000-0.5303 0.0000 (128388 PWs)   bands (ev):

   -89.0705 -89.0248 -89.0174 -88.9882 -88.9866 -88.9834 -88.9832 -88.9782
   -88.9716 -88.9710 -88.9684 -88.9678 -88.9650 -88.9648 -88.9613 -88.9578
   -88.9559 -88.9536 -88.9516 -88.9513 -88.9502 -88.9491 -88.9483 -88.9467
   -88.9408 -88.9390 -88.9369 -88.9362 -88.9315 -88.9293 -88.9097 -88.9078
   -88.9006 -88.8980 -88.8887 -88.8497 -88.8475 -88.8406 -88.8375 -88.8328
   -88.8316 -88.8250 -88.8242 -88.8182 -88.8172 -88.8154 -88.8143 -88.8129
   -88.8101 -88.8093 -88.8065 -88.8059 -88.8047 -88.8018 -88.8012 -88.7968
   -88.7956 -88.7928 -88.7896 -88.7863 -88.7783 -88.7749 -88.7696 -88.7679
   -55.2471 -55.1967 -55.1933 -55.1845 -55.1816 -55.1770 -55.1749 -55.1727
   -55.1704 -55.1650 -55.1645 -55.1634 -55.1614 -55.1598 -55.1566 -55.1564
   -55.1544 -55.1527 -55.1505 -55.1491 -55.1461 -55.1453 -55.1431 -55.1420
   -55.1412 -55.1344 -55.1315 -55.1304 -55.1288 -55.1254 -55.1231 -55.1210
   -55.1182 -55.1168 -55.1028 -55.0925 -55.0894 -55.0878 -55.0860 -55.0851
   -55.0812 -55.0784 -55.0783 -55.0758 -55.0652 -55.0602 -55.0555 -55.0535
   -55.0468 -55.0450 -55.0438 -55.0401 -55.0371 -55.0295 -55.0291 -55.0287
   -55.0240 -55.0191 -55.0150 -55.0079 -55.0053 -55.0037 -55.0004 -54.9981
   -54.9948 -54.9906 -54.9890 -54.9865 -54.9857 -54.9849 -54.9824 -54.9807
   -54.9798 -54.9738 -54.9733 -54.9703 -54.9691 -54.9668 -54.9657 -54.9642
   -54.9587 -54.9580 -54.9570 -54.9534 -54.9517 -54.9487 -54.9473 -54.9436
   -54.9399 -54.9390 -54.9334 -54.9274 -54.9239 -54.9208 -54.9182 -54.9156
   -54.9110 -54.9094 -54.9083 -54.9070 -54.9049 -54.9015 -54.8992 -54.8974
   -54.8969 -54.8937 -54.8911 -54.8883 -54.8870 -54.8865 -54.8828 -54.8814
   -54.8781 -54.8738 -54.8723 -54.8713 -54.8702 -54.8685 -54.8655 -54.8642
   -54.8620 -54.8596 -54.8594 -54.8579 -54.8558 -54.8536 -54.8523 -54.8491
   -54.8470 -54.8450 -54.8426 -54.8396 -54.8375 -54.8341 -54.8309 -54.8304
   -54.8289 -54.8261 -54.8241 -54.8208 -54.8198 -54.8181 -54.8143 -54.8115
   -54.8109 -54.8050 -54.8039 -54.8033 -54.8029 -54.8009 -54.7990 -54.7976
   -54.7973 -54.7942 -54.7923 -54.7905 -54.7880 -54.7858 -54.7814 -54.7814
   -54.7769 -54.7754 -54.7730 -54.7704 -54.7658 -54.7630 -54.7618 -54.7568
   -54.7530 -54.7526 -54.7502 -54.7460 -54.7449 -54.7428 -54.7411 -54.7397
   -54.7383 -54.7366 -54.7338 -54.7318 -54.7316 -54.7282 -54.7273 -54.7208
   -54.7188 -54.7166 -54.7147 -54.7103 -54.7051 -54.7027 -54.6358 -54.6348
   -16.4261  -8.4114  -8.2528  -7.6458  -7.4197  -7.2100  -7.1321  -7.0011
    -6.9764  -6.6502  -6.5468  -6.2284  -6.1926  -6.0232  -5.9633  -5.7555
    -5.7231  -5.6627  -5.6469  -5.5940  -5.5577  -5.4862  -5.4387  -5.4160
    -5.3885  -5.3010  -5.2840  -5.2394  -5.2359  -5.2277  -5.2152  -5.2020
    -5.1927  -5.1744  -5.1693  -5.1371  -5.1321  -5.0679  -5.0264  -5.0092
    -4.9361  -4.9090  -4.8769  -4.8640  -4.8573  -4.8307  -4.8267  -4.7753
    -4.7740  -4.7659  -4.7592  -4.7576  -4.7457  -4.7388  -4.7351  -4.7118
    -4.6896  -4.6442  -4.6363  -4.6081  -4.5904  -4.5852  -4.5441  -4.5235
    -4.5096  -4.4884  -4.4511  -4.4421  -4.4021  -4.3794  -4.3602  -4.3474
    -4.3302  -4.2488  -4.2138  -4.1522  -4.1454  -4.1205  -4.1166  -4.1113
    -4.1063  -4.0949  -4.0707  -4.0670  -4.0603  -4.0518  -4.0423  -4.0384
    -4.0296  -4.0233  -4.0105  -4.0066  -4.0013  -3.9966  -3.9851  -3.9682
    -3.9535  -3.9337  -3.9144  -3.9054  -3.9017  -3.8767  -3.8635  -3.8586
    -3.8484  -3.8356  -3.8264  -3.8228  -3.8148  -3.8134  -3.8066  -3.7944
    -3.7895  -3.7780  -3.7728  -3.7591  -3.7539  -3.7463  -3.7277  -3.7165
    -3.7000  -3.6310  -3.6064  -3.5720  -3.5472  -3.5237  -3.5129  -3.5082
    -3.4945  -3.4881  -3.4872  -3.4809  -3.4749  -3.4697  -3.4563  -3.4513
    -3.4467  -3.4422  -3.4407  -3.4379  -3.4354  -3.4274  -3.4127  -3.3932
    -3.3889  -3.3705  -3.3544  -3.3528  -3.3305  -3.3265  -3.3061  -3.2975
    -3.2838  -3.2819  -3.2741  -3.2508  -3.2470  -3.2247  -3.2224  -3.2173
    -3.1885  -3.1815  -3.1593  -3.1231  -3.1205  -3.0835  -3.0550  -3.0389
    -3.0060  -2.9963  -2.9883  -2.9791  -2.9698  -2.9611  -2.9587  -2.9441
    -2.9364  -2.8431  -2.8343  -2.7577  -2.7356  -2.7284  -2.7185  -2.6953
    -2.6725  -2.6687  -2.6451  -2.6394  -2.6087  -2.6076  -2.5623  -2.5546
    -2.5518  -2.5351  -2.5267  -2.5177  -2.5137  -2.5065  -2.4970  -2.4681
    -2.4617  -2.4597  -2.4470  -2.4403  -2.3949  -2.3643  -2.3590  -2.3532
    -2.3350  -2.3258  -2.3201  -2.3145  -2.2945  -2.2862  -2.2739  -2.2707
    -2.2633  -2.2418  -2.2162  -2.2070  -2.2033  -2.1942  -2.1899  -2.1890
    -2.1724  -2.1701  -2.1683  -2.1649  -2.1632  -2.1540  -2.1511  -2.1477
    -2.1454  -2.1369  -2.1279  -2.1052  -2.0942  -2.0589  -2.0477  -2.0342
    -2.0231  -2.0172  -2.0159  -2.0139  -2.0093  -1.9981  -1.9922  -1.9895
    -1.9859  -1.9690  -1.9679  -1.9584  -1.9555  -1.9490  -1.9408  -1.9391
    -1.9310  -1.9272  -1.9219  -1.9127  -1.9026  -1.9004  -1.8935  -1.8902
    -1.8731  -1.8543  -1.8481  -1.8426  -1.8385  -1.8310  -1.8154  -1.8104
    -1.7949  -1.7920  -1.7801  -1.7779  -1.7720  -1.7631  -1.7596  -1.7445
    -1.7351  -1.7308  -1.7283  -1.7258  -1.7224  -1.7160  -1.7122  -1.7064
    -1.7029  -1.6997  -1.6842  -1.6779  -1.6724  -1.6649  -1.6580  -1.6564
    -1.6335  -1.6136  -1.5967  -1.5901  -1.5195  -1.5156  -1.5129  -1.4890
    -1.4729  -1.4550  -1.4325  -1.4069  -1.3939  -1.3465  -1.3262  -1.3186
    -1.3084  -1.2991  -1.2919  -1.2847  -1.2652  -1.2296  -1.2269  -1.2143
    -1.2094  -1.1935  -1.1684  -1.1624  -1.1516  -1.1392  -1.0744  -1.0682
    -1.0454  -1.0307  -1.0282  -1.0059  -0.9974  -0.9670  -0.9513  -0.9418
    -0.9366  -0.9331  -0.9072  -0.8941  -0.8869  -0.8805  -0.7104  -0.6384
    -0.5878  -0.5280  -0.2182  -0.1880   0.0330   0.0748   0.1101   0.1643
     0.2043   0.5102   0.7171   0.7622   0.8465   0.8506   0.8876   0.9211
     0.9432   1.0073

          k = 0.2500-0.0884 0.0000 (128371 PWs)   bands (ev):

   -89.0705 -89.0248 -89.0174 -88.9901 -88.9873 -88.9822 -88.9801 -88.9782
   -88.9726 -88.9714 -88.9706 -88.9661 -88.9642 -88.9634 -88.9616 -88.9579
   -88.9549 -88.9539 -88.9538 -88.9534 -88.9512 -88.9486 -88.9467 -88.9450
   -88.9420 -88.9383 -88.9370 -88.9360 -88.9333 -88.9279 -88.9098 -88.9077
   -88.9007 -88.8980 -88.8887 -88.8513 -88.8450 -88.8400 -88.8386 -88.8341
   -88.8286 -88.8276 -88.8233 -88.8197 -88.8169 -88.8147 -88.8138 -88.8120
   -88.8105 -88.8094 -88.8072 -88.8052 -88.8047 -88.8034 -88.7999 -88.7972
   -88.7962 -88.7923 -88.7881 -88.7864 -88.7805 -88.7741 -88.7699 -88.7673
   -55.2473 -55.2025 -55.1873 -55.1834 -55.1825 -55.1757 -55.1746 -55.1719
   -55.1708 -55.1666 -55.1656 -55.1641 -55.1608 -55.1592 -55.1573 -55.1561
   -55.1551 -55.1537 -55.1516 -55.1495 -55.1478 -55.1469 -55.1446 -55.1416
   -55.1398 -55.1347 -55.1334 -55.1319 -55.1296 -55.1258 -55.1238 -55.1189
   -55.1172 -55.1157 -55.1050 -55.1037 -55.0952 -55.0916 -55.0905 -55.0853
   -55.0805 -55.0785 -55.0760 -55.0735 -55.0680 -55.0633 -55.0611 -55.0588
   -55.0556 -55.0436 -55.0410 -55.0344 -55.0313 -55.0244 -55.0226 -55.0178
   -55.0147 -55.0122 -55.0097 -55.0047 -55.0043 -55.0021 -54.9960 -54.9954
   -54.9924 -54.9908 -54.9891 -54.9869 -54.9861 -54.9849 -54.9830 -54.9820
   -54.9788 -54.9768 -54.9746 -54.9706 -54.9678 -54.9627 -54.9623 -54.9585
   -54.9565 -54.9533 -54.9519 -54.9465 -54.9443 -54.9392 -54.9383 -54.9370
   -54.9348 -54.9325 -54.9305 -54.9252 -54.9239 -54.9210 -54.9187 -54.9168
   -54.9150 -54.9110 -54.9107 -54.9092 -54.9061 -54.9026 -54.9011 -54.9001
   -54.8986 -54.8967 -54.8940 -54.8930 -54.8911 -54.8893 -54.8882 -54.8855
   -54.8849 -54.8825 -54.8795 -54.8773 -54.8752 -54.8729 -54.8703 -54.8672
   -54.8657 -54.8611 -54.8602 -54.8561 -54.8552 -54.8524 -54.8508 -54.8485
   -54.8470 -54.8455 -54.8421 -54.8389 -54.8379 -54.8366 -54.8338 -54.8313
   -54.8287 -54.8261 -54.8228 -54.8212 -54.8194 -54.8167 -54.8147 -54.8133
   -54.8119 -54.8102 -54.8081 -54.8055 -54.8033 -54.8001 -54.7978 -54.7963
   -54.7955 -54.7916 -54.7903 -54.7897 -54.7892 -54.7881 -54.7877 -54.7832
   -54.7802 -54.7778 -54.7762 -54.7737 -54.7717 -54.7668 -54.7644 -54.7594
   -54.7558 -54.7549 -54.7532 -54.7477 -54.7455 -54.7441 -54.7421 -54.7388
   -54.7354 -54.7320 -54.7281 -54.7262 -54.7242 -54.7216 -54.7195 -54.7180
   -54.7158 -54.7128 -54.7112 -54.7084 -54.7047 -54.7021 -54.6353 -54.6344
   -16.4261  -8.6527  -7.8988  -7.6039  -7.4224  -7.2465  -7.1320  -7.0432
    -6.8601  -6.6937  -6.5190  -6.3807  -6.2604  -6.1067  -6.0053  -5.9380
    -5.7928  -5.7352  -5.6877  -5.5925  -5.5192  -5.4702  -5.4294  -5.3776
    -5.3684  -5.3467  -5.3239  -5.3085  -5.2637  -5.2252  -5.1434  -5.0829
    -5.0519  -5.0294  -5.0048  -4.9983  -4.9862  -4.9815  -4.9596  -4.9525
    -4.9378  -4.9118  -4.9099  -4.8918  -4.8807  -4.8541  -4.8396  -4.8265
    -4.8056  -4.7999  -4.7851  -4.7763  -4.7694  -4.7316  -4.7149  -4.7084
    -4.7032  -4.6949  -4.6700  -4.6311  -4.5772  -4.5688  -4.5348  -4.5223
    -4.4803  -4.4660  -4.4232  -4.4032  -4.3720  -4.3382  -4.3056  -4.2596
    -4.2413  -4.2281  -4.2059  -4.1797  -4.1417  -4.1351  -4.1205  -4.1164
    -4.1058  -4.0968  -4.0909  -4.0787  -4.0727  -4.0653  -4.0570  -4.0428
    -4.0348  -4.0278  -4.0188  -4.0155  -4.0014  -3.9980  -3.9886  -3.9844
    -3.9773  -3.9709  -3.9684  -3.9590  -3.9564  -3.9338  -3.9280  -3.9017
    -3.8798  -3.8759  -3.8701  -3.8599  -3.8558  -3.8442  -3.8286  -3.8178
    -3.8053  -3.7940  -3.7875  -3.7370  -3.7097  -3.6948  -3.6869  -3.6744
    -3.6505  -3.6346  -3.6199  -3.5997  -3.5818  -3.5562  -3.5300  -3.5217
    -3.5152  -3.5005  -3.4914  -3.4860  -3.4833  -3.4667  -3.4608  -3.4549
    -3.4381  -3.4290  -3.4183  -3.4074  -3.4020  -3.3955  -3.3822  -3.3684
    -3.3547  -3.3392  -3.3073  -3.2918  -3.2803  -3.2518  -3.2459  -3.2427
    -3.2325  -3.2155  -3.2098  -3.2034  -3.2001  -3.1905  -3.1835  -3.1754
    -3.1648  -3.1598  -3.1461  -3.1376  -3.1174  -3.1107  -3.0749  -3.0611
    -3.0454  -3.0334  -3.0265  -3.0164  -2.9974  -2.9830  -2.9604  -2.9488
    -2.9409  -2.9300  -2.9175  -2.8889  -2.8776  -2.8609  -2.8268  -2.8199
    -2.8053  -2.7671  -2.7502  -2.7366  -2.6920  -2.5988  -2.5841  -2.5462
    -2.5375  -2.5267  -2.5048  -2.4807  -2.4686  -2.4624  -2.4438  -2.4219
    -2.4083  -2.3988  -2.3847  -2.3803  -2.3683  -2.3630  -2.3532  -2.3479
    -2.3351  -2.3151  -2.3110  -2.2992  -2.2826  -2.2774  -2.2670  -2.2424
    -2.2352  -2.2292  -2.2228  -2.2053  -2.1982  -2.1846  -2.1783  -2.1770
    -2.1718  -2.1641  -2.1505  -2.1267  -2.1203  -2.1141  -2.1096  -2.0925
    -2.0912  -2.0845  -2.0781  -2.0714  -2.0661  -2.0598  -2.0578  -2.0500
    -2.0468  -2.0367  -2.0272  -2.0243  -2.0136  -2.0045  -1.9986  -1.9939
    -1.9869  -1.9851  -1.9746  -1.9704  -1.9635  -1.9583  -1.9567  -1.9478
    -1.9417  -1.9374  -1.9291  -1.9239  -1.9122  -1.9060  -1.9042  -1.8986
    -1.8908  -1.8877  -1.8830  -1.8807  -1.8781  -1.8690  -1.8672  -1.8541
    -1.8503  -1.8473  -1.8375  -1.8253  -1.8149  -1.8104  -1.7958  -1.7932
    -1.7808  -1.7558  -1.7476  -1.7407  -1.7349  -1.7289  -1.7210  -1.7066
    -1.7035  -1.6921  -1.6851  -1.6783  -1.6715  -1.6684  -1.6515  -1.6360
    -1.6190  -1.6153  -1.6111  -1.6031  -1.5965  -1.5839  -1.5767  -1.5747
    -1.5620  -1.5556  -1.5354  -1.5206  -1.5024  -1.4682  -1.4560  -1.4273
    -1.4147  -1.3981  -1.2991  -1.2539  -1.2343  -1.2088  -1.1800  -1.1577
    -1.1479  -1.1255  -1.1007  -1.0681  -1.0508  -1.0208  -1.0167  -1.0091
    -0.9981  -0.9784  -0.9657  -0.9571  -0.9392  -0.9351  -0.9073  -0.8923
    -0.8755  -0.8296  -0.8056  -0.7818  -0.7523  -0.6988  -0.6060  -0.4103
    -0.3338  -0.2566  -0.2043  -0.1537  -0.0348   0.0888   0.1643   0.2311
     0.4217   0.4483   0.4851   0.5044   0.6226   0.7110   0.8394   0.9179
     0.9692   1.0416

          k = 0.2500 0.1768 0.0000 (128340 PWs)   bands (ev):

   -89.0705 -89.0248 -89.0174 -88.9893 -88.9866 -88.9821 -88.9797 -88.9785
   -88.9768 -88.9707 -88.9706 -88.9651 -88.9650 -88.9649 -88.9585 -88.9571
   -88.9560 -88.9540 -88.9539 -88.9500 -88.9500 -88.9495 -88.9477 -88.9469
   -88.9441 -88.9366 -88.9365 -88.9356 -88.9329 -88.9290 -88.9098 -88.9078
   -88.9007 -88.8979 -88.8887 -88.8509 -88.8429 -88.8425 -88.8390 -88.8368
   -88.8258 -88.8251 -88.8242 -88.8193 -88.8175 -88.8150 -88.8144 -88.8130
   -88.8102 -88.8082 -88.8077 -88.8055 -88.8040 -88.8038 -88.7989 -88.7986
   -88.7965 -88.7939 -88.7873 -88.7844 -88.7807 -88.7743 -88.7700 -88.7676
   -55.2472 -55.2022 -55.1869 -55.1827 -55.1798 -55.1786 -55.1743 -55.1728
   -55.1695 -55.1687 -55.1654 -55.1628 -55.1591 -55.1586 -55.1582 -55.1558
   -55.1541 -55.1532 -55.1523 -55.1498 -55.1479 -55.1449 -55.1432 -55.1418
   -55.1414 -55.1364 -55.1325 -55.1308 -55.1282 -55.1248 -55.1230 -55.1190
   -55.1169 -55.1112 -55.1082 -55.0984 -55.0902 -55.0895 -55.0884 -55.0842
   -55.0796 -55.0758 -55.0671 -55.0664 -55.0659 -55.0633 -55.0621 -55.0593
   -55.0509 -55.0466 -55.0423 -55.0407 -55.0303 -55.0252 -55.0247 -55.0215
   -55.0200 -55.0160 -55.0127 -55.0106 -55.0091 -55.0064 -55.0053 -55.0024
   -54.9998 -54.9951 -54.9931 -54.9899 -54.9891 -54.9879 -54.9859 -54.9841
   -54.9820 -54.9793 -54.9757 -54.9725 -54.9723 -54.9649 -54.9639 -54.9589
   -54.9578 -54.9554 -54.9517 -54.9478 -54.9454 -54.9414 -54.9397 -54.9379
   -54.9361 -54.9348 -54.9314 -54.9286 -54.9233 -54.9222 -54.9179 -54.9168
   -54.9135 -54.9116 -54.9046 -54.9038 -54.9009 -54.8989 -54.8972 -54.8962
   -54.8948 -54.8932 -54.8930 -54.8913 -54.8902 -54.8890 -54.8877 -54.8860
   -54.8822 -54.8818 -54.8797 -54.8764 -54.8754 -54.8720 -54.8698 -54.8668
   -54.8663 -54.8589 -54.8588 -54.8552 -54.8552 -54.8546 -54.8515 -54.8482
   -54.8473 -54.8429 -54.8387 -54.8354 -54.8325 -54.8322 -54.8277 -54.8261
   -54.8238 -54.8238 -54.8213 -54.8199 -54.8165 -54.8163 -54.8142 -54.8138
   -54.8095 -54.8095 -54.8041 -54.8040 -54.8012 -54.8011 -54.7980 -54.7954
   -54.7954 -54.7944 -54.7900 -54.7894 -54.7866 -54.7866 -54.7858 -54.7828
   -54.7823 -54.7782 -54.7732 -54.7700 -54.7685 -54.7657 -54.7610 -54.7593
   -54.7582 -54.7518 -54.7515 -54.7484 -54.7470 -54.7450 -54.7420 -54.7402
   -54.7360 -54.7342 -54.7312 -54.7282 -54.7260 -54.7256 -54.7231 -54.7208
   -54.7172 -54.7168 -54.7148 -54.7144 -54.7070 -54.7044 -54.6358 -54.6348
   -16.4261  -8.6126  -7.7559  -7.5887  -7.5424  -7.3694  -7.1888  -7.1540
    -6.9221  -6.6051  -6.4736  -6.3170  -6.2305  -6.1906  -6.0424  -5.8810
    -5.7714  -5.6800  -5.6025  -5.5092  -5.4188  -5.4161  -5.3786  -5.3762
    -5.3393  -5.3051  -5.2914  -5.2903  -5.2553  -5.1890  -5.1846  -5.1065
    -5.0797  -5.0675  -5.0537  -5.0361  -4.9842  -4.9770  -4.9705  -4.9451
    -4.9387  -4.9256  -4.9100  -4.9062  -4.9002  -4.9001  -4.8894  -4.8881
    -4.8541  -4.8499  -4.8172  -4.8091  -4.7780  -4.7750  -4.7358  -4.7155
    -4.7123  -4.6497  -4.6398  -4.5810  -4.5560  -4.5472  -4.5253  -4.4959
    -4.4782  -4.4490  -4.4247  -4.4155  -4.3990  -4.3477  -4.3188  -4.3049
    -4.2613  -4.2201  -4.1947  -4.1750  -4.1591  -4.1493  -4.1470  -4.1270
    -4.1267  -4.1235  -4.1155  -4.1088  -4.1007  -4.0961  -4.0910  -4.0795
    -4.0765  -4.0672  -4.0447  -4.0314  -3.9949  -3.9827  -3.9803  -3.9727
    -3.9480  -3.9456  -3.9255  -3.9182  -3.9045  -3.8950  -3.8934  -3.8828
    -3.8652  -3.8620  -3.8404  -3.8346  -3.8150  -3.7956  -3.7781  -3.7655
    -3.7596  -3.7546  -3.7293  -3.7292  -3.7168  -3.7045  -3.6937  -3.6907
    -3.6828  -3.6799  -3.6784  -3.6673  -3.6331  -3.6158  -3.5995  -3.5863
    -3.5600  -3.5262  -3.5245  -3.5135  -3.4998  -3.4997  -3.4894  -3.4719
    -3.4545  -3.4293  -3.4054  -3.3982  -3.3951  -3.3931  -3.3732  -3.3689
    -3.3569  -3.3490  -3.3260  -3.3131  -3.3018  -3.2834  -3.2587  -3.2414
    -3.2298  -3.2210  -3.2179  -3.2131  -3.1841  -3.1840  -3.1743  -3.1683
    -3.1444  -3.1270  -3.1236  -3.1151  -3.1145  -3.1003  -3.0913  -3.0882
    -3.0710  -3.0671  -3.0605  -3.0496  -3.0436  -3.0384  -3.0353  -2.9976
    -2.9853  -2.9842  -2.9554  -2.9062  -2.8549  -2.8193  -2.7813  -2.7478
    -2.7201  -2.7045  -2.6876  -2.6320  -2.6286  -2.5898  -2.5756  -2.5696
    -2.5547  -2.5293  -2.5096  -2.5003  -2.4836  -2.4703  -2.4328  -2.4296
    -2.4157  -2.4096  -2.3915  -2.3881  -2.3808  -2.3712  -2.3562  -2.3402
    -2.3194  -2.3141  -2.3063  -2.3037  -2.2801  -2.2748  -2.2727  -2.2652
    -2.2556  -2.2426  -2.2304  -2.2255  -2.1928  -2.1874  -2.1789  -2.1681
    -2.1572  -2.1458  -2.1379  -2.1280  -2.1246  -2.1201  -2.1192  -2.0975
    -2.0874  -2.0764  -2.0762  -2.0716  -2.0617  -2.0468  -2.0466  -2.0396
    -2.0385  -2.0287  -2.0269  -2.0189  -2.0175  -1.9925  -1.9758  -1.9737
    -1.9671  -1.9558  -1.9551  -1.9482  -1.9474  -1.9278  -1.9262  -1.9183
    -1.8978  -1.8946  -1.8940  -1.8856  -1.8855  -1.8746  -1.8623  -1.8528
    -1.8518  -1.8508  -1.8451  -1.8316  -1.8302  -1.8260  -1.8155  -1.8077
    -1.8059  -1.8040  -1.7972  -1.7934  -1.7923  -1.7857  -1.7826  -1.7570
    -1.7542  -1.7470  -1.7456  -1.7384  -1.7355  -1.7242  -1.7172  -1.7126
    -1.7100  -1.7064  -1.6969  -1.6840  -1.6780  -1.6561  -1.6548  -1.6332
    -1.6200  -1.6177  -1.6033  -1.5800  -1.5699  -1.5629  -1.5555  -1.5346
    -1.5311  -1.5230  -1.5210  -1.5117  -1.4516  -1.4491  -1.4103  -1.4059
    -1.4020  -1.4007  -1.2932  -1.2738  -1.2038  -1.1919  -1.1519  -1.1247
    -1.1196  -1.0751  -1.0664  -1.0553  -1.0410  -1.0322  -1.0057  -0.9946
    -0.9757  -0.9735  -0.9641  -0.9558  -0.9498  -0.9090  -0.8973  -0.8589
    -0.8174  -0.7785  -0.7330  -0.7275  -0.6790  -0.6653  -0.5561  -0.5326
    -0.4367  -0.3534  -0.3192  -0.1298  -0.0280   0.0195   0.0548   0.0803
     0.1400   0.1489   0.1838   0.2030   0.3157   0.4295   0.6114   0.6973
     0.8000   0.8779

          k = 0.2500-0.6187 0.0000 (128424 PWs)   bands (ev):

   -89.0705 -89.0248 -89.0173 -88.9875 -88.9857 -88.9833 -88.9821 -88.9799
   -88.9757 -88.9723 -88.9702 -88.9656 -88.9640 -88.9622 -88.9596 -88.9568
   -88.9556 -88.9538 -88.9535 -88.9515 -88.9514 -88.9503 -88.9480 -88.9448
   -88.9428 -88.9372 -88.9363 -88.9359 -88.9321 -88.9300 -88.9097 -88.9079
   -88.9006 -88.8979 -88.8887 -88.8494 -88.8463 -88.8422 -88.8380 -88.8363
   -88.8269 -88.8250 -88.8228 -88.8187 -88.8176 -88.8157 -88.8151 -88.8137
   -88.8106 -88.8079 -88.8067 -88.8055 -88.8042 -88.8017 -88.8008 -88.7972
   -88.7969 -88.7951 -88.7882 -88.7843 -88.7782 -88.7753 -88.7698 -88.7681
   -55.2471 -55.1974 -55.1897 -55.1867 -55.1808 -55.1768 -55.1751 -55.1732
   -55.1685 -55.1677 -55.1652 -55.1625 -55.1604 -55.1580 -55.1570 -55.1546
   -55.1540 -55.1517 -55.1505 -55.1498 -55.1472 -55.1459 -55.1433 -55.1423
   -55.1389 -55.1362 -55.1311 -55.1286 -55.1269 -55.1252 -55.1228 -55.1209
   -55.1170 -55.1151 -55.1026 -55.0905 -55.0839 -55.0821 -55.0806 -55.0792
   -55.0780 -55.0764 -55.0743 -55.0697 -55.0663 -55.0623 -55.0538 -55.0533
   -55.0503 -55.0463 -55.0436 -55.0412 -55.0388 -55.0346 -55.0334 -55.0291
   -55.0262 -55.0236 -55.0192 -55.0175 -55.0115 -55.0087 -55.0053 -55.0019
   -54.9998 -54.9946 -54.9942 -54.9926 -54.9896 -54.9877 -54.9863 -54.9836
   -54.9793 -54.9774 -54.9745 -54.9727 -54.9699 -54.9679 -54.9653 -54.9630
   -54.9617 -54.9608 -54.9568 -54.9548 -54.9517 -54.9496 -54.9468 -54.9445
   -54.9407 -54.9382 -54.9367 -54.9334 -54.9280 -54.9228 -54.9193 -54.9159
   -54.9121 -54.9055 -54.9032 -54.9020 -54.9004 -54.8992 -54.8971 -54.8944
   -54.8933 -54.8919 -54.8903 -54.8872 -54.8845 -54.8829 -54.8810 -54.8795
   -54.8782 -54.8750 -54.8735 -54.8725 -54.8705 -54.8685 -54.8651 -54.8640
   -54.8619 -54.8591 -54.8575 -54.8548 -54.8520 -54.8501 -54.8479 -54.8461
   -54.8448 -54.8435 -54.8413 -54.8385 -54.8361 -54.8332 -54.8306 -54.8268
   -54.8258 -54.8237 -54.8207 -54.8196 -54.8164 -54.8145 -54.8131 -54.8118
   -54.8103 -54.8084 -54.8065 -54.8029 -54.8019 -54.7988 -54.7969 -54.7946
   -54.7929 -54.7913 -54.7889 -54.7881 -54.7872 -54.7864 -54.7853 -54.7806
   -54.7763 -54.7700 -54.7691 -54.7665 -54.7655 -54.7625 -54.7605 -54.7569
   -54.7537 -54.7512 -54.7506 -54.7484 -54.7443 -54.7433 -54.7419 -54.7405
   -54.7386 -54.7367 -54.7343 -54.7340 -54.7317 -54.7310 -54.7301 -54.7265
   -54.7245 -54.7223 -54.7191 -54.7150 -54.7082 -54.7060 -54.6363 -54.6352
   -16.4261  -8.3796  -8.0922  -7.8164  -7.4996  -7.3055  -7.2421  -6.9434
    -6.8327  -6.6455  -6.5608  -6.3429  -6.2923  -5.8464  -5.7692  -5.7158
    -5.6775  -5.6527  -5.6063  -5.5742  -5.5235  -5.4513  -5.3943  -5.3829
    -5.3609  -5.3505  -5.3136  -5.2711  -5.2454  -5.2207  -5.2126  -5.2087
    -5.1873  -5.1600  -5.1394  -5.1044  -5.0924  -5.0678  -5.0499  -5.0400
    -5.0171  -5.0134  -4.9707  -4.9592  -4.9351  -4.9153  -4.8570  -4.8446
    -4.8251  -4.8026  -4.7643  -4.7377  -4.7249  -4.6948  -4.6659  -4.6530
    -4.6198  -4.6095  -4.5989  -4.5831  -4.5737  -4.5633  -4.5279  -4.5197
    -4.4868  -4.4818  -4.4451  -4.4258  -4.4180  -4.3892  -4.3617  -4.3441
    -4.3214  -4.2847  -4.2670  -4.2356  -4.2034  -4.1600  -4.1447  -4.1358
    -4.1302  -4.1185  -4.1091  -4.1053  -4.0980  -4.0668  -4.0516  -4.0283
    -4.0144  -4.0055  -3.9863  -3.9715  -3.9590  -3.9425  -3.9340  -3.9291
    -3.9232  -3.9149  -3.9025  -3.8940  -3.8884  -3.8805  -3.8756  -3.8465
    -3.8404  -3.8315  -3.8252  -3.8110  -3.8002  -3.7912  -3.7829  -3.7716
    -3.7667  -3.7553  -3.7395  -3.7313  -3.7234  -3.6933  -3.6865  -3.6769
    -3.6681  -3.6598  -3.6536  -3.6466  -3.6424  -3.6291  -3.6195  -3.6056
    -3.5975  -3.5922  -3.5844  -3.5693  -3.5609  -3.5441  -3.5330  -3.5170
    -3.5063  -3.4950  -3.4671  -3.4270  -3.3943  -3.3746  -3.3606  -3.3562
    -3.3348  -3.3307  -3.3275  -3.3242  -3.3025  -3.2957  -3.2866  -3.2800
    -3.2721  -3.2670  -3.2556  -3.2469  -3.2400  -3.2309  -3.2156  -3.2050
    -3.1976  -3.1899  -3.1722  -3.1236  -3.1082  -3.0974  -3.0814  -3.0463
    -3.0425  -3.0142  -3.0010  -2.9673  -2.9590  -2.9361  -2.9214  -2.8860
    -2.8736  -2.8452  -2.8120  -2.7783  -2.7641  -2.7441  -2.7349  -2.7135
    -2.6830  -2.6677  -2.6617  -2.6313  -2.6119  -2.5976  -2.5914  -2.5661
    -2.5581  -2.5537  -2.5428  -2.5335  -2.5150  -2.5056  -2.4797  -2.4603
    -2.4444  -2.4326  -2.4205  -2.4160  -2.3907  -2.3756  -2.3632  -2.3455
    -2.3341  -2.3237  -2.3175  -2.3053  -2.3007  -2.2891  -2.2771  -2.2620
    -2.2556  -2.2459  -2.2424  -2.2136  -2.2054  -2.1920  -2.1853  -2.1823
    -2.1754  -2.1628  -2.1551  -2.1507  -2.1475  -2.1420  -2.1337  -2.1319
    -2.1269  -2.1097  -2.1015  -2.0987  -2.0774  -2.0673  -2.0557  -2.0377
    -2.0349  -2.0164  -2.0148  -2.0020  -1.9985  -1.9899  -1.9805  -1.9778
    -1.9705  -1.9605  -1.9540  -1.9455  -1.9434  -1.9271  -1.9251  -1.9112
    -1.9068  -1.8911  -1.8859  -1.8840  -1.8647  -1.8600  -1.8532  -1.8504
    -1.8420  -1.8361  -1.8321  -1.8270  -1.8232  -1.8195  -1.8136  -1.7919
    -1.7854  -1.7808  -1.7786  -1.7703  -1.7682  -1.7596  -1.7553  -1.7494
    -1.7452  -1.7420  -1.7305  -1.7280  -1.7230  -1.7077  -1.6916  -1.6871
    -1.6743  -1.6664  -1.6527  -1.6442  -1.6308  -1.6246  -1.6214  -1.6051
    -1.5651  -1.5501  -1.5383  -1.5284  -1.5100  -1.5004  -1.4948  -1.4549
    -1.4256  -1.4145  -1.3948  -1.3890  -1.3445  -1.3350  -1.3290  -1.3168
    -1.3090  -1.3023  -1.2633  -1.2579  -1.2407  -1.2244  -1.2127  -1.1928
    -1.1672  -1.1556  -1.1359  -1.1182  -1.1002  -1.0856  -1.0769  -1.0569
    -1.0367  -1.0294  -1.0108  -1.0055  -0.9940  -0.9846  -0.9617  -0.9381
    -0.9273  -0.9139  -0.8931  -0.8756  -0.7952  -0.7824  -0.7659  -0.6620
    -0.5561  -0.5164  -0.3447  -0.2824  -0.1985  -0.1757  -0.0813  -0.0422
     0.1011   0.2095   0.3251   0.3945   0.5351   0.5614   0.6973   0.7621
     0.8302   0.8857

          k = 0.2500-0.3536 0.0000 (128397 PWs)   bands (ev):

   -89.0705 -89.0248 -89.0174 -88.9887 -88.9867 -88.9828 -88.9814 -88.9786
   -88.9759 -88.9711 -88.9682 -88.9660 -88.9648 -88.9632 -88.9583 -88.9577
   -88.9573 -88.9542 -88.9536 -88.9534 -88.9521 -88.9484 -88.9477 -88.9433
   -88.9413 -88.9380 -88.9373 -88.9360 -88.9335 -88.9284 -88.9097 -88.9078
   -88.9006 -88.8980 -88.8887 -88.8500 -88.8466 -88.8418 -88.8371 -88.8332
   -88.8291 -88.8278 -88.8225 -88.8197 -88.8166 -88.8152 -88.8141 -88.8130
   -88.8115 -88.8079 -88.8061 -88.8054 -88.8047 -88.8030 -88.8004 -88.7968
   -88.7955 -88.7932 -88.7909 -88.7845 -88.7790 -88.7748 -88.7697 -88.7679
   -55.2471 -55.1977 -55.1899 -55.1876 -55.1819 -55.1765 -55.1749 -55.1720
   -55.1692 -55.1673 -55.1654 -55.1626 -55.1596 -55.1590 -55.1585 -55.1556
   -55.1537 -55.1512 -55.1509 -55.1501 -55.1483 -55.1464 -55.1436 -55.1426
   -55.1376 -55.1354 -55.1319 -55.1295 -55.1283 -55.1271 -55.1242 -55.1200
   -55.1176 -55.1159 -55.1012 -55.0978 -55.0915 -55.0894 -55.0810 -55.0803
   -55.0777 -55.0764 -55.0739 -55.0729 -55.0696 -55.0659 -55.0653 -55.0620
   -55.0561 -55.0452 -55.0391 -55.0361 -55.0310 -55.0270 -55.0260 -55.0199
   -55.0176 -55.0154 -55.0065 -55.0059 -55.0054 -55.0044 -55.0013 -54.9984
   -54.9976 -54.9960 -54.9936 -54.9918 -54.9887 -54.9879 -54.9872 -54.9843
   -54.9828 -54.9780 -54.9749 -54.9737 -54.9720 -54.9704 -54.9659 -54.9638
   -54.9628 -54.9546 -54.9524 -54.9498 -54.9463 -54.9444 -54.9425 -54.9414
   -54.9362 -54.9354 -54.9337 -54.9256 -54.9218 -54.9204 -54.9181 -54.9103
   -54.9099 -54.9091 -54.9087 -54.9064 -54.9043 -54.9013 -54.8999 -54.8986
   -54.8971 -54.8951 -54.8941 -54.8895 -54.8871 -54.8854 -54.8832 -54.8809
   -54.8798 -54.8782 -54.8775 -54.8749 -54.8716 -54.8705 -54.8699 -54.8672
   -54.8648 -54.8610 -54.8605 -54.8568 -54.8554 -54.8549 -54.8521 -54.8497
   -54.8475 -54.8442 -54.8413 -54.8380 -54.8343 -54.8330 -54.8292 -54.8275
   -54.8263 -54.8225 -54.8206 -54.8185 -54.8171 -54.8155 -54.8147 -54.8128
   -54.8111 -54.8063 -54.8049 -54.8028 -54.7993 -54.7989 -54.7961 -54.7955
   -54.7937 -54.7918 -54.7910 -54.7903 -54.7901 -54.7879 -54.7870 -54.7835
   -54.7807 -54.7781 -54.7749 -54.7714 -54.7691 -54.7670 -54.7618 -54.7586
   -54.7563 -54.7551 -54.7514 -54.7479 -54.7441 -54.7427 -54.7421 -54.7391
   -54.7359 -54.7343 -54.7307 -54.7291 -54.7272 -54.7262 -54.7219 -54.7211
   -54.7188 -54.7179 -54.7150 -54.7117 -54.7072 -54.7051 -54.6358 -54.6348
   -16.4261  -8.4857  -7.9785  -7.8921  -7.5163  -7.2612  -7.1589  -6.9573
    -6.6523  -6.6086  -6.3796  -6.3264  -6.3018  -6.1926  -6.0437  -5.9253
    -5.7284  -5.5276  -5.5098  -5.4931  -5.4697  -5.4688  -5.4285  -5.4240
    -5.3886  -5.3637  -5.3221  -5.3085  -5.2835  -5.2779  -5.2492  -5.2417
    -5.1946  -5.1373  -5.0836  -5.0790  -5.0429  -5.0277  -5.0162  -4.9987
    -4.9862  -4.9771  -4.9640  -4.9376  -4.9242  -4.8970  -4.8723  -4.8361
    -4.8191  -4.7950  -4.7829  -4.7421  -4.7208  -4.7155  -4.6709  -4.6460
    -4.6172  -4.6042  -4.5877  -4.5717  -4.5627  -4.5545  -4.5335  -4.5109
    -4.4924  -4.4854  -4.4400  -4.4357  -4.4088  -4.3441  -4.3387  -4.3315
    -4.2606  -4.2548  -4.2283  -4.2191  -4.1466  -4.1421  -4.1314  -4.1269
    -4.1072  -4.0953  -4.0864  -4.0771  -4.0710  -4.0689  -4.0591  -4.0392
    -4.0369  -4.0270  -4.0146  -4.0134  -4.0089  -3.9972  -3.9793  -3.9508
    -3.9416  -3.9283  -3.9212  -3.9145  -3.9019  -3.8993  -3.8987  -3.8821
    -3.8709  -3.8610  -3.8428  -3.8245  -3.8056  -3.7920  -3.7755  -3.7577
    -3.7468  -3.7422  -3.7375  -3.7293  -3.7257  -3.7132  -3.7080  -3.7003
    -3.6841  -3.6823  -3.6723  -3.6439  -3.6275  -3.6082  -3.5854  -3.5602
    -3.5456  -3.5414  -3.5320  -3.4867  -3.4738  -3.4618  -3.4417  -3.4282
    -3.4152  -3.3999  -3.3975  -3.3911  -3.3885  -3.3795  -3.3734  -3.3691
[...]
     1.4941   1.5301   1.5356   1.5436   1.5663   1.5819   1.5860   1.6006
     1.6216   1.6473   1.6655   1.7031   1.7348   1.7726   1.8014   1.8565
     1.9034   1.9444   2.0876   2.0979   2.1215   2.1588   2.2740   2.3255
     2.3639   2.3889

          k =-0.5000-0.3536 0.0000 (128560 PWs)   bands (ev):

   -86.6387 -86.6384 -86.2216 -86.2209 -86.1024 -86.1015 -86.0751 -86.0566
   -86.0488 -85.9819 -85.9786 -85.9680 -85.9626 -85.9569 -85.9528 -85.9496
   -85.9426 -85.9404 -85.9377 -85.9314 -85.9307 -85.9284 -85.9254 -85.9243
   -85.9219 -85.9192 -85.9180 -85.9133 -85.9131 -85.9085 -85.9075 -85.9074
   -85.9070 -85.9056 -85.9039 -85.8966 -85.8945 -85.8934 -85.8870 -85.8868
   -85.8856 -85.8848 -85.8838 -85.8830 -85.8819 -85.8798 -85.8791 -85.8762
   -85.8703 -85.8640 -85.8639 -85.8620 -85.8618 -85.8595 -85.8593 -85.8584
   -85.8561 -85.8556 -85.8556 -85.8524 -85.8403 -85.8373 -85.8354 -85.8338
   -53.1788 -53.1707 -52.6407 -52.6285 -52.5667 -52.5562 -52.5275 -52.5226
   -52.3492 -52.3276 -52.3027 -52.2995 -52.2994 -52.2937 -52.2922 -52.2856
   -52.2617 -52.2598 -52.2485 -52.2468 -52.2456 -52.2386 -52.2284 -52.2266
   -52.2201 -52.2192 -52.2158 -52.2132 -52.2127 -52.2049 -52.2043 -52.2035
   -52.2013 -52.1999 -52.1944 -52.1890 -52.1888 -52.1813 -52.1800 -52.1777
   -52.1767 -52.1754 -52.1699 -52.1667 -52.1660 -52.1623 -52.1609 -52.1593
   -52.1585 -52.1544 -52.1504 -52.1460 -52.1422 -52.1380 -52.1368 -52.1368
   -52.1351 -52.1314 -52.1308 -52.1306 -52.1294 -52.1279 -52.1279 -52.1252
   -52.1237 -52.1223 -52.1217 -52.1200 -52.1180 -52.1132 -52.1099 -52.1084
   -52.1066 -52.1038 -52.0979 -52.0897 -52.0826 -52.0807 -52.0771 -52.0744
   -52.0681 -52.0678 -52.0616 -52.0596 -52.0570 -52.0569 -52.0409 -52.0396
   -52.0387 -52.0357 -52.0355 -52.0311 -52.0300 -52.0242 -52.0228 -52.0225
   -52.0200 -52.0156 -52.0122 -52.0109 -52.0086 -52.0065 -52.0042 -52.0015
   -52.0013 -51.9984 -51.9966 -51.9896 -51.9869 -51.9863 -51.9862 -51.9846
   -51.9823 -51.9809 -51.9800 -51.9779 -51.9776 -51.9771 -51.9739 -51.9721
   -51.9684 -51.9656 -51.9636 -51.9624 -51.9576 -51.9544 -51.9525 -51.9513
   -51.9493 -51.9486 -51.9450 -51.9432 -51.9430 -51.9414 -51.9365 -51.9349
   -51.9308 -51.9288 -51.9286 -51.9241 -51.9234 -51.9232 -51.9225 -51.9217
   -51.9205 -51.9202 -51.9188 -51.9162 -51.9147 -51.9144 -51.9133 -51.9127
   -51.9117 -51.9097 -51.9076 -51.9069 -51.9052 -51.9043 -51.9025 -51.9019
   -51.8974 -51.8965 -51.8963 -51.8943 -51.8917 -51.8907 -51.8892 -51.8891
   -51.8880 -51.8874 -51.8873 -51.8869 -51.8841 -51.8827 -51.8826 -51.8820
   -51.8792 -51.8790 -51.8756 -51.8741 -51.8728 -51.8702 -51.8699 -51.8677
   -51.8667 -51.8648 -51.8631 -51.8610 -51.8578 -51.8571 -51.8536 -51.8513
   -16.5481  -8.0064  -7.9577  -7.4567  -7.4514  -7.0328  -6.9879  -6.8433
    -6.4601  -6.3304  -5.9684  -5.8661  -5.7636  -5.3543  -5.3007  -5.2861
    -5.1461  -4.9154  -4.6757  -4.5192  -4.5014  -4.4857  -4.4730  -4.4683
    -4.4021  -4.3962  -4.3666  -4.3203  -4.3053  -4.2312  -4.0656  -3.9470
    -3.9427  -3.9362  -3.9185  -3.8684  -3.8259  -3.7459  -3.5728  -3.4866
    -3.4816  -3.4726  -3.4401  -3.4283  -3.4131  -3.3748  -3.3445  -3.3136
    -3.3000  -3.2467  -3.1833  -3.1787  -3.1580  -3.1410  -3.1331  -3.1277
    -2.9468  -2.9349  -2.9103  -2.9088  -2.8847  -2.8532  -2.8148  -2.6862
    -2.6398  -2.6215  -2.6197  -2.5764  -2.5676  -2.5670  -2.4949  -2.4537
    -2.4383  -2.4193  -2.3889  -2.3817  -2.3690  -2.3530  -2.3478  -2.3359
    -2.3241  -2.3132  -2.2706  -2.2474  -2.2470  -2.2424  -2.2373  -2.2332
    -2.2075  -2.2022  -2.2017  -2.1676  -2.1593  -2.0626  -2.0311  -2.0305
    -2.0270  -2.0205  -1.9527  -1.9279  -1.9045  -1.8972  -1.8896  -1.8845
    -1.8708  -1.8657  -1.8654  -1.8564  -1.8177  -1.8055  -1.8039  -1.7979
    -1.7950  -1.7891  -1.7882  -1.7741  -1.7730  -1.7606  -1.7554  -1.7522
    -1.7421  -1.7323  -1.7204  -1.7194  -1.7141  -1.7140  -1.7022  -1.6931
    -1.6832  -1.6719  -1.6518  -1.6514  -1.6438  -1.6419  -1.6378  -1.6318
    -1.6206  -1.6153  -1.5983  -1.5950  -1.5548  -1.4737  -1.4360  -1.4229
    -1.4163  -1.4021  -1.3972  -1.3852  -1.3823  -1.3663  -1.3647  -1.3546
    -1.3462  -1.2873  -1.2426  -1.2310  -1.2124  -1.2087  -1.2073  -1.1907
    -1.1550  -1.1543  -1.1529  -1.1450  -1.1306  -1.1045  -1.0869  -1.0517
    -1.0421  -1.0041  -0.9916  -0.9333  -0.9187  -0.9139  -0.8738  -0.8587
    -0.8369  -0.8209  -0.8095  -0.7655  -0.7523  -0.7443  -0.7399  -0.7332
    -0.7288  -0.7159  -0.6997  -0.6973  -0.6541  -0.5198  -0.5027  -0.4905
    -0.3939  -0.3488  -0.3454  -0.2363  -0.2136  -0.1680  -0.1555  -0.1085
    -0.0819  -0.0792  -0.0700  -0.0338  -0.0001   0.0239   0.0290   0.0490
     0.0639   0.0901   0.1233   0.1504   0.1692   0.1707   0.1732   0.1944
     0.2600   0.2765   0.2830   0.2866   0.2906   0.3129   0.3582   0.3689
     0.3708   0.4081   0.4158   0.4168   0.4236   0.4305   0.4389   0.4519
     0.4621   0.4651   0.5085   0.5210   0.5254   0.5315   0.5513   0.5600
     0.5707   0.5858   0.5892   0.6066   0.6503   0.6581   0.7080   0.7112
     0.7237   0.7589   0.7592   0.7710   0.7746   0.7852   0.8133   0.8236
     0.8248   0.8421   0.8437   0.8512   0.8781   0.8802   0.8858   0.8996
     0.9013   0.9131   0.9156   0.9266   0.9303   0.9337   0.9509   0.9531
     0.9555   0.9840   0.9874   0.9895   0.9983   1.0075   1.0145   1.0168
     1.0173   1.0233   1.0285   1.0360   1.0523   1.0559   1.0660   1.0670
     1.0754   1.0920   1.0962   1.0988   1.1021   1.1077   1.1170   1.1180
     1.1185   1.1427   1.1526   1.1591   1.1656   1.1893   1.1981   1.2011
     1.2209   1.2238   1.2253   1.2340   1.2379   1.2477   1.2520   1.2848
     1.2855   1.2935   1.2943   1.3053   1.3091   1.3177   1.3187   1.3313
     1.3332   1.3343   1.3344   1.3408   1.3430   1.3492   1.3707   1.3752
     1.3824   1.3905   1.3938   1.4083   1.4174   1.4202   1.4462   1.4499
     1.4628   1.4664   1.4708   1.4968   1.5003   1.5100   1.5309   1.5825
     1.6644   1.7163   1.7197   1.7383   1.8333   1.8960   1.9182   1.9253
     1.9373   1.9439   1.9635   1.9656   1.9776   1.9892   2.0081   2.0305
     2.0357   2.0769

     the Fermi energy is    -0.8228 ev

!    total energy              =  -21093.84214249 Ry
     estimated scf accuracy    <          7.5E-11 Ry
     smearing contrib. (-TS)   =       0.00348541 Ry
     internal energy E=F+TS    =  -21093.84562790 Ry

     The total energy is F=E-TS. E is the sum of the following terms:
     one-electron contribution = -743217.66911511 Ry
     hartree contribution      =  371572.34788996 Ry
     xc contribution           =   -2234.30883859 Ry
     ewald contribution        =  357660.62900393 Ry
     Dispersion Correction     =      -1.39502571 Ry
     one-center paw contrib.   =   -4873.44954238 Ry

     total magnetization       =   160.64 Bohr mag/cell
     absolute magnetization    =   167.71 Bohr mag/cell

     convergence has been achieved in  18 iterations

     negative rho (up, down):  1.167E-02 1.498E-02

     Forces acting on atoms (cartesian axes, Ry/au):

     atom    1 type  1   force =    -0.00000266    0.00073464    0.00838188
     atom    2 type  1   force =     0.00251900   -0.00380634   -0.01479274
     atom    3 type  1   force =    -0.00080159   -0.00073812    0.00815636
     atom    4 type  1   force =     0.00089515    0.00120747   -0.00793203
     atom    5 type  1   force =    -0.00001752    0.00000884   -0.00004331
     atom    6 type  1   force =     0.00001521    0.00002712    0.00005385
     atom    7 type  1   force =     0.00003947    0.00005151   -0.00006654
     atom    8 type  1   force =    -0.00002188   -0.00000555    0.00001495
     atom    9 type  1   force =     0.00001921    0.00007258    0.00762249
     atom   10 type  1   force =    -0.00067625   -0.00048938    0.00841875
     atom   11 type  1   force =     0.00093903   -0.00034783   -0.00818043
     atom   12 type  1   force =     0.00026472    0.00025644   -0.01261407
     atom   13 type  1   force =     0.00000453   -0.00000779   -0.00005087
     atom   14 type  1   force =     0.00001410    0.00000782   -0.00007090
     atom   15 type  1   force =    -0.00005277   -0.00001977    0.00007006
     atom   16 type  1   force =    -0.00001018   -0.00001000    0.00000374
     atom   17 type  1   force =    -0.00095141   -0.00045322    0.00810734
     atom   18 type  1   force =     0.00145112    0.00043316   -0.00790294
     atom   19 type  1   force =     0.00066261    0.00068124    0.00815544
     atom   20 type  1   force =    -0.00106748    0.00132987   -0.00228398
     atom   21 type  1   force =     0.00006120    0.00002510   -0.00006585
     atom   22 type  1   force =    -0.00000714   -0.00001328    0.00002874
     atom   23 type  1   force =    -0.00002807   -0.00003372   -0.00006097
     atom   24 type  1   force =     0.00000923    0.00001738   -0.00001946
     atom   25 type  1   force =     0.00007548    0.00002605    0.00724375
     atom   26 type  1   force =    -0.00101732    0.00127699    0.00794685
     atom   27 type  1   force =     0.00144685    0.00095112   -0.00342521
     atom   28 type  1   force =     0.00022634   -0.00095272   -0.00766283
     atom   29 type  1   force =     0.00001087    0.00000762   -0.00010756
     atom   30 type  1   force =     0.00003969   -0.00001977   -0.00009544
     atom   31 type  1   force =     0.00000496    0.00001336    0.00002148
     atom   32 type  1   force =     0.00010139    0.00005538    0.00001001
     atom   33 type  1   force =     0.00016753   -0.00089521    0.00826194
     atom   34 type  1   force =    -0.00074698   -0.00123795   -0.00811528
     atom   35 type  1   force =     0.00072666   -0.00024380    0.00844068
     atom   36 type  1   force =    -0.00281045    0.00372102   -0.01480336
     atom   37 type  1   force =     0.00001021    0.00002960   -0.00003971
     atom   38 type  1   force =     0.00002398   -0.00002787    0.00003887
     atom   39 type  1   force =     0.00000701   -0.00001763   -0.00004581
     atom   40 type  1   force =     0.00002613    0.00000122    0.00005230
     atom   41 type  1   force =     0.00017087    0.00008832    0.00898521
     atom   42 type  1   force =     0.00086562   -0.00138599    0.00801162
     atom   43 type  1   force =    -0.00077449   -0.00045427   -0.01226521
     atom   44 type  1   force =    -0.00086538    0.00053319   -0.00759191
     atom   45 type  1   force =     0.00000973    0.00000647   -0.00006465
     atom   46 type  1   force =    -0.00000285    0.00004482   -0.00009271
     atom   47 type  1   force =     0.00004312    0.00002891    0.00006580
     atom   48 type  1   force =     0.00008828    0.00007016    0.00001214
     atom   49 type  1   force =     0.00086214    0.00043789    0.00821845
     atom   50 type  1   force =     0.00095646   -0.00156033   -0.00230056
     atom   51 type  1   force =    -0.00074857    0.00048198    0.00824275
     atom   52 type  1   force =    -0.00141837   -0.00027998   -0.00815012
     atom   53 type  1   force =    -0.00004072   -0.00001235   -0.00006444
     atom   54 type  1   force =     0.00002108    0.00000801   -0.00002006
     atom   55 type  1   force =     0.00003395   -0.00000264   -0.00003993
     atom   56 type  1   force =    -0.00001815    0.00002635    0.00003147
     atom   57 type  1   force =     0.00007828   -0.00004572    0.00761732
     atom   58 type  1   force =     0.00050120    0.00034389    0.00840119
     atom   59 type  1   force =    -0.00001114    0.00103308   -0.00812632
     atom   60 type  1   force =    -0.00132426   -0.00097920   -0.00337805
     atom   61 type  1   force =    -0.00000638    0.00001178   -0.00004968
     atom   62 type  1   force =    -0.00000042   -0.00000236   -0.00004841
     atom   63 type  1   force =    -0.00003402   -0.00003686    0.00006894
     atom   64 type  1   force =     0.00002682    0.00001501    0.00001841
     atom   65 type  2   force =     0.00000049    0.00000238    0.00009186
     atom   66 type  3   force =     0.00003670    0.00001189    0.00020600

     Total force =     0.000457     Total SCF correction =     0.000021
     Energy error            =      4.2E-07
     Gradient error          =      2.1E-04

     bfgs converged in  12 scf cycles and  11 bfgs steps
     (criteria: energy <  7.3E-07 Ry, force <  3.9E-04 Ry/Bohr)

     End of BFGS Geometry Optimization

     Final energy   =  -21093.8421424927 Ry

     File ./Fe_N_H_paper_480c_ESM_p5.bfgs deleted, as requested
Begin final coordinates

ATOMIC_POSITIONS (angstrom)
Fe            1.6549129530        1.1702001330        0.0000000000    0   0   0
Fe            0.0000000000        0.0000000000        2.0269842320    0   0   0
Fe            4.9647388580        3.5106003990        0.0000000000    0   0   0
Fe            3.3098259060        2.3404002660        2.0269842320    0   0   0
Fe            1.6804800273        1.1665108026        4.0296148636
Fe            3.3347651270        9.3260794967        6.0301966318
Fe            4.9596497634        3.5351189997        4.0467011053
Fe            3.3966555224        2.3353030842        6.0339129347
Fe            2.4823638580        3.5106003990        0.0000000000    0   0   0
Fe            4.1372879530        1.1702001330        0.0000000000    0   0   0
Fe            0.8274509060        2.3404002660        2.0269842320    0   0   0
Fe            2.4823750000        0.0000000000        2.0269842320    0   0   0
Fe            2.4829526253        3.5096155143        4.0521699401
Fe            4.1609970738        1.1871971982        4.0353971800
Fe            0.9180911153        2.3043931671        6.0314959502
Fe            2.5136831581        0.0220992359        6.0288606654
Fe            6.6196629530        1.1702001330        0.0000000000    0   0   0
Fe            4.9647500000        0.0000000000        2.0269842320    0   0   0
Fe            9.9294888580        3.5106003990        0.0000000000    0   0   0
Fe            8.2745759060        2.3404002660        2.0269842320    0   0   0
Fe            6.6408248686        1.1569897385        4.0465528857
Fe            4.9888814673        0.0835986043        6.0342160628
Fe            9.9329312216        3.4849024872        4.0439255769
Fe            8.4572960356        2.0819907284        5.9931634357
Fe            7.4471138580        3.5106003990        0.0000000000    0   0   0
Fe            9.1020379530        1.1702001330        0.0000000000    0   0   0
Fe            5.7922009060        2.3404002660        2.0269842320    0   0   0
Fe            7.4471250000        0.0000000000        2.0269842320    0   0   0
Fe            7.4462185842        3.5095887283        4.0618562416
Fe            9.1310488797        1.1263329202        4.0085677589
Fe            5.8830282032        2.4041654924        6.0141162725
Fe           10.7692207491        9.2654039298        6.0381573297
Fe            3.3098147640        5.8510006640        0.0000000000    0   0   0
Fe            1.6549018110        4.6808005310        2.0269842320    0   0   0
Fe            6.6196406700        8.1914009300        0.0000000000    0   0   0
Fe            4.9647277170        7.0212007970        2.0269842320    0   0   0
Fe            3.2841238040        5.8536089134        4.0330646475
Fe           11.5014714604        4.6768569744        6.0293366827
Fe            6.6247290523        8.2167348986        4.0297812437
Fe            4.9397225676        7.0563439747        6.0303468278
Fe            4.1372656700        8.1914009300        0.0000000000    0   0   0
Fe            5.7921897640        5.8510006640        0.0000000000    0   0   0
Fe            2.4823527170        7.0212007970        2.0269842320    0   0   0
Fe            4.1372768110        4.6808005310        2.0269842320    0   0   0
Fe            4.1357901453        8.1904112885        4.0164214736
Fe            5.7603957102        5.8930714506        4.0086466861
Fe           12.3685709081        6.9905349281        6.0316734837
Fe            4.0508507810        4.7245286742        6.0383312293
Fe            8.2745647640        5.8510006640        0.0000000000    0   0   0
Fe            6.6196518110        4.6808005310        2.0269842320    0   0   0
Fe           11.5843906700        8.1914009300        0.0000000000    0   0   0
Fe            9.9294777170        7.0212007970        2.0269842320    0   0   0
Fe            8.2511756082        5.8625922749        4.0440982627
Fe            6.4371408176        4.9388444094        5.9929891968
Fe           11.5783352857        8.1663425186        4.0329460659
Fe            9.8979470995        6.9446885596        6.0291160463
Fe            9.1020156700        8.1914009300        0.0000000000    0   0   0
Fe           10.7569397640        5.8510006640        0.0000000000    0   0   0
Fe            7.4471027170        7.0212007970        2.0269842320    0   0   0
Fe            9.1020268110        4.6808005310        2.0269842320    0   0   0
Fe            9.1011938240        8.1921889888        4.0521061424
Fe           10.7312127552        5.8330963405        4.0332629622
Fe            7.4431350595        7.1184030909        6.0316954895
Fe            9.0134488674        4.6178075296        6.0124080254
N             7.4485815397        3.5114134470        6.3594536471
H             4.6027075312        8.5205445816        6.9831594556
End final coordinates



     Writing output data file ./Fe_N_H_paper_480c_ESM_p5.save/

     init_run     :     30.19s CPU     31.40s WALL (       1 calls)
     electrons    :  29362.37s CPU  29891.16s WALL (      12 calls)
     update_pot   :     63.97s CPU     64.30s WALL (      11 calls)
     forces       :    213.88s CPU    217.20s WALL (      12 calls)

     Called by init_run:
     wfcinit      :     20.25s CPU     21.17s WALL (       1 calls)
     potinit      :      2.87s CPU      2.96s WALL (       1 calls)
     hinit0       :      5.16s CPU      5.26s WALL (       1 calls)

     Called by electrons:
     c_bands      :  26062.88s CPU  26492.27s WALL (     330 calls)
     sum_band     :   1586.67s CPU   1650.12s WALL (     330 calls)
     v_of_rho     :    279.82s CPU    282.90s WALL (     331 calls)
     newd         :     58.00s CPU     58.55s WALL (     331 calls)
     PAW_pot      :     62.35s CPU     62.88s WALL (     342 calls)
     mix_rho      :   1232.37s CPU   1252.91s WALL (     330 calls)

     Called by c_bands:
     init_us_2    :    142.08s CPU    152.06s WALL (    2052 calls)
     cegterg      :  21001.42s CPU  21286.02s WALL (     990 calls)

     Called by *egterg:
     cdiaghg      :   4956.25s CPU   4988.42s WALL (    6013 calls)
     h_psi        :   7051.15s CPU   7158.26s WALL (    6082 calls)
     s_psi        :   1831.91s CPU   1842.95s WALL (    6082 calls)
     g_psi        :     34.75s CPU     35.29s WALL (    5089 calls)

     Called by h_psi:
     h_psi:calbec :   2005.23s CPU   2017.23s WALL (    6082 calls)
     vloc_psi     :   3154.84s CPU   3189.27s WALL (    6082 calls)
     add_vuspsi   :   1832.70s CPU   1843.60s WALL (    6082 calls)

     General routines
     calbec       :   2883.71s CPU   2900.92s WALL (    7249 calls)
     fft          :    185.80s CPU    187.64s WALL (    8464 calls)
     ffts         :    555.38s CPU    559.78s WALL (  209489 calls)
     fftw         :   3467.72s CPU   3506.17s WALL ( 3814804 calls)
     interpolate  :     21.83s CPU     22.03s WALL (     662 calls)
     davcio       :      1.46s CPU    156.34s WALL (    9071 calls)

     Parallel routines
     fft_scatt_xy :    488.08s CPU    492.96s WALL ( 4032757 calls)
     fft_scatt_yz :   1986.85s CPU   2008.79s WALL ( 4032757 calls)

     PWSCF        :      8h15m CPU      8h24m WALL


   This run was terminated on:   3:53:45  17Jun2022            

=------------------------------------------------------------------------------=
   JOB DONE.
=------------------------------------------------------------------------------=
