     Message from routine get_command_line:
     unexpected argument # 4     :-in

     Program PWSCF v.6.7MaX starts on  5Jul2022 at 21:59: 2 

     This program is part of the open-source Quantum ESPRESSO suite
     for quantum simulation of materials; please cite
         "P. Giannozzi et al., J. Phys.:Condens. Matter 21 395502 (2009);
         "P. Giannozzi et al., J. Phys.:Condens. Matter 29 465901 (2017);
          URL http://www.quantum-espresso.org", 
     in publications or presentations arising from this work. More details at
     http://www.quantum-espresso.org/quote

     Parallel version (MPI), running on   120 processors

     MPI processes distributed on     1 nodes
     K-points division:     npool     =       8
     R & G space division:  proc/nbgrp/npool/nimage =      15
     Waiting for input...
     Reading input from standard input
Warning: card &CELL ignored
Warning: card / ignored

     Current dimensions of program PWSCF are:
     Max number of different atomic species (ntypx) = 10
     Max number of k-points (npk) =  40000
     Max angular momentum in pseudopotentials (lmaxx) =  3

     IMPORTANT: XC functional enforced from input :
     Exchange-correlation= PBE
                           (   1   4   3   4   0   0   0)
     Any further DFT definition will be discarded
     Please, verify this is what you really want


     -------------------------------------------------
     Parameters for Dispersion (Grimme-D2) Correction:
     -------------------------------------------------
       atom      VdW radius       C_6     

        N          2.640         42.670

     Subspace diagonalization in iterative solution of the eigenvalue problem:
     one sub-group per band group will be used
     scalapack distributed-memory algorithm (size of sub-group:  3*  3 procs)


     Parallelization info
     --------------------
     sticks:   dense  smooth     PW     G-vecs:    dense   smooth      PW
     Min        3636    1818    468               639190   225950   29545
     Max        3637    1819    470               639197   225953   29547
     Sum       54553   27281   7033              9587919  3389267  443191



     bravais-lattice index     =            0
     lattice parameter (alat)  =      37.7945  a.u.
     unit-cell volume          =   53986.6760 (a.u.)^3
     number of atoms/cell      =            2
     number of atomic types    =            1
     number of electrons       =        10.00
     number of Kohn-Sham states=            9
     kinetic-energy cutoff     =      60.0000  Ry
     charge density cutoff     =     480.0000  Ry
     scf convergence threshold =      1.0E-08
     mixing beta               =       0.2000
     number of iterations used =           10  local-TF  mixing
     energy convergence thresh.=      7.3E-07
     force convergence thresh. =      3.9E-04
     Exchange-correlation= PBE
                           (   1   4   3   4   0   0   0)
     nstep                     =           50


     celldm(1)=  37.794522  celldm(2)=   0.000000  celldm(3)=   0.000000
     celldm(4)=   0.000000  celldm(5)=   0.000000  celldm(6)=   0.000000

     crystal axes: (cart. coord. in units of alat)
               a(1) = (   1.000000   0.000000   0.000000 )  
               a(2) = (   0.000000   1.000000   0.000000 )  
               a(3) = (   0.000000   0.000000   1.000000 )  

     reciprocal axes: (cart. coord. in units 2 pi/alat)
               b(1) = (  1.000000  0.000000  0.000000 )  
               b(2) = (  0.000000  1.000000  0.000000 )  
               b(3) = (  0.000000  0.000000  1.000000 )  


     PseudoPot. # 1 for N  read from file:
     ../../SSSP/N.pbe-n-radius_5.UPF
     MD5 check sum: 16739722b17309cd8fe442a2ace49922
     Pseudo is Ultrasoft + core correction, Zval =  5.0
     Generated using "atomic" code by A. Dal Corso  v.5.1
     Using radial grid of 1085 points,  4 beta functions with: 
                l(1) =   0
                l(2) =   0
                l(3) =   1
                l(4) =   1
     Q(r) pseudized with 0 coefficients 


     atomic species   valence    mass     pseudopotential
        N              5.00    14.00700     N ( 1.00)

     Starting magnetic structure 
     atomic species   magnetization
        N            0.100

     No symmetry found



   Cartesian axes

     site n.     atom                  positions (alat units)
         1           N   tau(   1) = (   0.5000000   0.5000000   0.5000000  )
         2           N   tau(   2) = (   0.5000000   0.5000000   0.5565000  )

     number of k points=    10  Methfessel-Paxton smearing, width (Ry)=  0.0100
                       cart. coord. in units 2pi/alat
        k(    1) = (   0.0000000   0.0000000   0.0000000), wk =   0.0625000
        k(    2) = (   0.0000000   0.2500000   0.0000000), wk =   0.1250000
        k(    3) = (   0.0000000  -0.5000000   0.0000000), wk =   0.0625000
        k(    4) = (   0.2500000   0.0000000   0.0000000), wk =   0.1250000
        k(    5) = (   0.2500000   0.2500000   0.0000000), wk =   0.1250000
        k(    6) = (   0.2500000  -0.5000000   0.0000000), wk =   0.1250000
        k(    7) = (   0.2500000  -0.2500000   0.0000000), wk =   0.1250000
        k(    8) = (  -0.5000000   0.0000000   0.0000000), wk =   0.0625000
        k(    9) = (  -0.5000000   0.2500000   0.0000000), wk =   0.1250000
        k(   10) = (  -0.5000000  -0.5000000   0.0000000), wk =   0.0625000

     Dense  grid:  9587919 G-vectors     FFT dimensions: ( 270, 270, 270)

     Smooth grid:  3389267 G-vectors     FFT dimensions: ( 192, 192, 192)

     Estimated max dynamical RAM per process >     564.02 MB

     Estimated total dynamical RAM >      66.10 GB
     Generating pointlists ...
     new r_m :   0.0233 (alat units)  0.8808 (a.u.) for type    1

     Initial potential from superposition of free atoms

     starting charge    9.99999, renormalised to   10.00000

     negative rho (up, down):  1.327E-04 1.086E-04
     Starting wfcs are    8 randomized atomic wfcs +    1 random wfcs

     total cpu time spent up to now is       22.6 secs

     Self-consistent Calculation

     iteration #  1     ecut=    60.00 Ry     beta= 0.20
     Davidson diagonalization with overlap
     c_bands:  2 eigenvalues not converged
     c_bands:  2 eigenvalues not converged
     c_bands:  1 eigenvalues not converged
     ethr =  1.00E-04,  avg # of iterations = 20.0

     negative rho (up, down):  7.014E-08 4.279E-08

     total cpu time spent up to now is      618.4 secs

     total energy              =     -40.41078718 Ry
     estimated scf accuracy    <       0.13599923 Ry

     total magnetization       =     0.00 Bohr mag/cell
     absolute magnetization    =     0.06 Bohr mag/cell

     iteration #  2     ecut=    60.00 Ry     beta= 0.20
     Davidson diagonalization with overlap
     ethr =  1.36E-03,  avg # of iterations =  1.0

     negative rho (up, down):  1.331E-07 1.627E-07

     total cpu time spent up to now is      781.9 secs

     total energy              =     -40.36788894 Ry
     estimated scf accuracy    <       0.09812215 Ry

     total magnetization       =     0.00 Bohr mag/cell
     absolute magnetization    =     0.05 Bohr mag/cell

     iteration #  3     ecut=    60.00 Ry     beta= 0.20
     Davidson diagonalization with overlap
     ethr =  9.81E-04,  avg # of iterations =  2.0

     total cpu time spent up to now is      932.1 secs

     total energy              =     -40.38164585 Ry
     estimated scf accuracy    <       0.00412494 Ry

     total magnetization       =    -0.00 Bohr mag/cell
     absolute magnetization    =     0.03 Bohr mag/cell

     iteration #  4     ecut=    60.00 Ry     beta= 0.20
     Davidson diagonalization with overlap
     ethr =  4.12E-05,  avg # of iterations =  7.1

     negative rho (up, down):  7.362E-10 1.170E-08

     total cpu time spent up to now is     1088.0 secs

     total energy              =     -40.38121393 Ry
     estimated scf accuracy    <       0.00342543 Ry

     total magnetization       =    -0.00 Bohr mag/cell
     absolute magnetization    =     0.00 Bohr mag/cell

     iteration #  5     ecut=    60.00 Ry     beta= 0.20
     Davidson diagonalization with overlap
     ethr =  3.43E-05,  avg # of iterations =  6.3

     negative rho (up, down):  2.497E-06 5.947E-06

     total cpu time spent up to now is     1266.1 secs

     total energy              =     -40.38117199 Ry
     estimated scf accuracy    <       0.00119761 Ry

     total magnetization       =    -0.00 Bohr mag/cell
     absolute magnetization    =     0.00 Bohr mag/cell

     iteration #  6     ecut=    60.00 Ry     beta= 0.20
     Davidson diagonalization with overlap
     ethr =  1.20E-05,  avg # of iterations =  6.8

     negative rho (up, down):  1.049E-02 1.019E-02

     total cpu time spent up to now is     1550.7 secs

     total energy              =     -40.38107307 Ry
     estimated scf accuracy    <       0.00090435 Ry

     total magnetization       =    -0.00 Bohr mag/cell
     absolute magnetization    =     0.00 Bohr mag/cell

     iteration #  7     ecut=    60.00 Ry     beta= 0.20
     Davidson diagonalization with overlap
     ethr =  9.04E-06,  avg # of iterations =  5.8

     negative rho (up, down):  1.113E-02 1.088E-02

     total cpu time spent up to now is     1798.2 secs

     total energy              =     -40.38118396 Ry
     estimated scf accuracy    <       0.00019444 Ry

     total magnetization       =     0.00 Bohr mag/cell
     absolute magnetization    =     0.01 Bohr mag/cell

     iteration #  8     ecut=    60.00 Ry     beta= 0.20
     Davidson diagonalization with overlap
     ethr =  1.94E-06,  avg # of iterations =  5.7

     negative rho (up, down):  7.681E-03 7.695E-03

     total cpu time spent up to now is     2113.8 secs

     total energy              =     -40.38125796 Ry
     estimated scf accuracy    <       0.00015225 Ry

     total magnetization       =    -0.00 Bohr mag/cell
     absolute magnetization    =     0.01 Bohr mag/cell

     iteration #  9     ecut=    60.00 Ry     beta= 0.20
     Davidson diagonalization with overlap
     ethr =  1.52E-06,  avg # of iterations = 11.5

     negative rho (up, down):  6.867E-03 6.877E-03

     total cpu time spent up to now is     2392.7 secs

     total energy              =     -40.38126939 Ry
     estimated scf accuracy    <       0.00001457 Ry

     total magnetization       =     0.00 Bohr mag/cell
     absolute magnetization    =     0.00 Bohr mag/cell

     iteration # 10     ecut=    60.00 Ry     beta= 0.20
     Davidson diagonalization with overlap
     ethr =  1.46E-07,  avg # of iterations =  1.8

     negative rho (up, down):  1.708E-03 1.713E-03

     total cpu time spent up to now is     2872.6 secs

     total energy              =     -40.38126011 Ry
     estimated scf accuracy    <       0.00001152 Ry

     total magnetization       =    -0.00 Bohr mag/cell
     absolute magnetization    =     0.00 Bohr mag/cell

     iteration # 11     ecut=    60.00 Ry     beta= 0.20
     Davidson diagonalization with overlap
     ethr =  1.15E-07,  avg # of iterations = 10.1

     negative rho (up, down):  1.488E-03 1.491E-03

     total cpu time spent up to now is     3437.4 secs

     total energy              =     -40.38126309 Ry
     estimated scf accuracy    <       0.00000096 Ry

     total magnetization       =    -0.00 Bohr mag/cell
     absolute magnetization    =     0.00 Bohr mag/cell

     iteration # 12     ecut=    60.00 Ry     beta= 0.20
     Davidson diagonalization with overlap
     ethr =  9.62E-09,  avg # of iterations =  5.8

     negative rho (up, down):  4.031E-04 4.029E-04

     total cpu time spent up to now is     3818.8 secs

     total energy              =     -40.38127417 Ry
     estimated scf accuracy    <       0.00000052 Ry

     total magnetization       =     0.00 Bohr mag/cell
     absolute magnetization    =     0.00 Bohr mag/cell

     iteration # 13     ecut=    60.00 Ry     beta= 0.20
     Davidson diagonalization with overlap
     ethr =  5.21E-09,  avg # of iterations =  9.6

     negative rho (up, down):  3.142E-04 3.134E-04

     total cpu time spent up to now is     4008.9 secs

     total energy              =     -40.38127596 Ry
     estimated scf accuracy    <       0.00000005 Ry

     total magnetization       =    -0.00 Bohr mag/cell
     absolute magnetization    =     0.00 Bohr mag/cell

     iteration # 14     ecut=    60.00 Ry     beta= 0.20
     Davidson diagonalization with overlap
     ethr =  4.93E-10,  avg # of iterations =  4.1

     negative rho (up, down):  2.782E-04 2.773E-04

     total cpu time spent up to now is     4304.0 secs

     total energy              =     -40.38127638 Ry
     estimated scf accuracy    <       0.00000003 Ry

     total magnetization       =    -0.00 Bohr mag/cell
     absolute magnetization    =     0.00 Bohr mag/cell

     iteration # 15     ecut=    60.00 Ry     beta= 0.20
     Davidson diagonalization with overlap
     ethr =  2.98E-10,  avg # of iterations =  1.8

     negative rho (up, down):  2.733E-04 2.733E-04

     Magnetic moment per site:
     atom:    1    charge:    1.6819    magn:    0.0000    constr:    0.0000
     atom:    2    charge:    1.6817    magn:    0.0000    constr:    0.0000

     total cpu time spent up to now is     4318.8 secs

     End of self-consistent calculation

 ------ SPIN UP ------------


          k = 0.0000 0.0000 0.0000 (423701 PWs)   bands (ev):

   -27.8693 -13.6947 -11.3915 -11.3915 -10.1964  -2.3315  -2.3315  -0.2232
     0.0581

          k = 0.0000 0.2500 0.0000 (423725 PWs)   bands (ev):

   -27.8693 -13.6947 -11.3915 -11.3915 -10.1964  -2.3315  -2.3315  -0.2056
     0.0006

          k = 0.0000-0.5000 0.0000 (423542 PWs)   bands (ev):

   -27.8693 -13.6947 -11.3915 -11.3914 -10.1964  -2.3315  -2.3315  -0.1776
    -0.0633

          k = 0.2500 0.0000 0.0000 (423725 PWs)   bands (ev):

   -27.8693 -13.6947 -11.3915 -11.3915 -10.1964  -2.3315  -2.3315  -0.2056
     0.0006

          k = 0.2500 0.2500 0.0000 (423766 PWs)   bands (ev):

   -27.8693 -13.6947 -11.3915 -11.3915 -10.1964  -2.3315  -2.3315  -0.1887
     0.0019

          k = 0.2500-0.5000 0.0000 (423782 PWs)   bands (ev):

   -27.8693 -13.6947 -11.3915 -11.3915 -10.1964  -2.3315  -2.3315  -0.1632
    -0.0397

          k = 0.2500-0.2500 0.0000 (423766 PWs)   bands (ev):

   -27.8693 -13.6947 -11.3915 -11.3915 -10.1964  -2.3315  -2.3315  -0.1887
     0.0019

          k =-0.5000 0.0000 0.0000 (423542 PWs)   bands (ev):

   -27.8693 -13.6947 -11.3915 -11.3914 -10.1964  -2.3315  -2.3315  -0.1776
    -0.0633

          k =-0.5000 0.2500 0.0000 (423782 PWs)   bands (ev):

   -27.8693 -13.6947 -11.3915 -11.3915 -10.1964  -2.3315  -2.3315  -0.1631
    -0.0398

          k =-0.5000-0.5000 0.0000 (423708 PWs)   bands (ev):

   -27.8693 -13.6947 -11.3915 -11.3915 -10.1964  -2.3315  -2.3315  -0.1429
     0.0429

 ------ SPIN DOWN ----------


          k = 0.0000 0.0000 0.0000 (423701 PWs)   bands (ev):

   -27.8693 -13.6947 -11.3915 -11.3915 -10.1964  -2.3315  -2.3315  -0.2231
     0.0583

          k = 0.0000 0.2500 0.0000 (423725 PWs)   bands (ev):

   -27.8693 -13.6947 -11.3915 -11.3915 -10.1964  -2.3315  -2.3315  -0.2056
     0.0005

          k = 0.0000-0.5000 0.0000 (423542 PWs)   bands (ev):

   -27.8693 -13.6947 -11.3915 -11.3915 -10.1964  -2.3315  -2.3315  -0.1776
    -0.0633

          k = 0.2500 0.0000 0.0000 (423725 PWs)   bands (ev):

   -27.8693 -13.6947 -11.3915 -11.3915 -10.1964  -2.3315  -2.3315  -0.2056
     0.0005

          k = 0.2500 0.2500 0.0000 (423766 PWs)   bands (ev):

   -27.8693 -13.6947 -11.3915 -11.3915 -10.1964  -2.3315  -2.3315  -0.1887
     0.0019

          k = 0.2500-0.5000 0.0000 (423782 PWs)   bands (ev):

   -27.8693 -13.6947 -11.3915 -11.3915 -10.1964  -2.3315  -2.3315  -0.1632
    -0.0399

          k = 0.2500-0.2500 0.0000 (423766 PWs)   bands (ev):

   -27.8693 -13.6947 -11.3915 -11.3915 -10.1964  -2.3315  -2.3315  -0.1886
     0.0019

          k =-0.5000 0.0000 0.0000 (423542 PWs)   bands (ev):

   -27.8693 -13.6947 -11.3915 -11.3915 -10.1964  -2.3315  -2.3315  -0.1776
    -0.0632

          k =-0.5000 0.2500 0.0000 (423782 PWs)   bands (ev):

   -27.8693 -13.6947 -11.3915 -11.3915 -10.1964  -2.3315  -2.3315  -0.1632
    -0.0397

          k =-0.5000-0.5000 0.0000 (423708 PWs)   bands (ev):

   -27.8693 -13.6947 -11.3915 -11.3915 -10.1964  -2.3315  -2.3315  -0.1431
     0.0429

     the Fermi energy is    -6.7875 ev

!    total energy              =     -40.38127642 Ry
     estimated scf accuracy    <          7.2E-09 Ry
     smearing contrib. (-TS)   =       0.00000000 Ry
     internal energy E=F+TS    =     -40.38127642 Ry

     The total energy is F=E-TS. E is the sum of the following terms:
     one-electron contribution =     -93.52666940 Ry
     hartree contribution      =      47.68584972 Ry
     xc contribution           =     -10.45709620 Ry
     ewald contribution        =      15.91664191 Ry
     Dispersion Correction     =      -0.00000245 Ry

     total magnetization       =    -0.00 Bohr mag/cell
     absolute magnetization    =     0.00 Bohr mag/cell

     convergence has been achieved in  15 iterations

     negative rho (up, down):  2.733E-04 2.733E-04

     Forces acting on atoms (cartesian axes, Ry/au):

     atom    1 type  1   force =    -0.00000005   -0.00000011    0.12925739
     atom    2 type  1   force =     0.00000005    0.00000011   -0.12925739

     Total force =     0.129257     Total SCF correction =     0.000053

     BFGS Geometry Optimization
     Energy error            =      0.0E+00
     Gradient error          =      1.3E-01

     number of scf cycles    =   1
     number of bfgs steps    =   0

     energy   new            =     -40.3812764233 Ry

     new trust radius        =       0.1292573905 bohr
     new conv_thr            =       0.0000000100 Ry


ATOMIC_POSITIONS (angstrom)
N            10.0000000000       10.0000000000       10.0000000000    0   0   0
N            10.0000000247       10.0000000574       11.0615999346



     Writing output data file ./N2.save/
     NEW-OLD atomic charge density approx. for the potential

     negative rho (up, down):  2.176E-04 2.176E-04
     Generating pointlists ...
     new r_m :   0.0219 (alat units)  0.8275 (a.u.) for type    1

     total cpu time spent up to now is     4339.7 secs

     Self-consistent Calculation

     iteration #  1     ecut=    60.00 Ry     beta= 0.20
     Davidson diagonalization with overlap
     ethr =  1.00E-06,  avg # of iterations =  5.0

     negative rho (up, down):  2.259E-05 2.259E-05

     total cpu time spent up to now is     5008.5 secs

     total energy              =     -40.37580189 Ry
     estimated scf accuracy    <       0.01156149 Ry

     total magnetization       =    -0.00 Bohr mag/cell
     absolute magnetization    =     0.00 Bohr mag/cell

     iteration #  2     ecut=    60.00 Ry     beta= 0.20
     Davidson diagonalization with overlap
     ethr =  1.16E-04,  avg # of iterations =  1.0

     negative rho (up, down):  6.158E-05 6.158E-05

     total cpu time spent up to now is     5547.6 secs

     total energy              =     -40.37137303 Ry
     estimated scf accuracy    <       0.00817487 Ry

     total magnetization       =     0.00 Bohr mag/cell
     absolute magnetization    =     0.00 Bohr mag/cell

     iteration #  3     ecut=    60.00 Ry     beta= 0.20
     Davidson diagonalization with overlap
     ethr =  8.17E-05,  avg # of iterations =  2.0

     negative rho (up, down):  1.374E-05 1.374E-05

     total cpu time spent up to now is     6014.2 secs

     total energy              =     -40.37279202 Ry
     estimated scf accuracy    <       0.00030117 Ry

     total magnetization       =     0.00 Bohr mag/cell
     absolute magnetization    =     0.00 Bohr mag/cell

     iteration #  4     ecut=    60.00 Ry     beta= 0.20
     Davidson diagonalization with overlap
     ethr =  3.01E-06,  avg # of iterations =  6.5

     negative rho (up, down):  7.672E-06 7.673E-06

     total cpu time spent up to now is     6784.6 secs

     total energy              =     -40.37279556 Ry
     estimated scf accuracy    <       0.00022324 Ry

     total magnetization       =    -0.00 Bohr mag/cell
     absolute magnetization    =     0.00 Bohr mag/cell

     iteration #  5     ecut=    60.00 Ry     beta= 0.20
     Davidson diagonalization with overlap
     ethr =  2.23E-06,  avg # of iterations =  1.1

     negative rho (up, down):  6.668E-06 6.669E-06

     total cpu time spent up to now is     7383.7 secs

     total energy              =     -40.37277052 Ry
     estimated scf accuracy    <       0.00012649 Ry

     total magnetization       =     0.00 Bohr mag/cell
     absolute magnetization    =     0.00 Bohr mag/cell

     iteration #  6     ecut=    60.00 Ry     beta= 0.20
     Davidson diagonalization with overlap
     ethr =  1.26E-06,  avg # of iterations =  5.2

     negative rho (up, down):  2.630E-05 2.629E-05

     total cpu time spent up to now is     7700.2 secs

     total energy              =     -40.37276768 Ry
     estimated scf accuracy    <       0.00005990 Ry

     total magnetization       =    -0.00 Bohr mag/cell
     absolute magnetization    =     0.00 Bohr mag/cell

     iteration #  7     ecut=    60.00 Ry     beta= 0.20
     Davidson diagonalization with overlap
     ethr =  5.99E-07,  avg # of iterations =  7.8

     negative rho (up, down):  4.868E-04 4.868E-04

     total cpu time spent up to now is     8044.6 secs

     total energy              =     -40.37278029 Ry
     estimated scf accuracy    <       0.00003258 Ry

     total magnetization       =    -0.00 Bohr mag/cell
     absolute magnetization    =     0.00 Bohr mag/cell

     iteration #  8     ecut=    60.00 Ry     beta= 0.20
     Davidson diagonalization with overlap
     ethr =  3.26E-07,  avg # of iterations =  8.4

     negative rho (up, down):  1.156E-03 1.156E-03

     total cpu time spent up to now is     8233.9 secs

     total energy              =     -40.37280257 Ry
     estimated scf accuracy    <       0.00001928 Ry

     total magnetization       =     0.00 Bohr mag/cell
     absolute magnetization    =     0.00 Bohr mag/cell

     iteration #  9     ecut=    60.00 Ry     beta= 0.20
     Davidson diagonalization with overlap
     ethr =  1.93E-07,  avg # of iterations =  7.0

     negative rho (up, down):  7.267E-04 7.267E-04

     total cpu time spent up to now is     8567.6 secs

     total energy              =     -40.37281307 Ry
     estimated scf accuracy    <       0.00000398 Ry

     total magnetization       =    -0.00 Bohr mag/cell
     absolute magnetization    =     0.00 Bohr mag/cell

     iteration # 10     ecut=    60.00 Ry     beta= 0.20
     Davidson diagonalization with overlap
     ethr =  3.98E-08,  avg # of iterations =  1.0

     negative rho (up, down):  5.520E-04 5.520E-04

     total cpu time spent up to now is     8807.3 secs

     total energy              =     -40.37282796 Ry
     estimated scf accuracy    <       0.00000172 Ry

     total magnetization       =     0.00 Bohr mag/cell
     absolute magnetization    =     0.00 Bohr mag/cell

     iteration # 11     ecut=    60.00 Ry     beta= 0.20
     Davidson diagonalization with overlap
     ethr =  1.72E-08,  avg # of iterations =  8.9

     negative rho (up, down):  4.130E-04 4.130E-04

     total cpu time spent up to now is     9059.6 secs

     total energy              =     -40.37282975 Ry
     estimated scf accuracy    <       0.00000016 Ry

     total magnetization       =     0.00 Bohr mag/cell
     absolute magnetization    =     0.00 Bohr mag/cell

     iteration # 12     ecut=    60.00 Ry     beta= 0.20
     Davidson diagonalization with overlap
     ethr =  1.64E-09,  avg # of iterations =  2.0

     negative rho (up, down):  3.427E-04 3.427E-04

     total cpu time spent up to now is     9537.8 secs

     total energy              =     -40.37283054 Ry
     estimated scf accuracy    <       0.00000005 Ry

     total magnetization       =    -0.00 Bohr mag/cell
     absolute magnetization    =     0.00 Bohr mag/cell

     iteration # 13     ecut=    60.00 Ry     beta= 0.20
     Davidson diagonalization with overlap
     ethr =  5.07E-10,  avg # of iterations =  4.1

     negative rho (up, down):  3.351E-04 3.351E-04

     Magnetic moment per site:
     atom:    1    charge:    1.5083    magn:   -0.0000    constr:    0.0000
     atom:    2    charge:    1.5088    magn:   -0.0000    constr:    0.0000

     total cpu time spent up to now is     9553.8 secs

     End of self-consistent calculation

 ------ SPIN UP ------------


          k = 0.0000 0.0000 0.0000 (423701 PWs)   bands (ev):

   -28.9168 -13.2108 -11.9578 -11.9578 -10.2431  -1.5268  -1.5268  -0.2198
     0.0649

          k = 0.0000 0.2500 0.0000 (423725 PWs)   bands (ev):

   -28.9168 -13.2108 -11.9578 -11.9578 -10.2431  -1.5268  -1.5268  -0.2009
     0.0015

          k = 0.0000-0.5000 0.0000 (423542 PWs)   bands (ev):

   -28.9168 -13.2108 -11.9578 -11.9578 -10.2431  -1.5268  -1.5268  -0.1706
    -0.0673

          k = 0.2500 0.0000 0.0000 (423725 PWs)   bands (ev):

   -28.9168 -13.2108 -11.9578 -11.9578 -10.2431  -1.5268  -1.5268  -0.2009
     0.0015

          k = 0.2500 0.2500 0.0000 (423766 PWs)   bands (ev):

   -28.9168 -13.2108 -11.9578 -11.9578 -10.2431  -1.5268  -1.5268  -0.1833
     0.0038

          k = 0.2500-0.5000 0.0000 (423782 PWs)   bands (ev):

   -28.9168 -13.2108 -11.9578 -11.9578 -10.2431  -1.5268  -1.5268  -0.1550
    -0.0436

          k = 0.2500-0.2500 0.0000 (423766 PWs)   bands (ev):

   -28.9168 -13.2108 -11.9578 -11.9578 -10.2431  -1.5268  -1.5268  -0.1834
     0.0027

          k =-0.5000 0.0000 0.0000 (423542 PWs)   bands (ev):

   -28.9168 -13.2108 -11.9578 -11.9578 -10.2431  -1.5268  -1.5268  -0.1706
    -0.0673

          k =-0.5000 0.2500 0.0000 (423782 PWs)   bands (ev):

   -28.9168 -13.2108 -11.9578 -11.9578 -10.2431  -1.5268  -1.5268  -0.1551
    -0.0441

          k =-0.5000-0.5000 0.0000 (423708 PWs)   bands (ev):

   -28.9168 -13.2108 -11.9578 -11.9578 -10.2431  -1.5268  -1.5268  -0.1331
     0.0391

 ------ SPIN DOWN ----------


          k = 0.0000 0.0000 0.0000 (423701 PWs)   bands (ev):

   -28.9168 -13.2108 -11.9578 -11.9578 -10.2431  -1.5268  -1.5268  -0.2198
     0.0649

          k = 0.0000 0.2500 0.0000 (423725 PWs)   bands (ev):

   -28.9168 -13.2108 -11.9578 -11.9578 -10.2431  -1.5268  -1.5268  -0.2009
     0.0015

          k = 0.0000-0.5000 0.0000 (423542 PWs)   bands (ev):

   -28.9168 -13.2108 -11.9578 -11.9578 -10.2431  -1.5268  -1.5268  -0.1706
    -0.0671

          k = 0.2500 0.0000 0.0000 (423725 PWs)   bands (ev):

   -28.9168 -13.2108 -11.9578 -11.9578 -10.2431  -1.5268  -1.5268  -0.2009
     0.0015

          k = 0.2500 0.2500 0.0000 (423766 PWs)   bands (ev):

   -28.9168 -13.2108 -11.9578 -11.9578 -10.2431  -1.5268  -1.5268  -0.1834
     0.0027

          k = 0.2500-0.5000 0.0000 (423782 PWs)   bands (ev):

   -28.9168 -13.2108 -11.9578 -11.9578 -10.2431  -1.5268  -1.5268  -0.1551
    -0.0436

          k = 0.2500-0.2500 0.0000 (423766 PWs)   bands (ev):

   -28.9168 -13.2108 -11.9578 -11.9578 -10.2431  -1.5268  -1.5268  -0.1834
     0.0027

          k =-0.5000 0.0000 0.0000 (423542 PWs)   bands (ev):

   -28.9168 -13.2108 -11.9578 -11.9578 -10.2431  -1.5268  -1.5268  -0.1706
    -0.0673

          k =-0.5000 0.2500 0.0000 (423782 PWs)   bands (ev):

   -28.9168 -13.2108 -11.9578 -11.9578 -10.2431  -1.5268  -1.5268  -0.1551
    -0.0440

          k =-0.5000-0.5000 0.0000 (423708 PWs)   bands (ev):

   -28.9168 -13.2108 -11.9578 -11.9578 -10.2431  -1.5268  -1.5268  -0.1331
     0.0391

     the Fermi energy is    -7.0445 ev

!    total energy              =     -40.37283066 Ry
     estimated scf accuracy    <          1.2E-09 Ry
     smearing contrib. (-TS)   =       0.00000000 Ry
     internal energy E=F+TS    =     -40.37283066 Ry

     The total energy is F=E-TS. E is the sum of the following terms:
     one-electron contribution =     -96.15070053 Ry
     hartree contribution      =      48.97511931 Ry
     xc contribution           =     -10.62149090 Ry
     ewald contribution        =      17.42424367 Ry
     Dispersion Correction     =      -0.00000220 Ry

     total magnetization       =    -0.00 Bohr mag/cell
     absolute magnetization    =     0.00 Bohr mag/cell

     convergence has been achieved in  13 iterations

     negative rho (up, down):  3.351E-04 3.351E-04

     Forces acting on atoms (cartesian axes, Ry/au):

     atom    1 type  1   force =    -0.00000002   -0.00000002   -0.29743036
     atom    2 type  1   force =     0.00000002    0.00000002    0.29743036

     Total force =     0.297430     Total SCF correction =     0.000054
     Energy error            =      8.4E-03
     Gradient error          =      3.0E-01

     number of scf cycles    =   2
     number of bfgs steps    =   1

     energy   old            =     -40.3812764233 Ry
     energy   new            =     -40.3728306560 Ry

     CASE: energy  _new > energy  _old

     new trust radius        =       0.0429281543 bohr
     new conv_thr            =       0.0000000100 Ry


ATOMIC_POSITIONS (angstrom)
N            10.0000000000       10.0000000000       10.0000000000    0   0   0
N            10.0000000082       10.0000000191       11.1072833990



     Writing output data file ./N2.save/
     NEW-OLD atomic charge density approx. for the potential

     negative rho (up, down):  3.467E-04 3.467E-04
     Generating pointlists ...

     total cpu time spent up to now is     9574.7 secs

     Self-consistent Calculation

     iteration #  1     ecut=    60.00 Ry     beta= 0.20
     Davidson diagonalization with overlap
     ethr =  1.00E-06,  avg # of iterations =  5.0

     negative rho (up, down):  7.963E-04 7.963E-04

     total cpu time spent up to now is    10706.9 secs

     total energy              =     -40.38577655 Ry
     estimated scf accuracy    <       0.00552446 Ry

     total magnetization       =     0.00 Bohr mag/cell
     absolute magnetization    =     0.00 Bohr mag/cell

     iteration #  2     ecut=    60.00 Ry     beta= 0.20
     Davidson diagonalization with overlap
     ethr =  5.52E-05,  avg # of iterations =  1.0

     negative rho (up, down):  4.516E-03 4.516E-03

     total cpu time spent up to now is    11260.8 secs

     total energy              =     -40.38380819 Ry
     estimated scf accuracy    <       0.00387149 Ry

     total magnetization       =     0.00 Bohr mag/cell
     absolute magnetization    =     0.00 Bohr mag/cell

     iteration #  3     ecut=    60.00 Ry     beta= 0.20
     Davidson diagonalization with overlap
     ethr =  3.87E-05,  avg # of iterations =  2.0

     negative rho (up, down):  4.044E-03 4.044E-03

     total cpu time spent up to now is    11605.0 secs

     total energy              =     -40.38443048 Ry
     estimated scf accuracy    <       0.00018683 Ry

     total magnetization       =    -0.00 Bohr mag/cell
     absolute magnetization    =     0.00 Bohr mag/cell

     iteration #  4     ecut=    60.00 Ry     beta= 0.20
     Davidson diagonalization with overlap
     ethr =  1.87E-06,  avg # of iterations =  6.0

     negative rho (up, down):  4.307E-03 4.307E-03

     total cpu time spent up to now is    12423.8 secs

     total energy              =     -40.38444126 Ry
     estimated scf accuracy    <       0.00011290 Ry

     total magnetization       =    -0.00 Bohr mag/cell
     absolute magnetization    =     0.00 Bohr mag/cell

     iteration #  5     ecut=    60.00 Ry     beta= 0.20
     Davidson diagonalization with overlap
     ethr =  1.13E-06,  avg # of iterations =  1.0

     negative rho (up, down):  4.299E-03 4.299E-03

     total cpu time spent up to now is    12855.4 secs

     total energy              =     -40.38441843 Ry
     estimated scf accuracy    <       0.00006299 Ry

     total magnetization       =    -0.00 Bohr mag/cell
     absolute magnetization    =     0.00 Bohr mag/cell

     iteration #  6     ecut=    60.00 Ry     beta= 0.20
     Davidson diagonalization with overlap
     ethr =  6.30E-07,  avg # of iterations =  3.5

     negative rho (up, down):  3.975E-03 3.975E-03

     total cpu time spent up to now is    13190.3 secs

     total energy              =     -40.38441569 Ry
     estimated scf accuracy    <       0.00002271 Ry

     total magnetization       =    -0.00 Bohr mag/cell
     absolute magnetization    =     0.00 Bohr mag/cell

     iteration #  7     ecut=    60.00 Ry     beta= 0.20
     Davidson diagonalization with overlap
     ethr =  2.27E-07,  avg # of iterations =  1.0

     negative rho (up, down):  2.277E-03 2.277E-03

     total cpu time spent up to now is    13500.6 secs

     total energy              =     -40.38438650 Ry
     estimated scf accuracy    <       0.00001472 Ry

     total magnetization       =     0.00 Bohr mag/cell
     absolute magnetization    =     0.00 Bohr mag/cell

     iteration #  8     ecut=    60.00 Ry     beta= 0.20
     Davidson diagonalization with overlap
     ethr =  1.47E-07,  avg # of iterations =  8.1

     negative rho (up, down):  1.739E-03 1.739E-03

     total cpu time spent up to now is    13675.8 secs

     total energy              =     -40.38437826 Ry
     estimated scf accuracy    <       0.00000794 Ry

     total magnetization       =     0.00 Bohr mag/cell
     absolute magnetization    =     0.00 Bohr mag/cell

     iteration #  9     ecut=    60.00 Ry     beta= 0.20
     Davidson diagonalization with overlap
     ethr =  7.94E-08,  avg # of iterations =  2.6

     negative rho (up, down):  9.133E-04 9.133E-04

     total cpu time spent up to now is    14104.3 secs

     total energy              =     -40.38438000 Ry
     estimated scf accuracy    <       0.00000196 Ry

     total magnetization       =     0.00 Bohr mag/cell
     absolute magnetization    =     0.00 Bohr mag/cell

     iteration # 10     ecut=    60.00 Ry     beta= 0.20
     Davidson diagonalization with overlap
     ethr =  1.96E-08,  avg # of iterations =  2.8

     negative rho (up, down):  3.997E-04 3.997E-04

     total cpu time spent up to now is    14450.1 secs

     total energy              =     -40.38438029 Ry
     estimated scf accuracy    <       0.00000135 Ry

     total magnetization       =    -0.00 Bohr mag/cell
     absolute magnetization    =     0.00 Bohr mag/cell

     iteration # 11     ecut=    60.00 Ry     beta= 0.20
     Davidson diagonalization with overlap
     ethr =  1.35E-08,  avg # of iterations =  3.0

     negative rho (up, down):  3.596E-04 3.596E-04

     total cpu time spent up to now is    14685.1 secs

     total energy              =     -40.38438081 Ry
     estimated scf accuracy    <       0.00000009 Ry

     total magnetization       =    -0.00 Bohr mag/cell
     absolute magnetization    =     0.00 Bohr mag/cell

     iteration # 12     ecut=    60.00 Ry     beta= 0.20
     Davidson diagonalization with overlap
     ethr =  9.24E-10,  avg # of iterations =  2.0

     negative rho (up, down):  3.040E-04 3.040E-04

     total cpu time spent up to now is    15546.4 secs

     total energy              =     -40.38438121 Ry
     estimated scf accuracy    <       0.00000007 Ry

     total magnetization       =    -0.00 Bohr mag/cell
     absolute magnetization    =     0.00 Bohr mag/cell

     iteration # 13     ecut=    60.00 Ry     beta= 0.20
     Davidson diagonalization with overlap
     ethr =  6.86E-10,  avg # of iterations =  2.0

     negative rho (up, down):  2.959E-04 2.959E-04

     Magnetic moment per site:
     atom:    1    charge:    1.4683    magn:    0.0000    constr:    0.0000
     atom:    2    charge:    1.4680    magn:   -0.0000    constr:    0.0000

     total cpu time spent up to now is    15561.3 secs

     End of self-consistent calculation

 ------ SPIN UP ------------


          k = 0.0000 0.0000 0.0000 (423701 PWs)   bands (ev):

   -28.2157 -13.5364 -11.5712 -11.5712 -10.2134  -2.0744  -2.0744  -0.2239
     0.0621

          k = 0.0000 0.2500 0.0000 (423725 PWs)   bands (ev):

   -28.2157 -13.5364 -11.5712 -11.5712 -10.2134  -2.0744  -2.0744  -0.2061
     0.0005

          k = 0.0000-0.5000 0.0000 (423542 PWs)   bands (ev):

   -28.2157 -13.5364 -11.5712 -11.5712 -10.2134  -2.0744  -2.0744  -0.1777
    -0.0647

          k = 0.2500 0.0000 0.0000 (423725 PWs)   bands (ev):

   -28.2157 -13.5364 -11.5712 -11.5712 -10.2134  -2.0744  -2.0744  -0.2061
     0.0004

          k = 0.2500 0.2500 0.0000 (423766 PWs)   bands (ev):

   -28.2157 -13.5364 -11.5712 -11.5712 -10.2134  -2.0744  -2.0744  -0.1891
     0.0023

          k = 0.2500-0.5000 0.0000 (423782 PWs)   bands (ev):

   -28.2157 -13.5364 -11.5712 -11.5712 -10.2134  -2.0744  -2.0744  -0.1627
    -0.0417

          k = 0.2500-0.2500 0.0000 (423766 PWs)   bands (ev):

   -28.2157 -13.5364 -11.5712 -11.5712 -10.2134  -2.0744  -2.0744  -0.1891
     0.0022

          k =-0.5000 0.0000 0.0000 (423542 PWs)   bands (ev):

   -28.2157 -13.5364 -11.5712 -11.5712 -10.2134  -2.0744  -2.0744  -0.1777
    -0.0647

          k =-0.5000 0.2500 0.0000 (423782 PWs)   bands (ev):

   -28.2157 -13.5364 -11.5712 -11.5712 -10.2134  -2.0744  -2.0744  -0.1629
    -0.0416

          k =-0.5000-0.5000 0.0000 (423708 PWs)   bands (ev):

   -28.2157 -13.5364 -11.5712 -11.5712 -10.2134  -2.0744  -2.0744  -0.1422
     0.0440

 ------ SPIN DOWN ----------


          k = 0.0000 0.0000 0.0000 (423701 PWs)   bands (ev):

   -28.2157 -13.5364 -11.5712 -11.5712 -10.2134  -2.0744  -2.0744  -0.2239
     0.0621

          k = 0.0000 0.2500 0.0000 (423725 PWs)   bands (ev):

   -28.2157 -13.5364 -11.5712 -11.5712 -10.2134  -2.0744  -2.0744  -0.2061
     0.0004

          k = 0.0000-0.5000 0.0000 (423542 PWs)   bands (ev):

   -28.2157 -13.5364 -11.5712 -11.5712 -10.2134  -2.0744  -2.0744  -0.1777
    -0.0647

          k = 0.2500 0.0000 0.0000 (423725 PWs)   bands (ev):

   -28.2157 -13.5364 -11.5712 -11.5712 -10.2134  -2.0744  -2.0744  -0.2061
     0.0004

          k = 0.2500 0.2500 0.0000 (423766 PWs)   bands (ev):

   -28.2157 -13.5364 -11.5712 -11.5712 -10.2134  -2.0744  -2.0744  -0.1891
     0.0022

          k = 0.2500-0.5000 0.0000 (423782 PWs)   bands (ev):

   -28.2157 -13.5364 -11.5712 -11.5712 -10.2134  -2.0744  -2.0744  -0.1627
    -0.0417

          k = 0.2500-0.2500 0.0000 (423766 PWs)   bands (ev):

   -28.2157 -13.5364 -11.5712 -11.5712 -10.2134  -2.0744  -2.0744  -0.1891
     0.0022

          k =-0.5000 0.0000 0.0000 (423542 PWs)   bands (ev):

   -28.2157 -13.5364 -11.5712 -11.5712 -10.2134  -2.0744  -2.0744  -0.1777
    -0.0647

          k =-0.5000 0.2500 0.0000 (423782 PWs)   bands (ev):

   -28.2157 -13.5364 -11.5712 -11.5712 -10.2134  -2.0744  -2.0744  -0.1629
    -0.0416

          k =-0.5000-0.5000 0.0000 (423708 PWs)   bands (ev):

   -28.2157 -13.5364 -11.5712 -11.5712 -10.2134  -2.0744  -2.0744  -0.1423
     0.0440

     the Fermi energy is    -6.8713 ev

!    total energy              =     -40.38438129 Ry
     estimated scf accuracy    <          5.0E-09 Ry
     smearing contrib. (-TS)   =       0.00000000 Ry
     internal energy E=F+TS    =     -40.38438129 Ry

     The total energy is F=E-TS. E is the sum of the following terms:
     one-electron contribution =     -94.37319526 Ry
     hartree contribution      =      48.10138209 Ry
     xc contribution           =     -10.50922387 Ry
     ewald contribution        =      16.39665811 Ry
     Dispersion Correction     =      -0.00000236 Ry

     total magnetization       =     0.00 Bohr mag/cell
     absolute magnetization    =     0.00 Bohr mag/cell

     convergence has been achieved in  13 iterations

     negative rho (up, down):  2.959E-04 2.959E-04

     Forces acting on atoms (cartesian axes, Ry/au):

     atom    1 type  1   force =    -0.00000016   -0.00000004    0.01190211
     atom    2 type  1   force =     0.00000016    0.00000004   -0.01190211

     Total force =     0.011902     Total SCF correction =     0.000126
     Energy error            =      3.1E-03
     Gradient error          =      1.2E-02

     number of scf cycles    =   3
     number of bfgs steps    =   1

     energy   old            =     -40.3812764233 Ry
     energy   new            =     -40.3843812889 Ry

     CASE: energy  _new < energy  _old

     new trust radius        =       0.0043537501 bohr
     new conv_thr            =       0.0000000031 Ry


ATOMIC_POSITIONS (angstrom)
N            10.0000000000       10.0000000000       10.0000000000    0   0   0
N            10.0000000973       10.0000000390       11.1049794937



     Writing output data file ./N2.save/
     NEW-OLD atomic charge density approx. for the potential

     negative rho (up, down):  2.941E-04 2.941E-04
     Generating pointlists ...

     total cpu time spent up to now is    15582.1 secs

     Self-consistent Calculation

     iteration #  1     ecut=    60.00 Ry     beta= 0.20
     Davidson diagonalization with overlap
     ethr =  1.00E-06,  avg # of iterations =  3.0

     negative rho (up, down):  2.796E-04 2.796E-04

     total cpu time spent up to now is    16494.8 secs

     total energy              =     -40.38440703 Ry
     estimated scf accuracy    <       0.00001239 Ry

     total magnetization       =     0.00 Bohr mag/cell
     absolute magnetization    =     0.00 Bohr mag/cell

     iteration #  2     ecut=    60.00 Ry     beta= 0.20
     Davidson diagonalization with overlap
     ethr =  1.24E-07,  avg # of iterations =  1.0

     negative rho (up, down):  2.155E-04 2.155E-04

     total cpu time spent up to now is    17175.6 secs

     total energy              =     -40.38440264 Ry
     estimated scf accuracy    <       0.00000877 Ry

     total magnetization       =    -0.00 Bohr mag/cell
     absolute magnetization    =     0.00 Bohr mag/cell

     iteration #  3     ecut=    60.00 Ry     beta= 0.20
     Davidson diagonalization with overlap
     ethr =  8.77E-08,  avg # of iterations =  2.0

     negative rho (up, down):  2.164E-04 2.164E-04

     total cpu time spent up to now is    17769.4 secs

     total energy              =     -40.38440419 Ry
     estimated scf accuracy    <       0.00000037 Ry

     total magnetization       =    -0.00 Bohr mag/cell
     absolute magnetization    =     0.00 Bohr mag/cell

     iteration #  4     ecut=    60.00 Ry     beta= 0.20
     Davidson diagonalization with overlap
     ethr =  3.74E-09,  avg # of iterations =  2.0

     negative rho (up, down):  2.102E-04 2.102E-04

     total cpu time spent up to now is    18400.9 secs

     total energy              =     -40.38440422 Ry
     estimated scf accuracy    <       0.00000022 Ry

     total magnetization       =    -0.00 Bohr mag/cell
     absolute magnetization    =     0.00 Bohr mag/cell

     iteration #  5     ecut=    60.00 Ry     beta= 0.20
     Davidson diagonalization with overlap
     ethr =  2.19E-09,  avg # of iterations =  1.0

     negative rho (up, down):  2.092E-04 2.092E-04

     total cpu time spent up to now is    18953.7 secs

     total energy              =     -40.38440425 Ry
     estimated scf accuracy    <       0.00000011 Ry

     total magnetization       =     0.00 Bohr mag/cell
     absolute magnetization    =     0.00 Bohr mag/cell

     iteration #  6     ecut=    60.00 Ry     beta= 0.20
     Davidson diagonalization with overlap
     ethr =  1.07E-09,  avg # of iterations =  1.0

     negative rho (up, down):  2.155E-04 2.155E-04

     total cpu time spent up to now is    19538.0 secs

     total energy              =     -40.38440433 Ry
     estimated scf accuracy    <       0.00000007 Ry

     total magnetization       =     0.00 Bohr mag/cell
     absolute magnetization    =     0.00 Bohr mag/cell

     iteration #  7     ecut=    60.00 Ry     beta= 0.20
     Davidson diagonalization with overlap
     ethr =  6.59E-10,  avg # of iterations =  1.0

     negative rho (up, down):  2.366E-04 2.366E-04

     total cpu time spent up to now is    19875.9 secs

     total energy              =     -40.38440440 Ry
     estimated scf accuracy    <       0.00000004 Ry

     total magnetization       =     0.00 Bohr mag/cell
     absolute magnetization    =     0.00 Bohr mag/cell

     iteration #  8     ecut=    60.00 Ry     beta= 0.20
     Davidson diagonalization with overlap
     ethr =  3.61E-10,  avg # of iterations =  1.0

     negative rho (up, down):  2.670E-04 2.670E-04

     total cpu time spent up to now is    20348.8 secs

     total energy              =     -40.38440441 Ry
     estimated scf accuracy    <       0.00000003 Ry

     total magnetization       =     0.00 Bohr mag/cell
     absolute magnetization    =     0.00 Bohr mag/cell

     iteration #  9     ecut=    60.00 Ry     beta= 0.20
     Davidson diagonalization with overlap
     ethr =  2.57E-10,  avg # of iterations =  2.0

     negative rho (up, down):  2.844E-04 2.844E-04

     total cpu time spent up to now is    20772.1 secs

     total energy              =     -40.38440440 Ry
     estimated scf accuracy    <          4.0E-09 Ry

     total magnetization       =    -0.00 Bohr mag/cell
     absolute magnetization    =     0.00 Bohr mag/cell

     iteration # 10     ecut=    60.00 Ry     beta= 0.20
     Davidson diagonalization with overlap
     ethr =  4.04E-11,  avg # of iterations =  2.0

     negative rho (up, down):  2.967E-04 2.967E-04

     total cpu time spent up to now is    21334.6 secs

     total energy              =     -40.38440438 Ry
     estimated scf accuracy    <          5.3E-09 Ry

     total magnetization       =    -0.00 Bohr mag/cell
     absolute magnetization    =     0.00 Bohr mag/cell

     iteration # 11     ecut=    60.00 Ry     beta= 0.20
     Davidson diagonalization with overlap
     ethr =  4.04E-11,  avg # of iterations =  2.0

     negative rho (up, down):  2.983E-04 2.983E-04

     Magnetic moment per site:
     atom:    1    charge:    1.4702    magn:   -0.0000    constr:    0.0000
     atom:    2    charge:    1.4701    magn:    0.0000    constr:    0.0000

     total cpu time spent up to now is    21349.3 secs

     End of self-consistent calculation

 ------ SPIN UP ------------


          k = 0.0000 0.0000 0.0000 (423701 PWs)   bands (ev):

   -28.2513 -13.5200 -11.5899 -11.5899 -10.2148  -2.0477  -2.0477  -0.2224
     0.0619

          k = 0.0000 0.2500 0.0000 (423725 PWs)   bands (ev):

   -28.2513 -13.5200 -11.5900 -11.5899 -10.2148  -2.0477  -2.0477  -0.2045
     0.0007

          k = 0.0000-0.5000 0.0000 (423542 PWs)   bands (ev):

   -28.2513 -13.5200 -11.5899 -11.5899 -10.2148  -2.0477  -2.0477  -0.1757
    -0.0647

          k = 0.2500 0.0000 0.0000 (423725 PWs)   bands (ev):

   -28.2513 -13.5200 -11.5900 -11.5899 -10.2148  -2.0477  -2.0477  -0.2045
     0.0007

          k = 0.2500 0.2500 0.0000 (423766 PWs)   bands (ev):

   -28.2513 -13.5200 -11.5900 -11.5899 -10.2148  -2.0477  -2.0477  -0.1873
     0.0024

          k = 0.2500-0.5000 0.0000 (423782 PWs)   bands (ev):

   -28.2513 -13.5200 -11.5899 -11.5899 -10.2148  -2.0477  -2.0477  -0.1608
    -0.0416

          k = 0.2500-0.2500 0.0000 (423766 PWs)   bands (ev):

   -28.2513 -13.5200 -11.5900 -11.5899 -10.2148  -2.0477  -2.0477  -0.1873
     0.0024

          k =-0.5000 0.0000 0.0000 (423542 PWs)   bands (ev):

   -28.2513 -13.5200 -11.5899 -11.5899 -10.2148  -2.0477  -2.0477  -0.1757
    -0.0647

          k =-0.5000 0.2500 0.0000 (423782 PWs)   bands (ev):

   -28.2513 -13.5200 -11.5899 -11.5899 -10.2148  -2.0477  -2.0477  -0.1609
    -0.0415

          k =-0.5000-0.5000 0.0000 (423708 PWs)   bands (ev):

   -28.2513 -13.5200 -11.5899 -11.5899 -10.2148  -2.0477  -2.0477  -0.1401
     0.0430

 ------ SPIN DOWN ----------


          k = 0.0000 0.0000 0.0000 (423701 PWs)   bands (ev):

   -28.2513 -13.5200 -11.5899 -11.5899 -10.2148  -2.0477  -2.0477  -0.2224
     0.0619

          k = 0.0000 0.2500 0.0000 (423725 PWs)   bands (ev):

   -28.2513 -13.5200 -11.5899 -11.5899 -10.2148  -2.0477  -2.0477  -0.2045
     0.0007

          k = 0.0000-0.5000 0.0000 (423542 PWs)   bands (ev):

   -28.2513 -13.5200 -11.5899 -11.5899 -10.2148  -2.0477  -2.0477  -0.1757
    -0.0647

          k = 0.2500 0.0000 0.0000 (423725 PWs)   bands (ev):

   -28.2513 -13.5200 -11.5899 -11.5899 -10.2148  -2.0477  -2.0477  -0.2045
     0.0007

          k = 0.2500 0.2500 0.0000 (423766 PWs)   bands (ev):

   -28.2513 -13.5200 -11.5900 -11.5899 -10.2148  -2.0477  -2.0477  -0.1873
     0.0024

          k = 0.2500-0.5000 0.0000 (423782 PWs)   bands (ev):

   -28.2513 -13.5200 -11.5899 -11.5899 -10.2148  -2.0477  -2.0477  -0.1608
    -0.0416

          k = 0.2500-0.2500 0.0000 (423766 PWs)   bands (ev):

   -28.2513 -13.5200 -11.5900 -11.5899 -10.2148  -2.0477  -2.0477  -0.1873
     0.0024

          k =-0.5000 0.0000 0.0000 (423542 PWs)   bands (ev):

   -28.2513 -13.5200 -11.5899 -11.5899 -10.2148  -2.0477  -2.0477  -0.1757
    -0.0647

          k =-0.5000 0.2500 0.0000 (423782 PWs)   bands (ev):

   -28.2513 -13.5200 -11.5899 -11.5899 -10.2148  -2.0477  -2.0477  -0.1609
    -0.0415

          k =-0.5000-0.5000 0.0000 (423708 PWs)   bands (ev):

   -28.2513 -13.5200 -11.5899 -11.5899 -10.2148  -2.0477  -2.0477  -0.1401
     0.0430

     the Fermi energy is    -6.8803 ev

!    total energy              =     -40.38440438 Ry
     estimated scf accuracy    <          3.7E-10 Ry
     smearing contrib. (-TS)   =       0.00000000 Ry
     internal energy E=F+TS    =     -40.38440438 Ry

     The total energy is F=E-TS. E is the sum of the following terms:
     one-electron contribution =     -94.46039434 Ry
     hartree contribution      =      48.14417834 Ry
     xc contribution           =     -10.51463070 Ry
     ewald contribution        =      16.44644467 Ry
     Dispersion Correction     =      -0.00000235 Ry

     total magnetization       =    -0.00 Bohr mag/cell
     absolute magnetization    =     0.00 Bohr mag/cell

     convergence has been achieved in  11 iterations

     negative rho (up, down):  2.983E-04 2.983E-04

     Forces acting on atoms (cartesian axes, Ry/au):

     atom    1 type  1   force =     0.00000000   -0.00000000   -0.00127359
     atom    2 type  1   force =    -0.00000000    0.00000000    0.00127359

     Total force =     0.001274     Total SCF correction =     0.000028
     Energy error            =      2.3E-05
     Gradient error          =      1.3E-03

     number of scf cycles    =   4
     number of bfgs steps    =   2

     energy   old            =     -40.3843812889 Ry
     energy   new            =     -40.3844043809 Ry

     CASE: energy  _new < energy  _old

     new trust radius        =       0.0004208438 bohr
     new conv_thr            =       0.0000000003 Ry


ATOMIC_POSITIONS (angstrom)
N            10.0000000000       10.0000000000       10.0000000000    0   0   0
N            10.0000000951       10.0000000401       11.1052021946



     Writing output data file ./N2.save/
     NEW-OLD atomic charge density approx. for the potential

     negative rho (up, down):  2.985E-04 2.985E-04
     Generating pointlists ...

     total cpu time spent up to now is    21369.9 secs

     Self-consistent Calculation

     iteration #  1     ecut=    60.00 Ry     beta= 0.20
     Davidson diagonalization with overlap
     ethr =  1.00E-06,  avg # of iterations =  2.0

     Threshold (ethr) on eigenvalues was too large:
     Diagonalizing with lowered threshold

     Davidson diagonalization with overlap
     ethr =  1.13E-09,  avg # of iterations =  2.0

     negative rho (up, down):  2.999E-04 2.999E-04

     total cpu time spent up to now is    21842.2 secs

     total energy              =     -40.38440468 Ry
     estimated scf accuracy    <       0.00000012 Ry

     total magnetization       =    -0.00 Bohr mag/cell
     absolute magnetization    =     0.00 Bohr mag/cell

     iteration #  2     ecut=    60.00 Ry     beta= 0.20
     Davidson diagonalization with overlap
     ethr =  1.18E-09,  avg # of iterations =  1.0

     negative rho (up, down):  3.082E-04 3.082E-04

     total cpu time spent up to now is    22121.4 secs

     total energy              =     -40.38440466 Ry
     estimated scf accuracy    <       0.00000008 Ry

     total magnetization       =     0.00 Bohr mag/cell
     absolute magnetization    =     0.00 Bohr mag/cell

     iteration #  3     ecut=    60.00 Ry     beta= 0.20
     Davidson diagonalization with overlap
     ethr =  8.48E-10,  avg # of iterations =  2.0

     negative rho (up, down):  3.074E-04 3.074E-04

     total cpu time spent up to now is    22564.7 secs

     total energy              =     -40.38440467 Ry
     estimated scf accuracy    <          2.9E-09 Ry

     total magnetization       =     0.00 Bohr mag/cell
     absolute magnetization    =     0.00 Bohr mag/cell

     iteration #  4     ecut=    60.00 Ry     beta= 0.20
     Davidson diagonalization with overlap
     ethr =  2.93E-11,  avg # of iterations =  2.0

     negative rho (up, down):  3.079E-04 3.079E-04

     total cpu time spent up to now is    22995.6 secs

     total energy              =     -40.38440466 Ry
     estimated scf accuracy    <          1.8E-09 Ry

     total magnetization       =    -0.00 Bohr mag/cell
     absolute magnetization    =     0.00 Bohr mag/cell

     iteration #  5     ecut=    60.00 Ry     beta= 0.20
     Davidson diagonalization with overlap
     ethr =  1.77E-11,  avg # of iterations =  1.0

     negative rho (up, down):  3.080E-04 3.080E-04

     total cpu time spent up to now is    23397.5 secs

     total energy              =     -40.38440465 Ry
     estimated scf accuracy    <          1.1E-09 Ry

     total magnetization       =    -0.00 Bohr mag/cell
     absolute magnetization    =     0.00 Bohr mag/cell

     iteration #  6     ecut=    60.00 Ry     beta= 0.20
     Davidson diagonalization with overlap
     ethr =  1.11E-11,  avg # of iterations =  1.0

     negative rho (up, down):  3.073E-04 3.073E-04

     total cpu time spent up to now is    24038.2 secs

     total energy              =     -40.38440465 Ry
     estimated scf accuracy    <          7.6E-10 Ry

     total magnetization       =     0.00 Bohr mag/cell
     absolute magnetization    =     0.00 Bohr mag/cell

     iteration #  7     ecut=    60.00 Ry     beta= 0.20
     Davidson diagonalization with overlap
     ethr =  7.60E-12,  avg # of iterations =  2.0

     negative rho (up, down):  3.056E-04 3.056E-04

     total cpu time spent up to now is    24587.9 secs

     total energy              =     -40.38440464 Ry
     estimated scf accuracy    <          3.4E-10 Ry

     total magnetization       =    -0.00 Bohr mag/cell
     absolute magnetization    =     0.00 Bohr mag/cell

     iteration #  8     ecut=    60.00 Ry     beta= 0.20
     Davidson diagonalization with overlap
     ethr =  3.40E-12,  avg # of iterations =  2.0

     negative rho (up, down):  2.981E-04 2.981E-04

     Magnetic moment per site:
     atom:    1    charge:    1.4700    magn:   -0.0000    constr:    0.0000
     atom:    2    charge:    1.4699    magn:    0.0000    constr:    0.0000

     total cpu time spent up to now is    24602.8 secs

     End of self-consistent calculation

 ------ SPIN UP ------------


          k = 0.0000 0.0000 0.0000 (423701 PWs)   bands (ev):

   -28.2477 -13.5214 -11.5880 -11.5880 -10.2145  -2.0501  -2.0501  -0.2223
     0.0623

          k = 0.0000 0.2500 0.0000 (423725 PWs)   bands (ev):

   -28.2477 -13.5214 -11.5880 -11.5880 -10.2145  -2.0501  -2.0501  -0.2044
     0.0011

          k = 0.0000-0.5000 0.0000 (423542 PWs)   bands (ev):

   -28.2477 -13.5214 -11.5880 -11.5880 -10.2145  -2.0501  -2.0501  -0.1758
    -0.0641

          k = 0.2500 0.0000 0.0000 (423725 PWs)   bands (ev):

   -28.2477 -13.5214 -11.5880 -11.5880 -10.2145  -2.0501  -2.0501  -0.2044
     0.0011

          k = 0.2500 0.2500 0.0000 (423766 PWs)   bands (ev):

   -28.2477 -13.5214 -11.5880 -11.5880 -10.2145  -2.0501  -2.0501  -0.1873
     0.0028

          k = 0.2500-0.5000 0.0000 (423782 PWs)   bands (ev):

   -28.2477 -13.5214 -11.5880 -11.5880 -10.2145  -2.0501  -2.0501  -0.1610
    -0.0410

          k = 0.2500-0.2500 0.0000 (423766 PWs)   bands (ev):

   -28.2477 -13.5214 -11.5880 -11.5880 -10.2145  -2.0501  -2.0501  -0.1873
     0.0028

          k =-0.5000 0.0000 0.0000 (423542 PWs)   bands (ev):

   -28.2477 -13.5214 -11.5880 -11.5880 -10.2145  -2.0501  -2.0501  -0.1758
    -0.0641

          k =-0.5000 0.2500 0.0000 (423782 PWs)   bands (ev):

   -28.2477 -13.5214 -11.5880 -11.5880 -10.2145  -2.0501  -2.0501  -0.1610
    -0.0410

          k =-0.5000-0.5000 0.0000 (423708 PWs)   bands (ev):

   -28.2477 -13.5214 -11.5880 -11.5880 -10.2145  -2.0501  -2.0501  -0.1403
     0.0438

 ------ SPIN DOWN ----------


          k = 0.0000 0.0000 0.0000 (423701 PWs)   bands (ev):

   -28.2477 -13.5214 -11.5880 -11.5880 -10.2145  -2.0501  -2.0501  -0.2223
     0.0623

          k = 0.0000 0.2500 0.0000 (423725 PWs)   bands (ev):

   -28.2477 -13.5214 -11.5880 -11.5880 -10.2145  -2.0501  -2.0501  -0.2044
     0.0011

          k = 0.0000-0.5000 0.0000 (423542 PWs)   bands (ev):

   -28.2477 -13.5214 -11.5880 -11.5880 -10.2145  -2.0501  -2.0501  -0.1758
    -0.0641

          k = 0.2500 0.0000 0.0000 (423725 PWs)   bands (ev):

   -28.2477 -13.5214 -11.5880 -11.5880 -10.2145  -2.0501  -2.0501  -0.2044
     0.0011

          k = 0.2500 0.2500 0.0000 (423766 PWs)   bands (ev):

   -28.2477 -13.5214 -11.5880 -11.5880 -10.2145  -2.0501  -2.0501  -0.1873
     0.0028

          k = 0.2500-0.5000 0.0000 (423782 PWs)   bands (ev):

   -28.2477 -13.5214 -11.5880 -11.5880 -10.2145  -2.0501  -2.0501  -0.1610
    -0.0410

          k = 0.2500-0.2500 0.0000 (423766 PWs)   bands (ev):

   -28.2477 -13.5214 -11.5880 -11.5880 -10.2145  -2.0501  -2.0501  -0.1873
     0.0028

          k =-0.5000 0.0000 0.0000 (423542 PWs)   bands (ev):

   -28.2477 -13.5214 -11.5880 -11.5880 -10.2145  -2.0501  -2.0501  -0.1758
    -0.0641

          k =-0.5000 0.2500 0.0000 (423782 PWs)   bands (ev):

   -28.2477 -13.5214 -11.5880 -11.5880 -10.2145  -2.0501  -2.0501  -0.1610
    -0.0410

          k =-0.5000-0.5000 0.0000 (423708 PWs)   bands (ev):

   -28.2477 -13.5214 -11.5880 -11.5880 -10.2145  -2.0501  -2.0501  -0.1403
     0.0438

     the Fermi energy is    -6.8791 ev

!    total energy              =     -40.38440465 Ry
     estimated scf accuracy    <          2.4E-10 Ry
     smearing contrib. (-TS)   =       0.00000000 Ry
     internal energy E=F+TS    =     -40.38440465 Ry

     The total energy is F=E-TS. E is the sum of the following terms:
     one-electron contribution =     -94.45193119 Ry
     hartree contribution      =      48.14000891 Ry
     xc contribution           =     -10.51410312 Ry
     ewald contribution        =      16.44162311 Ry
     Dispersion Correction     =      -0.00000235 Ry

     total magnetization       =     0.00 Bohr mag/cell
     absolute magnetization    =     0.00 Bohr mag/cell

     convergence has been achieved in   8 iterations

     negative rho (up, down):  2.981E-04 2.981E-04

     Forces acting on atoms (cartesian axes, Ry/au):

     atom    1 type  1   force =    -0.00000000    0.00000000    0.00000114
     atom    2 type  1   force =     0.00000000   -0.00000000   -0.00000114

     Total force =     0.000001     Total SCF correction =     0.000020
     SCF correction compared to forces is large: reduce conv_thr to get better values
     Energy error            =      2.7E-07
     Gradient error          =      1.1E-06
Begin final coordinates

ATOMIC_POSITIONS (angstrom)
N            10.0000000000       10.0000000000       10.0000000000    0   0   0
N            10.0000000951       10.0000000401       11.1052021946
End final coordinates



     Writing output data file ./N2.save/

     lsda relaxation :  a final configuration with zero
                        absolute magnetization has been found

     the program is checking if it is really the minimum energy structure
     by performing a new scf iteration without any "electronic" history

     Initial potential from superposition of free atoms

     starting charge    9.99999, renormalised to   10.00000

     negative rho (up, down):  1.334E-04 1.091E-04

     total cpu time spent up to now is    24622.4 secs

     Self-consistent Calculation

     iteration #  1     ecut=    60.00 Ry     beta= 0.20
     Davidson diagonalization with overlap
     ethr =  1.00E-06,  avg # of iterations = 11.3

     negative rho (up, down):  5.659E-08 3.433E-08

     total cpu time spent up to now is    25060.7 secs

     total energy              =     -40.42068982 Ry
     estimated scf accuracy    <       0.15783930 Ry

     total magnetization       =     0.00 Bohr mag/cell
     absolute magnetization    =     0.06 Bohr mag/cell

     iteration #  2     ecut=    60.00 Ry     beta= 0.20
     Davidson diagonalization with overlap
     ethr =  1.58E-03,  avg # of iterations =  1.0

     negative rho (up, down):  2.204E-07 2.682E-07

     total cpu time spent up to now is    25231.0 secs

     total energy              =     -40.36823053 Ry
     estimated scf accuracy    <       0.11392316 Ry

     total magnetization       =     0.00 Bohr mag/cell
     absolute magnetization    =     0.05 Bohr mag/cell

     iteration #  3     ecut=    60.00 Ry     beta= 0.20
     Davidson diagonalization with overlap
     ethr =  1.14E-03,  avg # of iterations =  2.0

     total cpu time spent up to now is    25383.7 secs

     total energy              =     -40.38479761 Ry
     estimated scf accuracy    <       0.00482481 Ry

     total magnetization       =     0.00 Bohr mag/cell
     absolute magnetization    =     0.04 Bohr mag/cell

     iteration #  4     ecut=    60.00 Ry     beta= 0.20
     Davidson diagonalization with overlap
     ethr =  4.82E-05,  avg # of iterations =  2.7

     negative rho (up, down):  3.745E-09 1.681E-08

     total cpu time spent up to now is    25506.1 secs

     total energy              =     -40.38436769 Ry
     estimated scf accuracy    <       0.00402218 Ry

     total magnetization       =    -0.00 Bohr mag/cell
     absolute magnetization    =     0.00 Bohr mag/cell

     iteration #  5     ecut=    60.00 Ry     beta= 0.20
     Davidson diagonalization with overlap
     ethr =  4.02E-05,  avg # of iterations =  3.3

     negative rho (up, down):  4.092E-06 8.235E-06

     total cpu time spent up to now is    25646.2 secs

     total energy              =     -40.38432092 Ry
     estimated scf accuracy    <       0.00137542 Ry

     total magnetization       =     0.00 Bohr mag/cell
     absolute magnetization    =     0.00 Bohr mag/cell

     iteration #  6     ecut=    60.00 Ry     beta= 0.20
     Davidson diagonalization with overlap
     ethr =  1.38E-05,  avg # of iterations =  7.0

     negative rho (up, down):  1.197E-02 1.163E-02

     total cpu time spent up to now is    25876.2 secs

     total energy              =     -40.38420114 Ry
     estimated scf accuracy    <       0.00102510 Ry

     total magnetization       =    -0.00 Bohr mag/cell
     absolute magnetization    =     0.00 Bohr mag/cell

     iteration #  7     ecut=    60.00 Ry     beta= 0.20
     Davidson diagonalization with overlap
     ethr =  1.03E-05,  avg # of iterations =  4.5

     negative rho (up, down):  1.208E-02 1.181E-02

     total cpu time spent up to now is    26076.7 secs

     total energy              =     -40.38433838 Ry
     estimated scf accuracy    <       0.00023054 Ry

     total magnetization       =    -0.00 Bohr mag/cell
     absolute magnetization    =     0.01 Bohr mag/cell

     iteration #  8     ecut=    60.00 Ry     beta= 0.20
     Davidson diagonalization with overlap
     ethr =  2.31E-06,  avg # of iterations =  6.2

     negative rho (up, down):  8.437E-03 8.443E-03

     total cpu time spent up to now is    26320.1 secs

     total energy              =     -40.38437821 Ry
     estimated scf accuracy    <       0.00018172 Ry

     total magnetization       =     0.00 Bohr mag/cell
     absolute magnetization    =     0.01 Bohr mag/cell

     iteration #  9     ecut=    60.00 Ry     beta= 0.20
     Davidson diagonalization with overlap
     ethr =  1.82E-06,  avg # of iterations = 10.3

     negative rho (up, down):  7.918E-03 7.922E-03

     total cpu time spent up to now is    26575.2 secs

     total energy              =     -40.38440249 Ry
     estimated scf accuracy    <       0.00001910 Ry

     total magnetization       =    -0.00 Bohr mag/cell
     absolute magnetization    =     0.00 Bohr mag/cell

     iteration # 10     ecut=    60.00 Ry     beta= 0.20
     Davidson diagonalization with overlap
     ethr =  1.91E-07,  avg # of iterations =  1.0

     negative rho (up, down):  1.992E-03 1.999E-03

     total cpu time spent up to now is    26807.4 secs

     total energy              =     -40.38438665 Ry
     estimated scf accuracy    <       0.00001369 Ry

     total magnetization       =    -0.00 Bohr mag/cell
     absolute magnetization    =     0.00 Bohr mag/cell

     iteration # 11     ecut=    60.00 Ry     beta= 0.20
     Davidson diagonalization with overlap
     ethr =  1.37E-07,  avg # of iterations = 10.4

     negative rho (up, down):  1.667E-03 1.671E-03

     total cpu time spent up to now is    27094.7 secs

     total energy              =     -40.38438993 Ry
     estimated scf accuracy    <       0.00000098 Ry

     total magnetization       =    -0.00 Bohr mag/cell
     absolute magnetization    =     0.00 Bohr mag/cell

     iteration # 12     ecut=    60.00 Ry     beta= 0.20
     Davidson diagonalization with overlap
     ethr =  9.82E-09,  avg # of iterations =  3.3

     negative rho (up, down):  5.196E-04 5.199E-04

     total cpu time spent up to now is    27455.4 secs

     total energy              =     -40.38440118 Ry
     estimated scf accuracy    <       0.00000068 Ry

     total magnetization       =     0.00 Bohr mag/cell
     absolute magnetization    =     0.00 Bohr mag/cell

     iteration # 13     ecut=    60.00 Ry     beta= 0.20
     Davidson diagonalization with overlap
     ethr =  6.78E-09,  avg # of iterations =  9.3

     negative rho (up, down):  4.048E-04 4.050E-04

     total cpu time spent up to now is    27774.1 secs

     total energy              =     -40.38440320 Ry
     estimated scf accuracy    <       0.00000008 Ry

     total magnetization       =     0.00 Bohr mag/cell
     absolute magnetization    =     0.00 Bohr mag/cell

     iteration # 14     ecut=    60.00 Ry     beta= 0.20
     Davidson diagonalization with overlap
     ethr =  7.76E-10,  avg # of iterations =  2.5

     negative rho (up, down):  3.101E-04 3.092E-04

     total cpu time spent up to now is    28066.9 secs

     total energy              =     -40.38440446 Ry
     estimated scf accuracy    <       0.00000006 Ry

     total magnetization       =     0.00 Bohr mag/cell
     absolute magnetization    =     0.00 Bohr mag/cell

     iteration # 15     ecut=    60.00 Ry     beta= 0.20
     Davidson diagonalization with overlap
     ethr =  5.91E-10,  avg # of iterations =  7.2

     negative rho (up, down):  2.983E-04 2.975E-04

     total cpu time spent up to now is    28479.9 secs

     total energy              =     -40.38440458 Ry
     estimated scf accuracy    <       0.00000001 Ry

     total magnetization       =    -0.00 Bohr mag/cell
     absolute magnetization    =     0.00 Bohr mag/cell

     iteration # 16     ecut=    60.00 Ry     beta= 0.20
     Davidson diagonalization with overlap
     ethr =  1.09E-10,  avg # of iterations =  2.0

     negative rho (up, down):  2.939E-04 2.933E-04

     total cpu time spent up to now is    28807.4 secs

     total energy              =     -40.38440465 Ry
     estimated scf accuracy    <          3.7E-09 Ry

     total magnetization       =     0.00 Bohr mag/cell
     absolute magnetization    =     0.00 Bohr mag/cell

     iteration # 17     ecut=    60.00 Ry     beta= 0.20
     Davidson diagonalization with overlap
     ethr =  3.72E-11,  avg # of iterations =  2.0

     negative rho (up, down):  2.981E-04 2.981E-04

     Magnetic moment per site:
     atom:    1    charge:    1.4700    magn:   -0.0000    constr:    0.0000
     atom:    2    charge:    1.4699    magn:    0.0000    constr:    0.0000

     total cpu time spent up to now is    28822.6 secs

     End of self-consistent calculation

 ------ SPIN UP ------------


          k = 0.0000 0.0000 0.0000 (423701 PWs)   bands (ev):

   -28.2477 -13.5215 -11.5880 -11.5880 -10.2146  -2.0502  -2.0502  -0.2223
     0.0624

          k = 0.0000 0.2500 0.0000 (423725 PWs)   bands (ev):

   -28.2477 -13.5215 -11.5880 -11.5880 -10.2146  -2.0502  -2.0502  -0.2044
     0.0013

          k = 0.0000-0.5000 0.0000 (423542 PWs)   bands (ev):

   -28.2477 -13.5215 -11.5880 -11.5880 -10.2146  -2.0502  -2.0502  -0.1758
    -0.0641

          k = 0.2500 0.0000 0.0000 (423725 PWs)   bands (ev):

   -28.2477 -13.5215 -11.5880 -11.5880 -10.2146  -2.0502  -2.0502  -0.2044
     0.0016

          k = 0.2500 0.2500 0.0000 (423766 PWs)   bands (ev):

   -28.2477 -13.5215 -11.5880 -11.5880 -10.2146  -2.0502  -2.0502  -0.1873
     0.0029

          k = 0.2500-0.5000 0.0000 (423782 PWs)   bands (ev):

   -28.2477 -13.5215 -11.5880 -11.5880 -10.2146  -2.0502  -2.0502  -0.1608
    -0.0409

          k = 0.2500-0.2500 0.0000 (423766 PWs)   bands (ev):

   -28.2477 -13.5215 -11.5880 -11.5880 -10.2146  -2.0502  -2.0502  -0.1872
     0.0029

          k =-0.5000 0.0000 0.0000 (423542 PWs)   bands (ev):

   -28.2477 -13.5215 -11.5880 -11.5880 -10.2146  -2.0502  -2.0502  -0.1757
    -0.0640

          k =-0.5000 0.2500 0.0000 (423782 PWs)   bands (ev):

   -28.2477 -13.5215 -11.5880 -11.5880 -10.2146  -2.0502  -2.0502  -0.1608
    -0.0409

          k =-0.5000-0.5000 0.0000 (423708 PWs)   bands (ev):

   -28.2477 -13.5215 -11.5880 -11.5880 -10.2146  -2.0502  -2.0502  -0.1400
     0.0440

 ------ SPIN DOWN ----------


          k = 0.0000 0.0000 0.0000 (423701 PWs)   bands (ev):

   -28.2477 -13.5215 -11.5880 -11.5880 -10.2146  -2.0502  -2.0502  -0.2223
     0.0624

          k = 0.0000 0.2500 0.0000 (423725 PWs)   bands (ev):

   -28.2477 -13.5215 -11.5880 -11.5880 -10.2146  -2.0502  -2.0502  -0.2044
     0.0014

          k = 0.0000-0.5000 0.0000 (423542 PWs)   bands (ev):

   -28.2477 -13.5215 -11.5880 -11.5880 -10.2146  -2.0502  -2.0502  -0.1757
    -0.0641

          k = 0.2500 0.0000 0.0000 (423725 PWs)   bands (ev):

   -28.2477 -13.5215 -11.5880 -11.5880 -10.2146  -2.0502  -2.0502  -0.2044
     0.0014

          k = 0.2500 0.2500 0.0000 (423766 PWs)   bands (ev):

   -28.2477 -13.5215 -11.5880 -11.5880 -10.2146  -2.0502  -2.0502  -0.1872
     0.0029

          k = 0.2500-0.5000 0.0000 (423782 PWs)   bands (ev):

   -28.2477 -13.5215 -11.5880 -11.5880 -10.2146  -2.0502  -2.0502  -0.1608
    -0.0409

          k = 0.2500-0.2500 0.0000 (423766 PWs)   bands (ev):

   -28.2477 -13.5215 -11.5880 -11.5880 -10.2146  -2.0502  -2.0502  -0.1872
     0.0030

          k =-0.5000 0.0000 0.0000 (423542 PWs)   bands (ev):

   -28.2477 -13.5215 -11.5880 -11.5880 -10.2146  -2.0502  -2.0502  -0.1758
    -0.0640

          k =-0.5000 0.2500 0.0000 (423782 PWs)   bands (ev):

   -28.2477 -13.5215 -11.5880 -11.5880 -10.2146  -2.0502  -2.0502  -0.1608
    -0.0409

          k =-0.5000-0.5000 0.0000 (423708 PWs)   bands (ev):

   -28.2477 -13.5215 -11.5880 -11.5880 -10.2146  -2.0502  -2.0502  -0.1402
     0.0440

     the Fermi energy is    -6.8791 ev

!    total energy              =     -40.38440465 Ry
     estimated scf accuracy    <          1.7E-10 Ry
     smearing contrib. (-TS)   =       0.00000000 Ry
     internal energy E=F+TS    =     -40.38440465 Ry

     The total energy is F=E-TS. E is the sum of the following terms:
     one-electron contribution =     -94.45190013 Ry
     hartree contribution      =      48.13997078 Ry
     xc contribution           =     -10.51409606 Ry
     ewald contribution        =      16.44162311 Ry
     Dispersion Correction     =      -0.00000235 Ry

     total magnetization       =     0.00 Bohr mag/cell
     absolute magnetization    =     0.00 Bohr mag/cell

     convergence has been achieved in  17 iterations

     negative rho (up, down):  2.981E-04 2.981E-04

     Forces acting on atoms (cartesian axes, Ry/au):

     atom    1 type  1   force =     0.00000001    0.00000003   -0.00000742
     atom    2 type  1   force =    -0.00000001   -0.00000003    0.00000742

     Total force =     0.000007     Total SCF correction =     0.000002
     SCF correction compared to forces is large: reduce conv_thr to get better values
     Energy error            =      2.7E-07
     Gradient error          =      7.4E-06

     bfgs converged in   5 scf cycles and   3 bfgs steps
     (criteria: energy <  7.3E-07 Ry, force <  3.9E-04 Ry/Bohr)

     End of BFGS Geometry Optimization

     Final energy   =     -40.3844046488 Ry

     File ./N2.bfgs deleted, as requested
Begin final coordinates

ATOMIC_POSITIONS (angstrom)
N            10.0000000000       10.0000000000       10.0000000000    0   0   0
N            10.0000000951       10.0000000401       11.1052021946
End final coordinates



     Writing output data file ./N2.save/

     init_run     :     19.62s CPU     20.85s WALL (       1 calls)
     electrons    :  28364.87s CPU  28712.93s WALL (       6 calls)
     update_pot   :     29.15s CPU     31.52s WALL (       4 calls)
     forces       :     45.89s CPU     50.08s WALL (       6 calls)

     Called by init_run:
     wfcinit      :      1.48s CPU      1.58s WALL (       1 calls)
     potinit      :     14.18s CPU     15.50s WALL (       2 calls)
     hinit0       :      0.99s CPU      1.15s WALL (       1 calls)

     Called by electrons:
     c_bands      :    441.52s CPU    454.32s WALL (      78 calls)
     sum_band     :    183.55s CPU    191.98s WALL (      78 calls)
     v_of_rho     :    449.71s CPU    508.60s WALL (      83 calls)
     newd         :     66.55s CPU     70.30s WALL (      83 calls)
     mix_rho      :  26774.22s CPU  27021.99s WALL (      78 calls)

     Called by c_bands:
     init_us_2    :      3.01s CPU      3.16s WALL (     489 calls)
     cegterg      :    414.45s CPU    423.92s WALL (     234 calls)

     Called by *egterg:
     cdiaghg      :      1.54s CPU      1.58s WALL (    1141 calls)
     h_psi        :    368.32s CPU    374.35s WALL (    1162 calls)
     s_psi        :      3.90s CPU      4.01s WALL (    1162 calls)
     g_psi        :      0.66s CPU      0.67s WALL (     925 calls)

     Called by h_psi:
     h_psi:calbec :      5.79s CPU      5.85s WALL (    1162 calls)
     vloc_psi     :    356.84s CPU    361.71s WALL (    1162 calls)
     add_vuspsi   :      4.28s CPU      4.32s WALL (    1162 calls)

     General routines
     calbec       :      7.55s CPU      7.64s WALL (    1468 calls)
     fft          :    505.20s CPU    521.19s WALL (    2157 calls)
     ffts         :  14770.78s CPU  14882.29s WALL (  191231 calls)
     fftw         :    358.92s CPU    363.63s WALL (   13872 calls)
     interpolate  :     56.91s CPU     61.14s WALL (     166 calls)
     davcio       :      0.32s CPU     26.01s WALL (    1770 calls)

     Parallel routines
     fft_scatt_xy :   1364.81s CPU   1378.18s WALL (  207260 calls)
     fft_scatt_yz :   9069.33s CPU   9130.58s WALL (  207260 calls)

     PWSCF        :      7h54m CPU      8h 0m WALL


   This run was terminated on:   5:59:37   6Jul2022            

=------------------------------------------------------------------------------=
   JOB DONE.
=------------------------------------------------------------------------------=
