
     Program PHONON v.6.7MaX starts on 20Sep2022 at 23:21:38 

     This program is part of the open-source Quantum ESPRESSO suite
     for quantum simulation of materials; please cite
         "P. Giannozzi et al., J. Phys.:Condens. Matter 21 395502 (2009);
         "P. Giannozzi et al., J. Phys.:Condens. Matter 29 465901 (2017);
          URL http://www.quantum-espresso.org", 
     in publications or presentations arising from this work. More details at
     http://www.quantum-espresso.org/quote

     Parallel version (MPI), running on   120 processors

     MPI processes distributed on     1 nodes
     K-points division:     npool     =       8
     R & G space division:  proc/nbgrp/npool/nimage =      15
     Waiting for input...
     Reading input from standard input

     Reading xml data from directory:

     ./N2.save/

     IMPORTANT: XC functional enforced from input :
     Exchange-correlation= PBE
                           (   1   4   3   4   0   0   0)
     Any further DFT definition will be discarded
     Please, verify this is what you really want


     Parallelization info
     --------------------
     sticks:   dense  smooth     PW     G-vecs:    dense   smooth      PW
     Min        3636    1818    468               639190   225950   29545
     Max        3637    1819    470               639197   225953   29547
     Sum       54553   27281   7033              9587919  3389267  443191


     negative rho (up, down):  2.981E-04 2.981E-04
     Reading collected, re-writing distributed wavefunctions

     Calculation of q =    0.0000000   0.0000000   0.0000000

     phonons (vibrational modes) for N2                                         

     bravais-lattice index     =            0
     lattice parameter (alat)  =      37.7945  a.u.
     unit-cell volume          =   53986.6760 (a.u.)^3
     number of atoms/cell      =            2
     number of atomic types    =            1
     kinetic-energy cut-off    =      60.0000  Ry
     charge density cut-off    =     480.0000  Ry
     convergence threshold     =      1.0E-12
     beta                      =       0.7000
     number of iterations used =            4
     Exchange-correlation= PBE
                           (   1   4   3   4   0   0   0)


     celldm(1)=   37.79452  celldm(2)=    0.00000  celldm(3)=    0.00000
     celldm(4)=    0.00000  celldm(5)=    0.00000  celldm(6)=    0.00000

     crystal axes: (cart. coord. in units of alat)
               a(1) = (  1.0000  0.0000  0.0000 )  
               a(2) = (  0.0000  1.0000  0.0000 )  
               a(3) = (  0.0000  0.0000  1.0000 )  

     reciprocal axes: (cart. coord. in units 2 pi/alat)
               b(1) = (  1.0000  0.0000  0.0000 )  
               b(2) = (  0.0000  1.0000  0.0000 )  
               b(3) = (  0.0000  0.0000  1.0000 )  


     Atoms inside the unit cell: 

     Cartesian axes

     site n.  atom      mass           positions (alat units)
        1     N   14.0067   tau(    1) = (    0.50000    0.50000    0.50000  )
        2     N   14.0067   tau(    2) = (    0.50000    0.50000    0.55526  )

     Computing dynamical matrix for 
                    q = (   0.0000000   0.0000000   0.0000000 )

      2 Sym.Ops. (with q -> -q+G )


     G cutoff =17367.5767  ( 639197 G-vectors)     FFT grid: (270,270,270)
     G cutoff = 8683.7884  ( 225950 G-vectors)  smooth grid: (192,192,192)

     number of k points=    20  Methfessel-Paxton smearing, width (Ry)=  0.0100
                       cart. coord. in units 2pi/alat
        k(    1) = (   0.0000000   0.0000000   0.0000000), wk =   0.0625000
        k(    2) = (   0.0000000   0.2500000   0.0000000), wk =   0.1250000
        k(    3) = (   0.0000000  -0.5000000   0.0000000), wk =   0.0625000
        k(    4) = (   0.2500000   0.0000000   0.0000000), wk =   0.1250000
        k(    5) = (   0.2500000   0.2500000   0.0000000), wk =   0.1250000
        k(    6) = (   0.2500000  -0.5000000   0.0000000), wk =   0.1250000
        k(    7) = (   0.2500000  -0.2500000   0.0000000), wk =   0.1250000
        k(    8) = (  -0.5000000   0.0000000   0.0000000), wk =   0.0625000
        k(    9) = (  -0.5000000   0.2500000   0.0000000), wk =   0.1250000
        k(   10) = (  -0.5000000  -0.5000000   0.0000000), wk =   0.0625000
        k(   11) = (   0.0000000   0.0000000   0.0000000), wk =   0.0625000
        k(   12) = (   0.0000000   0.2500000   0.0000000), wk =   0.1250000
        k(   13) = (   0.0000000  -0.5000000   0.0000000), wk =   0.0625000
        k(   14) = (   0.2500000   0.0000000   0.0000000), wk =   0.1250000
        k(   15) = (   0.2500000   0.2500000   0.0000000), wk =   0.1250000
        k(   16) = (   0.2500000  -0.5000000   0.0000000), wk =   0.1250000
        k(   17) = (   0.2500000  -0.2500000   0.0000000), wk =   0.1250000
        k(   18) = (  -0.5000000   0.0000000   0.0000000), wk =   0.0625000
        k(   19) = (  -0.5000000   0.2500000   0.0000000), wk =   0.1250000
        k(   20) = (  -0.5000000  -0.5000000   0.0000000), wk =   0.0625000

     PseudoPot. # 1 for N  read from file:
     ../../SSSP/N.pbe-n-radius_5.UPF
     MD5 check sum: 16739722b17309cd8fe442a2ace49922
     Pseudo is Ultrasoft + core correction, Zval =  5.0
     Generated using "atomic" code by A. Dal Corso  v.5.1
     Using radial grid of 1085 points,  4 beta functions with: 
                l(1) =   0
                l(2) =   0
                l(3) =   1
                l(4) =   1
     Q(r) pseudized with 0 coefficients 


     Mode symmetry, C_1 (1)     point group:


     Atomic displacements:
     There are    6 irreducible representations

     Representation     1      1 modes -  To be done

     Representation     2      1 modes -  To be done

     Representation     3      1 modes -  To be done

     Representation     4      1 modes -  To be done

     Representation     5      1 modes -  To be done

     Representation     6      1 modes -  To be done



     Alpha used in Ewald sum =   2.8000

     -------------------------------------------------
     Parameters for Dispersion (Grimme-D2) Correction:
     -------------------------------------------------
       atom      VdW radius       C_6     

        N          2.640         42.670

     Calculating the D2 contribution to the dynamical matrix.
     D2 energy =       -0.00000235 Ry
     Done.


     negative rho (up, down):  2.981E-04 2.981E-04
     PHONON       :   3m 6.27s CPU   3m13.91s WALL



     Representation #   1 mode #   1

     Self-consistent Calculation

     Pert. #  1: Fermi energy shift (Ry) =     0.0000E+00     0.0000E+00

      iter #   1 total cpu time :   241.8 secs   av.it.:   7.5
      thresh= 1.000E-02 alpha_mix =  0.700 |ddv_scf|^2 =  1.541E-09

     Pert. #  1: Fermi energy shift (Ry) =     0.0000E+00     0.0000E+00

      iter #   2 total cpu time :   289.9 secs   av.it.:  15.7
      thresh= 3.926E-06 alpha_mix =  0.700 |ddv_scf|^2 =  2.795E-10

     Pert. #  1: Fermi energy shift (Ry) =     0.0000E+00     0.0000E+00

      iter #   3 total cpu time :   341.4 secs   av.it.:  15.8
      thresh= 1.672E-06 alpha_mix =  0.700 |ddv_scf|^2 =  1.190E-11

     Pert. #  1: Fermi energy shift (Ry) =     0.0000E+00     0.0000E+00

      iter #   4 total cpu time :   397.0 secs   av.it.:  16.9
      thresh= 3.450E-07 alpha_mix =  0.700 |ddv_scf|^2 =  3.705E-14

     End of self-consistent calculation

     Convergence has been achieved 


     Representation #   2 mode #   2

     Self-consistent Calculation

     Pert. #  1: Fermi energy shift (Ry) =     0.0000E+00     0.0000E+00

      iter #   1 total cpu time :   458.7 secs   av.it.:   7.5
      thresh= 1.000E-02 alpha_mix =  0.700 |ddv_scf|^2 =  1.541E-09

     Pert. #  1: Fermi energy shift (Ry) =     0.0000E+00     0.0000E+00

      iter #   2 total cpu time :   506.9 secs   av.it.:  15.7
      thresh= 3.926E-06 alpha_mix =  0.700 |ddv_scf|^2 =  2.795E-10

     Pert. #  1: Fermi energy shift (Ry) =     0.0000E+00     0.0000E+00

      iter #   3 total cpu time :   557.9 secs   av.it.:  15.8
      thresh= 1.672E-06 alpha_mix =  0.700 |ddv_scf|^2 =  1.190E-11

     Pert. #  1: Fermi energy shift (Ry) =     0.0000E+00     0.0000E+00

      iter #   4 total cpu time :   613.1 secs   av.it.:  16.9
      thresh= 3.450E-07 alpha_mix =  0.700 |ddv_scf|^2 =  3.705E-14

     End of self-consistent calculation

     Convergence has been achieved 


     Representation #   3 mode #   3

     Self-consistent Calculation

     Pert. #  1: Fermi energy shift (Ry) =     0.0000E+00     0.0000E+00

      iter #   1 total cpu time :   673.0 secs   av.it.:   8.0
      thresh= 1.000E-02 alpha_mix =  0.700 |ddv_scf|^2 =  7.947E-09

     Pert. #  1: Fermi energy shift (Ry) =     0.0000E+00     0.0000E+00

      iter #   2 total cpu time :   722.2 secs   av.it.:  15.8
      thresh= 8.915E-06 alpha_mix =  0.700 |ddv_scf|^2 =  2.655E-09

     Pert. #  1: Fermi energy shift (Ry) =     0.0000E+00     0.0000E+00

      iter #   3 total cpu time :   775.2 secs   av.it.:  17.0
      thresh= 5.153E-06 alpha_mix =  0.700 |ddv_scf|^2 =  3.302E-09

     Pert. #  1: Fermi energy shift (Ry) =     0.0000E+00     0.0000E+00

      iter #   4 total cpu time :   828.1 secs   av.it.:  15.9
      thresh= 5.746E-06 alpha_mix =  0.700 |ddv_scf|^2 =  3.458E-10

     Pert. #  1: Fermi energy shift (Ry) =     0.0000E+00     0.0000E+00

      iter #   5 total cpu time :   884.3 secs   av.it.:  16.0
      thresh= 1.859E-06 alpha_mix =  0.700 |ddv_scf|^2 =  1.240E-12

     Pert. #  1: Fermi energy shift (Ry) =     0.0000E+00     0.0000E+00

      iter #   6 total cpu time :   936.9 secs   av.it.:  15.8
      thresh= 1.114E-07 alpha_mix =  0.700 |ddv_scf|^2 =  1.879E-14

     End of self-consistent calculation

     Convergence has been achieved 


     Representation #   4 mode #   4

     Self-consistent Calculation

     Pert. #  1: Fermi energy shift (Ry) =     0.0000E+00     0.0000E+00

      iter #   1 total cpu time :   998.7 secs   av.it.:   7.5
      thresh= 1.000E-02 alpha_mix =  0.700 |ddv_scf|^2 =  1.375E-09

     Pert. #  1: Fermi energy shift (Ry) =     0.0000E+00     0.0000E+00

      iter #   2 total cpu time :  1047.1 secs   av.it.:  15.8
      thresh= 3.708E-06 alpha_mix =  0.700 |ddv_scf|^2 =  2.567E-10

     Pert. #  1: Fermi energy shift (Ry) =     0.0000E+00     0.0000E+00

      iter #   3 total cpu time :  1095.5 secs   av.it.:  15.8
      thresh= 1.602E-06 alpha_mix =  0.700 |ddv_scf|^2 =  1.024E-11

     Pert. #  1: Fermi energy shift (Ry) =     0.0000E+00     0.0000E+00

      iter #   4 total cpu time :  1150.7 secs   av.it.:  16.9
      thresh= 3.199E-07 alpha_mix =  0.700 |ddv_scf|^2 =  4.057E-14

     End of self-consistent calculation

     Convergence has been achieved 


     Representation #   5 mode #   5

     Self-consistent Calculation

     Pert. #  1: Fermi energy shift (Ry) =     0.0000E+00     0.0000E+00

      iter #   1 total cpu time :  1210.9 secs   av.it.:   7.5
      thresh= 1.000E-02 alpha_mix =  0.700 |ddv_scf|^2 =  1.375E-09

     Pert. #  1: Fermi energy shift (Ry) =     0.0000E+00     0.0000E+00

      iter #   2 total cpu time :  1259.8 secs   av.it.:  15.8
      thresh= 3.708E-06 alpha_mix =  0.700 |ddv_scf|^2 =  2.567E-10

     Pert. #  1: Fermi energy shift (Ry) =     0.0000E+00     0.0000E+00

      iter #   3 total cpu time :  1308.8 secs   av.it.:  15.8
      thresh= 1.602E-06 alpha_mix =  0.700 |ddv_scf|^2 =  1.024E-11

     Pert. #  1: Fermi energy shift (Ry) =     0.0000E+00     0.0000E+00

      iter #   4 total cpu time :  1363.3 secs   av.it.:  16.8
      thresh= 3.199E-07 alpha_mix =  0.700 |ddv_scf|^2 =  4.057E-14

     End of self-consistent calculation

     Convergence has been achieved 


     Representation #   6 mode #   6

     Self-consistent Calculation

     Pert. #  1: Fermi energy shift (Ry) =     0.0000E+00     0.0000E+00

      iter #   1 total cpu time :  1425.0 secs   av.it.:   8.0
      thresh= 1.000E-02 alpha_mix =  0.700 |ddv_scf|^2 =  5.093E-09

     Pert. #  1: Fermi energy shift (Ry) =     0.0000E+00     0.0000E+00

      iter #   2 total cpu time :  1473.9 secs   av.it.:  16.7
      thresh= 7.136E-06 alpha_mix =  0.700 |ddv_scf|^2 =  1.942E-09

     Pert. #  1: Fermi energy shift (Ry) =     0.0000E+00     0.0000E+00

      iter #   3 total cpu time :  1523.1 secs   av.it.:  17.0
      thresh= 4.406E-06 alpha_mix =  0.700 |ddv_scf|^2 =  2.326E-09

     Pert. #  1: Fermi energy shift (Ry) =     0.0000E+00     0.0000E+00

      iter #   4 total cpu time :  1577.6 secs   av.it.:  15.8
      thresh= 4.823E-06 alpha_mix =  0.700 |ddv_scf|^2 =  1.187E-10

     Pert. #  1: Fermi energy shift (Ry) =     0.0000E+00     0.0000E+00

      iter #   5 total cpu time :  1635.5 secs   av.it.:  16.0
      thresh= 1.089E-06 alpha_mix =  0.700 |ddv_scf|^2 =  1.097E-12

     Pert. #  1: Fermi energy shift (Ry) =     0.0000E+00     0.0000E+00

      iter #   6 total cpu time :  1689.4 secs   av.it.:  15.7
      thresh= 1.047E-07 alpha_mix =  0.700 |ddv_scf|^2 =  3.730E-15

     End of self-consistent calculation

     Convergence has been achieved 

     Number of q in the star =    1
     List of q in the star:
          1   0.000000000   0.000000000   0.000000000

     Diagonalizing the dynamical matrix

     q = (    0.000000000   0.000000000   0.000000000 ) 

 **************************************************************************
     freq (    1) =      -6.888510 [THz] =    -229.775946 [cm-1]
     freq (    2) =      -6.888478 [THz] =    -229.774907 [cm-1]
     freq (    3) =       4.101452 [THz] =     136.809712 [cm-1]
     freq (    4) =      12.220664 [THz] =     407.637477 [cm-1]
     freq (    5) =      12.220877 [THz] =     407.644579 [cm-1]
     freq (    6) =      71.846146 [THz] =    2396.529467 [cm-1]
 **************************************************************************

     Mode symmetry, C_1 (1)     point group:

     freq (   1-   1) =       -229.8  [cm-1]   --> A               I+R
     freq (   2-   2) =       -229.8  [cm-1]   --> A               I+R
     freq (   3-   3) =        136.8  [cm-1]   --> A               I+R
     freq (   4-   4) =        407.6  [cm-1]   --> A               I+R
     freq (   5-   5) =        407.6  [cm-1]   --> A               I+R
     freq (   6-   6) =       2396.5  [cm-1]   --> A               I+R

     PHONON       :  25m42.05s CPU  28m29.83s WALL

     INITIALIZATION: 
     phq_setup    :     12.89s CPU     14.49s WALL (       1 calls)
     phq_init     :    155.81s CPU    159.49s WALL (       1 calls)

     phq_init     :    155.81s CPU    159.49s WALL (       1 calls)
     set_drhoc    :     23.80s CPU     23.90s WALL (       3 calls)
     init_vloc    :      0.17s CPU      0.17s WALL (       1 calls)
     init_us_1    :      0.01s CPU      0.01s WALL (       1 calls)
     newd         :      0.81s CPU      0.85s WALL (       1 calls)
     dvanqq       :     78.36s CPU     79.17s WALL (       1 calls)
     drho         :     38.66s CPU     40.66s WALL (       1 calls)

     DYNAMICAL MATRIX:
     dynmat0      :     22.87s CPU     23.65s WALL (       1 calls)
     phqscf       :   1355.78s CPU   1510.54s WALL (       1 calls)
     dynmatrix    :      0.00s CPU      0.04s WALL (       1 calls)

     phqscf       :   1355.78s CPU   1510.54s WALL (       1 calls)
     solve_linter :   1351.33s CPU   1491.80s WALL (       6 calls)
     drhodv       :      4.44s CPU      4.64s WALL (       6 calls)

     dynmat0      :     22.87s CPU     23.65s WALL (       1 calls)
     dynmat_us    :      0.91s CPU      0.95s WALL (       1 calls)
     d2ionq       :      0.20s CPU      0.20s WALL (       1 calls)
     dynmatcc     :     21.68s CPU     22.31s WALL (       1 calls)

     dynmat_us    :      0.91s CPU      0.95s WALL (       1 calls)
     addusdynmat  :      0.00s CPU      0.00s WALL (       1 calls)

     phqscf       :   1355.78s CPU   1510.54s WALL (       1 calls)
     solve_linter :   1351.33s CPU   1491.80s WALL (       6 calls)

     solve_linter :   1351.33s CPU   1491.80s WALL (       6 calls)
     dvqpsi_us    :     13.95s CPU     14.29s WALL (      18 calls)
     ortho        :      2.82s CPU      2.89s WALL (      84 calls)
     cgsolve      :    514.88s CPU    521.67s WALL (      84 calls)
     incdrhoscf   :     30.08s CPU     30.76s WALL (      84 calls)
     addusddens   :     86.21s CPU     90.21s WALL (      34 calls)
     vpsifft      :     24.52s CPU     24.97s WALL (      66 calls)
     dv_of_drho   :    189.74s CPU    197.14s WALL (      28 calls)
     mix_pot      :     20.89s CPU     43.64s WALL (      28 calls)
     ef_shift     :     28.16s CPU     28.83s WALL (      34 calls)
     localdos     :     38.28s CPU     39.57s WALL (       6 calls)
     psymdvscf    :    144.72s CPU    195.92s WALL (      28 calls)
     newdq        :    112.40s CPU    116.84s WALL (      28 calls)
     adddvscf     :      0.91s CPU      0.93s WALL (      66 calls)
     drhodvus     :      5.94s CPU     17.59s WALL (       6 calls)

     dvqpsi_us    :     13.95s CPU     14.29s WALL (      18 calls)
     dvqpsi_us_on :      0.33s CPU      0.34s WALL (      18 calls)

     cgsolve      :    514.88s CPU    521.67s WALL (      84 calls)
     ch_psi       :    496.91s CPU    503.49s WALL (    1453 calls)

     ch_psi       :    496.91s CPU    503.49s WALL (    1453 calls)
     h_psi        :    444.71s CPU    450.65s WALL (    1453 calls)
     last         :     37.32s CPU     37.78s WALL (    1453 calls)

     h_psi        :    444.71s CPU    450.65s WALL (    1453 calls)
     add_vuspsi   :      9.51s CPU      9.62s WALL (    1453 calls)

     incdrhoscf   :     30.08s CPU     30.76s WALL (      84 calls)
     addusdbec    :      0.80s CPU      0.95s WALL (     102 calls)

     drhodvus     :      5.94s CPU     17.59s WALL (       6 calls)

      General routines
     calbec       :     20.47s CPU     20.95s WALL (    3212 calls)
     fft          :    328.45s CPU    335.29s WALL (    1185 calls)
     ffts         :     21.30s CPU     21.87s WALL (     288 calls)
     fftw         :    406.95s CPU    412.56s WALL (   14309 calls)
     davcio       :      0.14s CPU     28.06s WALL (     630 calls)
     write_rec    :      0.01s CPU     31.65s WALL (      34 calls)


     PHONON       :  25m42.05s CPU  28m29.83s WALL


   This run was terminated on:  23:50: 8  20Sep2022            

=------------------------------------------------------------------------------=
   JOB DONE.
=------------------------------------------------------------------------------=
