
     Program PHONON v.6.7MaX starts on 29Sep2022 at  0:55:53 

     This program is part of the open-source Quantum ESPRESSO suite
     for quantum simulation of materials; please cite
         "P. Giannozzi et al., J. Phys.:Condens. Matter 21 395502 (2009);
         "P. Giannozzi et al., J. Phys.:Condens. Matter 29 465901 (2017);
          URL http://www.quantum-espresso.org", 
     in publications or presentations arising from this work. More details at
     http://www.quantum-espresso.org/quote

     Parallel version (MPI), running on   120 processors

     MPI processes distributed on     1 nodes
     K-points division:     npool     =       8
     R & G space division:  proc/nbgrp/npool/nimage =      15
     Waiting for input...
     Reading input from standard input

     Reading xml data from directory:

     ./N2_ESM_std.save/

     IMPORTANT: XC functional enforced from input :
     Exchange-correlation= PBE
                           (   1   4   3   4   0   0   0)
     Any further DFT definition will be discarded
     Please, verify this is what you really want


     Parallelization info
     --------------------
     sticks:   dense  smooth     PW     G-vecs:    dense   smooth      PW
     Min        3636    1818    468               639190   225950   29545
     Max        3637    1819    470               639197   225953   29547
     Sum       54553   27281   7033              9587919  3389267  443191


     Adding external electric field
        E field amplitude [Ha a.u.]: -1.5855E-03
        Potential amp.       -0.1079 Ry
        Total length         34.0151 bohr


     negative rho (up, down):  2.986E-04 2.986E-04
     Reading collected, re-writing distributed wavefunctions

     Calculation of q =    0.0000000   0.0000000   0.0000000

     phonons (vibrational modes) for N2                                         

     bravais-lattice index     =            0
     lattice parameter (alat)  =      37.7945  a.u.
     unit-cell volume          =   53986.6760 (a.u.)^3
     number of atoms/cell      =            2
     number of atomic types    =            1
     kinetic-energy cut-off    =      60.0000  Ry
     charge density cut-off    =     480.0000  Ry
     convergence threshold     =      1.0E-12
     beta                      =       0.7000
     number of iterations used =            4
     Exchange-correlation= PBE
                           (   1   4   3   4   0   0   0)


     celldm(1)=   37.79452  celldm(2)=    0.00000  celldm(3)=    0.00000
     celldm(4)=    0.00000  celldm(5)=    0.00000  celldm(6)=    0.00000

     crystal axes: (cart. coord. in units of alat)
               a(1) = (  1.0000  0.0000  0.0000 )  
               a(2) = (  0.0000  1.0000  0.0000 )  
               a(3) = (  0.0000  0.0000  1.0000 )  

     reciprocal axes: (cart. coord. in units 2 pi/alat)
               b(1) = (  1.0000  0.0000  0.0000 )  
               b(2) = (  0.0000  1.0000  0.0000 )  
               b(3) = (  0.0000  0.0000  1.0000 )  


     Atoms inside the unit cell: 

     Cartesian axes

     site n.  atom      mass           positions (alat units)
        1     N   14.0067   tau(    1) = (    0.50000    0.50000    0.00000  )
        2     N   14.0067   tau(    2) = (    0.50000    0.50000   -0.05526  )

     Computing dynamical matrix for 
                    q = (   0.0000000   0.0000000   0.0000000 )

      2 Sym.Ops. (with q -> -q+G )


     G cutoff =17367.5767  ( 639197 G-vectors)     FFT grid: (270,270,270)
     G cutoff = 8683.7884  ( 225950 G-vectors)  smooth grid: (192,192,192)

     number of k points=    20  Methfessel-Paxton smearing, width (Ry)=  0.0100
                       cart. coord. in units 2pi/alat
        k(    1) = (   0.0000000   0.0000000   0.0000000), wk =   0.0625000
        k(    2) = (   0.0000000   0.2500000   0.0000000), wk =   0.1250000
        k(    3) = (   0.0000000  -0.5000000   0.0000000), wk =   0.0625000
        k(    4) = (   0.2500000   0.0000000   0.0000000), wk =   0.1250000
        k(    5) = (   0.2500000   0.2500000   0.0000000), wk =   0.1250000
        k(    6) = (   0.2500000  -0.5000000   0.0000000), wk =   0.1250000
        k(    7) = (   0.2500000  -0.2500000   0.0000000), wk =   0.1250000
        k(    8) = (  -0.5000000   0.0000000   0.0000000), wk =   0.0625000
        k(    9) = (  -0.5000000   0.2500000   0.0000000), wk =   0.1250000
        k(   10) = (  -0.5000000  -0.5000000   0.0000000), wk =   0.0625000
        k(   11) = (   0.0000000   0.0000000   0.0000000), wk =   0.0625000
        k(   12) = (   0.0000000   0.2500000   0.0000000), wk =   0.1250000
        k(   13) = (   0.0000000  -0.5000000   0.0000000), wk =   0.0625000
        k(   14) = (   0.2500000   0.0000000   0.0000000), wk =   0.1250000
        k(   15) = (   0.2500000   0.2500000   0.0000000), wk =   0.1250000
        k(   16) = (   0.2500000  -0.5000000   0.0000000), wk =   0.1250000
        k(   17) = (   0.2500000  -0.2500000   0.0000000), wk =   0.1250000
        k(   18) = (  -0.5000000   0.0000000   0.0000000), wk =   0.0625000
        k(   19) = (  -0.5000000   0.2500000   0.0000000), wk =   0.1250000
        k(   20) = (  -0.5000000  -0.5000000   0.0000000), wk =   0.0625000

     PseudoPot. # 1 for N  read from file:
     ../../SSSP/N.pbe-n-radius_5.UPF
     MD5 check sum: 16739722b17309cd8fe442a2ace49922
     Pseudo is Ultrasoft + core correction, Zval =  5.0
     Generated using "atomic" code by A. Dal Corso  v.5.1
     Using radial grid of 1085 points,  4 beta functions with: 
                l(1) =   0
                l(2) =   0
                l(3) =   1
                l(4) =   1
     Q(r) pseudized with 0 coefficients 


     Mode symmetry, C_1 (1)     point group:


     Atomic displacements:
     There are    6 irreducible representations

     Representation     1      1 modes -  To be done

     Representation     2      1 modes -  To be done

     Representation     3      1 modes -  To be done

     Representation     4      1 modes -  To be done

     Representation     5      1 modes -  To be done

     Representation     6      1 modes -  To be done



     Alpha used in Ewald sum =   2.8000

     -------------------------------------------------
     Parameters for Dispersion (Grimme-D2) Correction:
     -------------------------------------------------
       atom      VdW radius       C_6     

        N          2.640         42.670

     Calculating the D2 contribution to the dynamical matrix.
     D2 energy =       -0.00000235 Ry
     Done.


     negative rho (up, down):  2.986E-04 2.986E-04
     PHONON       :   3m 7.41s CPU   3m15.35s WALL



     Representation #   1 mode #   1

     Self-consistent Calculation

     Pert. #  1: Fermi energy shift (Ry) =     0.0000E+00     0.0000E+00

      iter #   1 total cpu time :   240.9 secs   av.it.:   7.4
      thresh= 1.000E-02 alpha_mix =  0.700 |ddv_scf|^2 =  9.864E-07

     Pert. #  1: Fermi energy shift (Ry) =     0.0000E+00     0.0000E+00

      iter #   2 total cpu time :   290.0 secs   av.it.:  12.2
      thresh= 9.932E-05 alpha_mix =  0.700 |ddv_scf|^2 =  1.376E-07

     Pert. #  1: Fermi energy shift (Ry) =     0.0000E+00     0.0000E+00

      iter #   3 total cpu time :   336.6 secs   av.it.:  12.2
      thresh= 3.710E-05 alpha_mix =  0.700 |ddv_scf|^2 =  3.274E-09

     Pert. #  1: Fermi energy shift (Ry) =     0.0000E+00     0.0000E+00

      iter #   4 total cpu time :   385.2 secs   av.it.:  13.4
      thresh= 5.722E-06 alpha_mix =  0.700 |ddv_scf|^2 =  1.342E-10

     Pert. #  1: Fermi energy shift (Ry) =     0.0000E+00     0.0000E+00

      iter #   5 total cpu time :   434.7 secs   av.it.:  12.4
      thresh= 1.158E-06 alpha_mix =  0.700 |ddv_scf|^2 =  9.760E-13

     End of self-consistent calculation

     Convergence has been achieved 


     Representation #   2 mode #   2

     Self-consistent Calculation

     Pert. #  1: Fermi energy shift (Ry) =     0.0000E+00     0.0000E+00

      iter #   1 total cpu time :   495.5 secs   av.it.:   7.4
      thresh= 1.000E-02 alpha_mix =  0.700 |ddv_scf|^2 =  9.864E-07

     Pert. #  1: Fermi energy shift (Ry) =     0.0000E+00     0.0000E+00

      iter #   2 total cpu time :   540.0 secs   av.it.:  12.2
      thresh= 9.932E-05 alpha_mix =  0.700 |ddv_scf|^2 =  1.376E-07

     Pert. #  1: Fermi energy shift (Ry) =     0.0000E+00     0.0000E+00

      iter #   3 total cpu time :   586.7 secs   av.it.:  12.2
      thresh= 3.710E-05 alpha_mix =  0.700 |ddv_scf|^2 =  3.274E-09

     Pert. #  1: Fermi energy shift (Ry) =     0.0000E+00     0.0000E+00

      iter #   4 total cpu time :   636.3 secs   av.it.:  13.4
      thresh= 5.722E-06 alpha_mix =  0.700 |ddv_scf|^2 =  1.342E-10

     Pert. #  1: Fermi energy shift (Ry) =     0.0000E+00     0.0000E+00

      iter #   5 total cpu time :   686.5 secs   av.it.:  12.5
      thresh= 1.158E-06 alpha_mix =  0.700 |ddv_scf|^2 =  9.760E-13

     End of self-consistent calculation

     Convergence has been achieved 


     Representation #   3 mode #   3

     Self-consistent Calculation

     Pert. #  1: Fermi energy shift (Ry) =     0.0000E+00     0.0000E+00

      iter #   1 total cpu time :   746.0 secs   av.it.:   8.0
      thresh= 1.000E-02 alpha_mix =  0.700 |ddv_scf|^2 =  1.291E-06

     Pert. #  1: Fermi energy shift (Ry) =     0.0000E+00     0.0000E+00

      iter #   2 total cpu time :   792.6 secs   av.it.:  13.0
      thresh= 1.136E-04 alpha_mix =  0.700 |ddv_scf|^2 =  2.909E-07

     Pert. #  1: Fermi energy shift (Ry) =     0.0000E+00     0.0000E+00

      iter #   3 total cpu time :   840.0 secs   av.it.:  14.6
      thresh= 5.394E-05 alpha_mix =  0.700 |ddv_scf|^2 =  6.917E-07

     Pert. #  1: Fermi energy shift (Ry) =     0.0000E+00     0.0000E+00

      iter #   4 total cpu time :   891.7 secs   av.it.:  14.0
      thresh= 8.317E-05 alpha_mix =  0.700 |ddv_scf|^2 =  6.236E-08

     Pert. #  1: Fermi energy shift (Ry) =     0.0000E+00     0.0000E+00

      iter #   5 total cpu time :   943.2 secs   av.it.:  13.0
      thresh= 2.497E-05 alpha_mix =  0.700 |ddv_scf|^2 =  3.307E-10

     Pert. #  1: Fermi energy shift (Ry) =     0.0000E+00     0.0000E+00

      iter #   6 total cpu time :   995.3 secs   av.it.:  14.0
      thresh= 1.819E-06 alpha_mix =  0.700 |ddv_scf|^2 =  5.233E-12

     Pert. #  1: Fermi energy shift (Ry) =     0.0000E+00     0.0000E+00

      iter #   7 total cpu time :  1048.3 secs   av.it.:  14.0
      thresh= 2.287E-07 alpha_mix =  0.700 |ddv_scf|^2 =  1.103E-15

     End of self-consistent calculation

     Convergence has been achieved 


     Representation #   4 mode #   4

     Self-consistent Calculation

     Pert. #  1: Fermi energy shift (Ry) =     0.0000E+00     0.0000E+00

      iter #   1 total cpu time :  1109.4 secs   av.it.:   7.4
      thresh= 1.000E-02 alpha_mix =  0.700 |ddv_scf|^2 =  1.691E-06

     Pert. #  1: Fermi energy shift (Ry) =     0.0000E+00     0.0000E+00

      iter #   2 total cpu time :  1153.6 secs   av.it.:  12.2
      thresh= 1.300E-04 alpha_mix =  0.700 |ddv_scf|^2 =  2.557E-07

     Pert. #  1: Fermi energy shift (Ry) =     0.0000E+00     0.0000E+00

      iter #   3 total cpu time :  1199.2 secs   av.it.:  12.2
      thresh= 5.057E-05 alpha_mix =  0.700 |ddv_scf|^2 =  1.211E-08

     Pert. #  1: Fermi energy shift (Ry) =     0.0000E+00     0.0000E+00

      iter #   4 total cpu time :  1249.8 secs   av.it.:  12.8
      thresh= 1.100E-05 alpha_mix =  0.700 |ddv_scf|^2 =  4.066E-10

     Pert. #  1: Fermi energy shift (Ry) =     0.0000E+00     0.0000E+00

      iter #   5 total cpu time :  1302.6 secs   av.it.:  12.8
      thresh= 2.016E-06 alpha_mix =  0.700 |ddv_scf|^2 =  1.692E-11

     Pert. #  1: Fermi energy shift (Ry) =     0.0000E+00     0.0000E+00

      iter #   6 total cpu time :  1354.0 secs   av.it.:  12.4
      thresh= 4.113E-07 alpha_mix =  0.700 |ddv_scf|^2 =  1.150E-14

     End of self-consistent calculation

     Convergence has been achieved 


     Representation #   5 mode #   5

     Self-consistent Calculation

     Pert. #  1: Fermi energy shift (Ry) =     0.0000E+00     0.0000E+00

      iter #   1 total cpu time :  1414.7 secs   av.it.:   7.4
      thresh= 1.000E-02 alpha_mix =  0.700 |ddv_scf|^2 =  1.691E-06

     Pert. #  1: Fermi energy shift (Ry) =     0.0000E+00     0.0000E+00

      iter #   2 total cpu time :  1459.4 secs   av.it.:  12.2
      thresh= 1.300E-04 alpha_mix =  0.700 |ddv_scf|^2 =  2.557E-07

     Pert. #  1: Fermi energy shift (Ry) =     0.0000E+00     0.0000E+00

      iter #   3 total cpu time :  1505.9 secs   av.it.:  12.2
      thresh= 5.057E-05 alpha_mix =  0.700 |ddv_scf|^2 =  1.211E-08

     Pert. #  1: Fermi energy shift (Ry) =     0.0000E+00     0.0000E+00

      iter #   4 total cpu time :  1555.9 secs   av.it.:  12.8
      thresh= 1.100E-05 alpha_mix =  0.700 |ddv_scf|^2 =  4.066E-10

     Pert. #  1: Fermi energy shift (Ry) =     0.0000E+00     0.0000E+00

      iter #   5 total cpu time :  1607.7 secs   av.it.:  12.8
      thresh= 2.016E-06 alpha_mix =  0.700 |ddv_scf|^2 =  1.692E-11

     Pert. #  1: Fermi energy shift (Ry) =     0.0000E+00     0.0000E+00

      iter #   6 total cpu time :  1658.8 secs   av.it.:  12.4
      thresh= 4.113E-07 alpha_mix =  0.700 |ddv_scf|^2 =  1.150E-14

     End of self-consistent calculation

     Convergence has been achieved 


     Representation #   6 mode #   6

     Self-consistent Calculation

     Pert. #  1: Fermi energy shift (Ry) =     0.0000E+00     0.0000E+00

      iter #   1 total cpu time :  1718.8 secs   av.it.:   8.0
      thresh= 1.000E-02 alpha_mix =  0.700 |ddv_scf|^2 =  4.263E-06

     Pert. #  1: Fermi energy shift (Ry) =     0.0000E+00     0.0000E+00

      iter #   2 total cpu time :  1764.7 secs   av.it.:  13.0
      thresh= 2.065E-04 alpha_mix =  0.700 |ddv_scf|^2 =  7.131E-07

     Pert. #  1: Fermi energy shift (Ry) =     0.0000E+00     0.0000E+00

      iter #   3 total cpu time :  1811.9 secs   av.it.:  14.1
      thresh= 8.444E-05 alpha_mix =  0.700 |ddv_scf|^2 =  8.121E-07

     Pert. #  1: Fermi energy shift (Ry) =     0.0000E+00     0.0000E+00

      iter #   4 total cpu time :  1862.4 secs   av.it.:  13.0
      thresh= 9.012E-05 alpha_mix =  0.700 |ddv_scf|^2 =  3.846E-08

     Pert. #  1: Fermi energy shift (Ry) =     0.0000E+00     0.0000E+00

      iter #   5 total cpu time :  1915.4 secs   av.it.:  14.3
      thresh= 1.961E-05 alpha_mix =  0.700 |ddv_scf|^2 =  2.449E-09

     Pert. #  1: Fermi energy shift (Ry) =     0.0000E+00     0.0000E+00

      iter #   6 total cpu time :  1967.0 secs   av.it.:  14.0
      thresh= 4.949E-06 alpha_mix =  0.700 |ddv_scf|^2 =  1.537E-12

     Pert. #  1: Fermi energy shift (Ry) =     0.0000E+00     0.0000E+00

      iter #   7 total cpu time :  2019.3 secs   av.it.:  14.0
      thresh= 1.240E-07 alpha_mix =  0.700 |ddv_scf|^2 =  5.588E-15

     End of self-consistent calculation

     Convergence has been achieved 

     Number of q in the star =    1
     List of q in the star:
          1   0.000000000   0.000000000   0.000000000

     Diagonalizing the dynamical matrix

     q = (    0.000000000   0.000000000   0.000000000 ) 

 **************************************************************************
     freq (    1) =      -2.621479 [THz] =     -87.443124 [cm-1]
     freq (    2) =      -2.439913 [THz] =     -81.386736 [cm-1]
     freq (    3) =      -2.439903 [THz] =     -81.386395 [cm-1]
     freq (    4) =       4.998435 [THz] =     166.729851 [cm-1]
     freq (    5) =       4.998435 [THz] =     166.729858 [cm-1]
     freq (    6) =      71.729771 [THz] =    2392.647615 [cm-1]
 **************************************************************************

     Mode symmetry, C_1 (1)     point group:

     freq (   1-   1) =        -87.4  [cm-1]   --> A               I+R
     freq (   2-   2) =        -81.4  [cm-1]   --> A               I+R
     freq (   3-   3) =        -81.4  [cm-1]   --> A               I+R
     freq (   4-   4) =        166.7  [cm-1]   --> A               I+R
     freq (   5-   5) =        166.7  [cm-1]   --> A               I+R
     freq (   6-   6) =       2392.6  [cm-1]   --> A               I+R

     PHONON       :  30m24.59s CPU  33m59.80s WALL

     INITIALIZATION: 
     phq_setup    :     12.89s CPU     14.46s WALL (       1 calls)
     phq_init     :    156.13s CPU    159.41s WALL (       1 calls)

     phq_init     :    156.13s CPU    159.41s WALL (       1 calls)
     set_drhoc    :     23.96s CPU     24.06s WALL (       3 calls)
     init_vloc    :      0.17s CPU      0.17s WALL (       1 calls)
     init_us_1    :      0.03s CPU      0.03s WALL (       1 calls)
     newd         :      1.07s CPU      1.12s WALL (       1 calls)
     dvanqq       :     78.31s CPU     79.11s WALL (       1 calls)
     drho         :     38.79s CPU     40.53s WALL (       1 calls)

     DYNAMICAL MATRIX:
     dynmat0      :     23.05s CPU     23.70s WALL (       1 calls)
     phqscf       :   1637.13s CPU   1838.93s WALL (       1 calls)
     dynmatrix    :      0.05s CPU      0.12s WALL (       1 calls)

     phqscf       :   1637.13s CPU   1838.93s WALL (       1 calls)
     solve_linter :   1632.62s CPU   1820.59s WALL (       6 calls)
     drhodv       :      4.51s CPU      4.67s WALL (       6 calls)

     dynmat0      :     23.05s CPU     23.70s WALL (       1 calls)
     dynmat_us    :      1.02s CPU      1.06s WALL (       1 calls)
     d2ionq       :      0.20s CPU      0.20s WALL (       1 calls)
     dynmatcc     :     21.68s CPU     22.28s WALL (       1 calls)

     dynmat_us    :      1.02s CPU      1.06s WALL (       1 calls)
     addusdynmat  :      0.00s CPU      0.00s WALL (       1 calls)

     phqscf       :   1637.13s CPU   1838.93s WALL (       1 calls)
     solve_linter :   1632.62s CPU   1820.59s WALL (       6 calls)

     solve_linter :   1632.62s CPU   1820.59s WALL (       6 calls)
     dvqpsi_us    :     13.84s CPU     14.16s WALL (      18 calls)
     ortho        :      3.56s CPU      3.61s WALL (     108 calls)
     cgsolve      :    571.17s CPU    577.72s WALL (     108 calls)
     incdrhoscf   :     36.98s CPU     37.54s WALL (     108 calls)
     addusddens   :    102.49s CPU    107.48s WALL (      42 calls)
     vpsifft      :     34.94s CPU     35.52s WALL (      90 calls)
     dv_of_drho   :    247.20s CPU    257.03s WALL (      36 calls)
     mix_pot      :     19.07s CPU     55.97s WALL (      36 calls)
     ef_shift     :     35.06s CPU     35.78s WALL (      42 calls)
     localdos     :     38.80s CPU     39.96s WALL (       6 calls)
     psymdvscf    :    213.54s CPU    289.07s WALL (      36 calls)
     newdq        :    144.18s CPU    149.94s WALL (      36 calls)
     adddvscf     :      1.12s CPU      1.14s WALL (      90 calls)
     drhodvus     :      6.99s CPU     15.74s WALL (       6 calls)

     dvqpsi_us    :     13.84s CPU     14.16s WALL (      18 calls)
     dvqpsi_us_on :      0.32s CPU      0.33s WALL (      18 calls)

     cgsolve      :    571.17s CPU    577.72s WALL (     108 calls)
     ch_psi       :    550.01s CPU    556.35s WALL (    1579 calls)

     ch_psi       :    550.01s CPU    556.35s WALL (    1579 calls)
     h_psi        :    492.60s CPU    498.30s WALL (    1579 calls)
     last         :     42.09s CPU     42.55s WALL (    1579 calls)

     h_psi        :    492.60s CPU    498.30s WALL (    1579 calls)
     add_vuspsi   :      9.77s CPU      9.88s WALL (    1579 calls)

     incdrhoscf   :     36.98s CPU     37.54s WALL (     108 calls)
     addusdbec    :      1.47s CPU      1.49s WALL (     126 calls)

     drhodvus     :      6.99s CPU     15.74s WALL (       6 calls)

      General routines
     calbec       :     24.12s CPU     24.46s WALL (    3512 calls)
     fft          :    412.11s CPU    419.95s WALL (    1457 calls)
     ffts         :     24.54s CPU     24.97s WALL (     320 calls)
     fftw         :    466.98s CPU    472.43s WALL (   15869 calls)
     davcio       :      0.16s CPU     34.58s WALL (     822 calls)
     write_rec    :      0.00s CPU     35.78s WALL (      42 calls)


     PHONON       :  30m24.59s CPU  33m59.81s WALL


   This run was terminated on:   1:29:53  29Sep2022            

=------------------------------------------------------------------------------=
   JOB DONE.
=------------------------------------------------------------------------------=
