     Message from routine get_command_line:
     unexpected argument # 4     :-in

     Program PWSCF v.6.7MaX starts on 28Sep2022 at 20:54:10 

     This program is part of the open-source Quantum ESPRESSO suite
     for quantum simulation of materials; please cite
         "P. Giannozzi et al., J. Phys.:Condens. Matter 21 395502 (2009);
         "P. Giannozzi et al., J. Phys.:Condens. Matter 29 465901 (2017);
          URL http://www.quantum-espresso.org", 
     in publications or presentations arising from this work. More details at
     http://www.quantum-espresso.org/quote

     Parallel version (MPI), running on   120 processors

     MPI processes distributed on     1 nodes
     K-points division:     npool     =       8
     R & G space division:  proc/nbgrp/npool/nimage =      15
     Waiting for input...
     Reading input from standard input
Warning: card &CELL ignored
Warning: card / ignored

     Current dimensions of program PWSCF are:
     Max number of different atomic species (ntypx) = 10
     Max number of k-points (npk) =  40000
     Max angular momentum in pseudopotentials (lmaxx) =  3

     IMPORTANT: XC functional enforced from input :
     Exchange-correlation= PBE
                           (   1   4   3   4   0   0   0)
     Any further DFT definition will be discarded
     Please, verify this is what you really want


     -------------------------------------------------
     Parameters for Dispersion (Grimme-D2) Correction:
     -------------------------------------------------
       atom      VdW radius       C_6     

        H          1.892          4.857

     Subspace diagonalization in iterative solution of the eigenvalue problem:
     one sub-group per band group will be used
     scalapack distributed-memory algorithm (size of sub-group:  3*  3 procs)


     Parallelization info
     --------------------
     sticks:   dense  smooth     PW     G-vecs:    dense   smooth      PW
     Min        3636    1818    468               639190   225950   29545
     Max        3637    1819    470               639197   225953   29547
     Sum       54553   27281   7033              9587919  3389267  443191



     bravais-lattice index     =            0
     lattice parameter (alat)  =      37.7945  a.u.
     unit-cell volume          =   53986.6760 (a.u.)^3
     number of atoms/cell      =            2
     number of atomic types    =            1
     number of electrons       =         2.00
     number of Kohn-Sham states=            5
     kinetic-energy cutoff     =      60.0000  Ry
     charge density cutoff     =     480.0000  Ry
     scf convergence threshold =      1.0E-08
     mixing beta               =       0.7000
     number of iterations used =           10  plain     mixing
     energy convergence thresh.=      7.3E-07
     force convergence thresh. =      3.9E-04
     Exchange-correlation= PBE
                           (   1   4   3   4   0   0   0)
     nstep                     =           50


     celldm(1)=  37.794522  celldm(2)=   0.000000  celldm(3)=   0.000000
     celldm(4)=   0.000000  celldm(5)=   0.000000  celldm(6)=   0.000000

     crystal axes: (cart. coord. in units of alat)
               a(1) = (   1.000000   0.000000   0.000000 )  
               a(2) = (   0.000000   1.000000   0.000000 )  
               a(3) = (   0.000000   0.000000   1.000000 )  

     reciprocal axes: (cart. coord. in units 2 pi/alat)
               b(1) = (  1.000000  0.000000  0.000000 )  
               b(2) = (  0.000000  1.000000  0.000000 )  
               b(3) = (  0.000000  0.000000  1.000000 )  


     PseudoPot. # 1 for H  read from file:
     ../../SSSP/H.pbe-rrkjus_psl.1.0.0.UPF
     MD5 check sum: f52b6d4d1c606e5624b1dc7b2218f220
     Pseudo is Ultrasoft, Zval =  1.0
     Generated using "atomic" code by A. Dal Corso  v.5.1
     Using radial grid of  929 points,  2 beta functions with: 
                l(1) =   0
                l(2) =   0
     Q(r) pseudized with 0 coefficients 


     atomic species   valence    mass     pseudopotential
        H              1.00     1.00800     H ( 1.00)

     Starting magnetic structure 
     atomic species   magnetization
        H            0.100

     No symmetry found



   Cartesian axes

     site n.     atom                  positions (alat units)
         1           H   tau(   1) = (   0.5000000   0.5000000   0.0000000  )
         2           H   tau(   2) = (   0.5000000   0.5000000  -0.0369000  )

     number of k points=    10  Methfessel-Paxton smearing, width (Ry)=  0.0100
                       cart. coord. in units 2pi/alat
        k(    1) = (   0.0000000   0.0000000   0.0000000), wk =   0.0625000
        k(    2) = (   0.0000000   0.2500000   0.0000000), wk =   0.1250000
        k(    3) = (   0.0000000  -0.5000000   0.0000000), wk =   0.0625000
        k(    4) = (   0.2500000   0.0000000   0.0000000), wk =   0.1250000
        k(    5) = (   0.2500000   0.2500000   0.0000000), wk =   0.1250000
        k(    6) = (   0.2500000  -0.5000000   0.0000000), wk =   0.1250000
        k(    7) = (   0.2500000  -0.2500000   0.0000000), wk =   0.1250000
        k(    8) = (  -0.5000000   0.0000000   0.0000000), wk =   0.0625000
        k(    9) = (  -0.5000000   0.2500000   0.0000000), wk =   0.1250000
        k(   10) = (  -0.5000000  -0.5000000   0.0000000), wk =   0.0625000

     Dense  grid:  9587919 G-vectors     FFT dimensions: ( 270, 270, 270)

     Smooth grid:  3389267 G-vectors     FFT dimensions: ( 192, 192, 192)

     Estimated max dynamical RAM per process >     317.71 MB

     Estimated total dynamical RAM >      37.23 GB

     Adding external electric field
        E field amplitude [Ha a.u.]: -3.1525E-02
        Potential amp.       -2.1446 Ry
        Total length         34.0151 bohr

     Generating pointlists ...
     new r_m :   0.0152 (alat units)  0.5753 (a.u.) for type    1

     Initial potential from superposition of free atoms

     starting charge    1.99998, renormalised to    2.00000

     negative rho (up, down):  2.630E-05 2.152E-05
     Starting wfcs are    2 randomized atomic wfcs +    3 random wfcs

     total cpu time spent up to now is       20.0 secs

     Self-consistent Calculation

     iteration #  1     ecut=    60.00 Ry     beta= 0.70
     CG style diagonalization
     c_bands:  3 eigenvalues not converged
     c_bands:  3 eigenvalues not converged
     c_bands:  3 eigenvalues not converged
     ethr =  1.00E-04,  avg # of iterations = 16.6

     negative rho (up, down):  5.239E-05 5.083E-05

     total cpu time spent up to now is       48.2 secs

     total energy              =      -2.33002364 Ry
     estimated scf accuracy    <       0.12194413 Ry

     total magnetization       =     0.00 Bohr mag/cell
     absolute magnetization    =     0.01 Bohr mag/cell

     iteration #  2     ecut=    60.00 Ry     beta= 0.70
     CG style diagonalization
     ethr =  6.10E-03,  avg # of iterations =  3.0

     negative rho (up, down):  5.901E-05 5.866E-05

     total cpu time spent up to now is       62.6 secs

     total energy              =      -2.33896680 Ry
     estimated scf accuracy    <       0.00129029 Ry

     total magnetization       =    -0.00 Bohr mag/cell
     absolute magnetization    =     0.00 Bohr mag/cell

     iteration #  3     ecut=    60.00 Ry     beta= 0.70
     CG style diagonalization
     c_bands:  1 eigenvalues not converged
     ethr =  6.45E-05,  avg # of iterations =  8.0

     negative rho (up, down):  6.465E-05 6.402E-05

     total cpu time spent up to now is       82.5 secs

     total energy              =      -2.33954642 Ry
     estimated scf accuracy    <       0.00007080 Ry

     total magnetization       =     0.00 Bohr mag/cell
     absolute magnetization    =     0.00 Bohr mag/cell

     iteration #  4     ecut=    60.00 Ry     beta= 0.70
     CG style diagonalization
     ethr =  3.54E-06,  avg # of iterations =  9.1

     negative rho (up, down):  6.402E-05 6.393E-05

     total cpu time spent up to now is      103.4 secs

     total energy              =      -2.33955367 Ry
     estimated scf accuracy    <       0.00000240 Ry

     total magnetization       =    -0.00 Bohr mag/cell
     absolute magnetization    =     0.00 Bohr mag/cell

     iteration #  5     ecut=    60.00 Ry     beta= 0.70
     CG style diagonalization
     ethr =  1.20E-07,  avg # of iterations =  3.7

     negative rho (up, down):  6.407E-05 6.403E-05

     total cpu time spent up to now is      118.7 secs

     total energy              =      -2.33955441 Ry
     estimated scf accuracy    <       0.00000015 Ry

     total magnetization       =    -0.00 Bohr mag/cell
     absolute magnetization    =     0.00 Bohr mag/cell

     iteration #  6     ecut=    60.00 Ry     beta= 0.70
     CG style diagonalization
     ethr =  7.68E-09,  avg # of iterations =  3.1

     negative rho (up, down):  6.404E-05 6.404E-05

     Magnetic moment per site:
     atom:    1    charge:    0.2157    magn:    0.0000    constr:    0.0000
     atom:    2    charge:    0.1991    magn:    0.0000    constr:    0.0000

     total cpu time spent up to now is      131.7 secs

     End of self-consistent calculation

 ------ SPIN UP ------------


          k = 0.0000 0.0000 0.0000 (423701 PWs)   bands (ev):

   -21.2384 -11.4342 -10.9711 -10.8572 -10.8571

          k = 0.0000 0.2500 0.0000 (423725 PWs)   bands (ev):

   -21.2384 -11.4314 -11.0037 -10.8489 -10.8458

          k = 0.0000-0.5000 0.0000 (423542 PWs)   bands (ev):

   -21.2384 -11.4285 -11.0301 -10.8313 -10.8273

          k = 0.2500 0.0000 0.0000 (423725 PWs)   bands (ev):

   -21.2384 -11.4313 -11.0040 -10.8487 -10.8458

          k = 0.2500 0.2500 0.0000 (423766 PWs)   bands (ev):

   -21.2384 -11.4286 -10.9999 -10.9311 -10.7567

          k = 0.2500-0.5000 0.0000 (423782 PWs)   bands (ev):

   -21.2384 -11.4258 -11.0096 -10.9338 -10.8136

          k = 0.2500-0.2500 0.0000 (423766 PWs)   bands (ev):

   -21.2384 -11.4287 -11.0000 -10.9312 -10.7563

          k =-0.5000 0.0000 0.0000 (423542 PWs)   bands (ev):

   -21.2384 -11.4284 -11.0299 -10.8311 -10.8270

          k =-0.5000 0.2500 0.0000 (423782 PWs)   bands (ev):

   -21.2384 -11.4260 -11.0096 -10.9335 -10.8134

          k =-0.5000-0.5000 0.0000 (423708 PWs)   bands (ev):

   -21.2384 -11.4235 -10.9715 -10.9712 -10.8946

 ------ SPIN DOWN ----------


          k = 0.0000 0.0000 0.0000 (423701 PWs)   bands (ev):

   -21.2382 -11.4348 -10.9713 -10.8574 -10.8567

          k = 0.0000 0.2500 0.0000 (423725 PWs)   bands (ev):

   -21.2382 -11.4319 -11.0041 -10.8491 -10.8461

          k = 0.0000-0.5000 0.0000 (423542 PWs)   bands (ev):

   -21.2382 -11.4290 -11.0304 -10.8318 -10.8275

          k = 0.2500 0.0000 0.0000 (423725 PWs)   bands (ev):

   -21.2382 -11.4319 -11.0039 -10.8488 -10.8461

          k = 0.2500 0.2500 0.0000 (423766 PWs)   bands (ev):

   -21.2382 -11.4292 -10.9999 -10.9311 -10.7513

          k = 0.2500-0.5000 0.0000 (423782 PWs)   bands (ev):

   -21.2382 -11.4265 -11.0094 -10.9339 -10.8135

          k = 0.2500-0.2500 0.0000 (423766 PWs)   bands (ev):

   -21.2382 -11.4291 -10.9999 -10.9313 -10.7562

          k =-0.5000 0.0000 0.0000 (423542 PWs)   bands (ev):

   -21.2382 -11.4289 -11.0300 -10.8311 -10.8277

          k =-0.5000 0.2500 0.0000 (423782 PWs)   bands (ev):

   -21.2382 -11.4265 -11.0099 -10.9338 -10.8136

          k =-0.5000-0.5000 0.0000 (423708 PWs)   bands (ev):

   -21.2382 -11.4241 -10.9716 -10.9712 -10.8943

     the Fermi energy is   -15.9949 ev

!    total energy              =      -2.33955445 Ry
     estimated scf accuracy    <          6.2E-09 Ry
     smearing contrib. (-TS)   =       0.00000000 Ry
     internal energy E=F+TS    =      -2.33955445 Ry

     The total energy is F=E-TS. E is the sum of the following terms:
     one-electron contribution =      -5.99756573 Ry
     hartree contribution      =       2.32298139 Ry
     xc contribution           =      -1.37903674 Ry
     ewald contribution        =       1.13394916 Ry
     Dispersion Correction     =      -0.00000164 Ry
     electric field correction =       1.58011911 Ry

     total magnetization       =    -0.00 Bohr mag/cell
     absolute magnetization    =     0.00 Bohr mag/cell

     convergence has been achieved in   6 iterations

     Forces acting on atoms (cartesian axes, Ry/au):

     atom    1 type  1   force =    -0.00000000   -0.00000000    0.02354397
     atom    2 type  1   force =     0.00000000    0.00000000   -0.02354397

     Total force =     0.023544     Total SCF correction =     0.000004

     BFGS Geometry Optimization
     Energy error            =      0.0E+00
     Gradient error          =      2.4E-02

     number of scf cycles    =   1
     number of bfgs steps    =   0

     energy   new            =      -2.3395544535 Ry

     new trust radius        =       0.0235439659 bohr
     new conv_thr            =       0.0000000100 Ry


ATOMIC_POSITIONS (angstrom)
H            10.0000000000       10.0000000000        0.0000000000    0   0   0
H            10.0000000017       10.0000000007       -0.7504589302



     Writing output data file ./H2_ESM_VA16.save/
     NEW-OLD atomic charge density approx. for the potential

     negative rho (up, down):  6.330E-05 6.330E-05

     Adding external electric field
        E field amplitude [Ha a.u.]: -3.1525E-02
        Potential amp.       -2.1446 Ry
        Total length         34.0151 bohr

     Generating pointlists ...

     total cpu time spent up to now is      144.0 secs

     Self-consistent Calculation

     iteration #  1     ecut=    60.00 Ry     beta= 0.70
     CG style diagonalization
     ethr =  1.00E-06,  avg # of iterations =  2.6

     negative rho (up, down):  6.315E-05 6.314E-05

     total cpu time spent up to now is      158.2 secs

     total energy              =      -2.33990372 Ry
     estimated scf accuracy    <       0.00005323 Ry

     total magnetization       =     0.00 Bohr mag/cell
     absolute magnetization    =     0.00 Bohr mag/cell

     iteration #  2     ecut=    60.00 Ry     beta= 0.70
     CG style diagonalization
     ethr =  2.66E-06,  avg # of iterations =  3.0

     negative rho (up, down):  6.333E-05 6.334E-05

     total cpu time spent up to now is      172.7 secs

     total energy              =      -2.33990905 Ry
     estimated scf accuracy    <       0.00000097 Ry

     total magnetization       =    -0.00 Bohr mag/cell
     absolute magnetization    =     0.00 Bohr mag/cell

     iteration #  3     ecut=    60.00 Ry     beta= 0.70
     CG style diagonalization
     ethr =  4.87E-08,  avg # of iterations =  3.4

     negative rho (up, down):  6.340E-05 6.340E-05

     total cpu time spent up to now is      187.5 secs

     total energy              =      -2.33990947 Ry
     estimated scf accuracy    <       0.00000009 Ry

     total magnetization       =    -0.00 Bohr mag/cell
     absolute magnetization    =     0.00 Bohr mag/cell

     iteration #  4     ecut=    60.00 Ry     beta= 0.70
     CG style diagonalization
     ethr =  4.58E-09,  avg # of iterations =  3.1

     negative rho (up, down):  6.343E-05 6.343E-05

     Magnetic moment per site:
     atom:    1    charge:    0.2125    magn:   -0.0000    constr:    0.0000
     atom:    2    charge:    0.1954    magn:    0.0000    constr:    0.0000

     total cpu time spent up to now is      200.4 secs

     End of self-consistent calculation

 ------ SPIN UP ------------


          k = 0.0000 0.0000 0.0000 (423701 PWs)   bands (ev):

   -21.1697 -11.4467 -10.9736 -10.8591 -10.8590

          k = 0.0000 0.2500 0.0000 (423725 PWs)   bands (ev):

   -21.1697 -11.4440 -11.0050 -10.8510 -10.8479

          k = 0.0000-0.5000 0.0000 (423542 PWs)   bands (ev):

   -21.1697 -11.4413 -11.0305 -10.8336 -10.8299

          k = 0.2500 0.0000 0.0000 (423725 PWs)   bands (ev):

   -21.1697 -11.4440 -11.0052 -10.8510 -10.8479

          k = 0.2500 0.2500 0.0000 (423766 PWs)   bands (ev):

   -21.1697 -11.4415 -11.0010 -10.9323 -10.7583

          k = 0.2500-0.5000 0.0000 (423782 PWs)   bands (ev):

   -21.1697 -11.4391 -11.0100 -10.9352 -10.8138

          k = 0.2500-0.2500 0.0000 (423766 PWs)   bands (ev):

   -21.1697 -11.4416 -11.0010 -10.9323 -10.7580

          k =-0.5000 0.0000 0.0000 (423542 PWs)   bands (ev):

   -21.1697 -11.4413 -11.0304 -10.8335 -10.8296

          k =-0.5000 0.2500 0.0000 (423782 PWs)   bands (ev):

   -21.1697 -11.4391 -11.0101 -10.9349 -10.8136

          k =-0.5000-0.5000 0.0000 (423708 PWs)   bands (ev):

   -21.1697 -11.4368 -10.9723 -10.9721 -10.8943

 ------ SPIN DOWN ----------


          k = 0.0000 0.0000 0.0000 (423701 PWs)   bands (ev):

   -21.1697 -11.4467 -10.9736 -10.8591 -10.8584

          k = 0.0000 0.2500 0.0000 (423725 PWs)   bands (ev):

   -21.1697 -11.4440 -11.0052 -10.8512 -10.8479

          k = 0.0000-0.5000 0.0000 (423542 PWs)   bands (ev):

   -21.1697 -11.4413 -11.0306 -10.8339 -10.8299

          k = 0.2500 0.0000 0.0000 (423725 PWs)   bands (ev):

   -21.1697 -11.4440 -11.0050 -10.8508 -10.8479

          k = 0.2500 0.2500 0.0000 (423766 PWs)   bands (ev):

   -21.1697 -11.4416 -11.0009 -10.9321 -10.7538

          k = 0.2500-0.5000 0.0000 (423782 PWs)   bands (ev):

   -21.1697 -11.4391 -11.0099 -10.9351 -10.8137

          k = 0.2500-0.2500 0.0000 (423766 PWs)   bands (ev):

   -21.1697 -11.4415 -11.0009 -10.9323 -10.7579

          k =-0.5000 0.0000 0.0000 (423542 PWs)   bands (ev):

   -21.1697 -11.4413 -11.0304 -10.8333 -10.8302

          k =-0.5000 0.2500 0.0000 (423782 PWs)   bands (ev):

   -21.1697 -11.4391 -11.0102 -10.9350 -10.8138

          k =-0.5000-0.5000 0.0000 (423708 PWs)   bands (ev):

   -21.1697 -11.4369 -10.9723 -10.9720 -10.8941

     the Fermi energy is   -15.9618 ev

!    total energy              =      -2.33990949 Ry
     estimated scf accuracy    <          3.1E-09 Ry
     smearing contrib. (-TS)   =       0.00000000 Ry
     internal energy E=F+TS    =      -2.33990949 Ry

     The total energy is F=E-TS. E is the sum of the following terms:
     one-electron contribution =      -5.96352680 Ry
     hartree contribution      =       2.30592083 Ry
     xc contribution           =      -1.37108253 Ry
     ewald contribution        =       1.11014601 Ry
     Dispersion Correction     =      -0.00000168 Ry
     electric field correction =       1.57863468 Ry

     total magnetization       =    -0.00 Bohr mag/cell
     absolute magnetization    =     0.00 Bohr mag/cell

     convergence has been achieved in   4 iterations

     Forces acting on atoms (cartesian axes, Ry/au):

     atom    1 type  1   force =     0.00000000   -0.00000000    0.00624431
     atom    2 type  1   force =    -0.00000000    0.00000000   -0.00624431

     Total force =     0.006244     Total SCF correction =     0.000009
     Energy error            =      3.6E-04
     Gradient error          =      6.2E-03

     number of scf cycles    =   2
     number of bfgs steps    =   1

     energy   old            =      -2.3395544535 Ry
     energy   new            =      -2.3399094940 Ry

     CASE: energy  _new < energy  _old

     new trust radius        =       0.0084981914 bohr
     new conv_thr            =       0.0000000016 Ry


ATOMIC_POSITIONS (angstrom)
H            10.0000000000       10.0000000000        0.0000000000    0   0   0
H            10.0000000016       10.0000000009       -0.7549559794



     Writing output data file ./H2_ESM_VA16.save/
     NEW-OLD atomic charge density approx. for the potential

     negative rho (up, down):  6.318E-05 6.318E-05

     Adding external electric field
        E field amplitude [Ha a.u.]: -3.1525E-02
        Potential amp.       -2.1446 Ry
        Total length         34.0151 bohr

     Generating pointlists ...

     total cpu time spent up to now is      213.1 secs

     Self-consistent Calculation

     iteration #  1     ecut=    60.00 Ry     beta= 0.70
     CG style diagonalization
     ethr =  1.00E-06,  avg # of iterations =  2.4

     negative rho (up, down):  6.316E-05 6.317E-05

     total cpu time spent up to now is      226.9 secs

     total energy              =      -2.33993925 Ry
     estimated scf accuracy    <       0.00000669 Ry

     total magnetization       =     0.00 Bohr mag/cell
     absolute magnetization    =     0.00 Bohr mag/cell

     iteration #  2     ecut=    60.00 Ry     beta= 0.70
     CG style diagonalization
     ethr =  3.34E-07,  avg # of iterations =  3.0

     negative rho (up, down):  6.322E-05 6.321E-05

     total cpu time spent up to now is      241.3 secs

     total energy              =      -2.33993990 Ry
     estimated scf accuracy    <       0.00000013 Ry

     total magnetization       =    -0.00 Bohr mag/cell
     absolute magnetization    =     0.00 Bohr mag/cell

     iteration #  3     ecut=    60.00 Ry     beta= 0.70
     CG style diagonalization
     ethr =  6.60E-09,  avg # of iterations =  3.4

     negative rho (up, down):  6.323E-05 6.323E-05

     total cpu time spent up to now is      256.1 secs

     total energy              =      -2.33993998 Ry
     estimated scf accuracy    <       0.00000002 Ry

     total magnetization       =    -0.00 Bohr mag/cell
     absolute magnetization    =     0.00 Bohr mag/cell

     iteration #  4     ecut=    60.00 Ry     beta= 0.70
     CG style diagonalization
     ethr =  8.01E-10,  avg # of iterations =  3.2

     negative rho (up, down):  6.324E-05 6.323E-05

     Magnetic moment per site:
     atom:    1    charge:    0.2113    magn:   -0.0000    constr:    0.0000
     atom:    2    charge:    0.1940    magn:    0.0000    constr:    0.0000

     total cpu time spent up to now is      269.1 secs

     End of self-consistent calculation

 ------ SPIN UP ------------


          k = 0.0000 0.0000 0.0000 (423701 PWs)   bands (ev):

   -21.1451 -11.4511 -10.9745 -10.8596 -10.8595

          k = 0.0000 0.2500 0.0000 (423725 PWs)   bands (ev):

   -21.1451 -11.4485 -11.0054 -10.8517 -10.8484

          k = 0.0000-0.5000 0.0000 (423542 PWs)   bands (ev):

   -21.1451 -11.4458 -11.0305 -10.8342 -10.8308

          k = 0.2500 0.0000 0.0000 (423725 PWs)   bands (ev):

   -21.1451 -11.4485 -11.0055 -10.8517 -10.8484

          k = 0.2500 0.2500 0.0000 (423766 PWs)   bands (ev):

   -21.1451 -11.4461 -11.0013 -10.9326 -10.7588

          k = 0.2500-0.5000 0.0000 (423782 PWs)   bands (ev):

   -21.1451 -11.4437 -11.0101 -10.9355 -10.8138

          k = 0.2500-0.2500 0.0000 (423766 PWs)   bands (ev):

   -21.1451 -11.4461 -11.0013 -10.9326 -10.7585

          k =-0.5000 0.0000 0.0000 (423542 PWs)   bands (ev):

   -21.1451 -11.4458 -11.0305 -10.8341 -10.8305

          k =-0.5000 0.2500 0.0000 (423782 PWs)   bands (ev):

   -21.1451 -11.4436 -11.0102 -10.9353 -10.8136

          k =-0.5000-0.5000 0.0000 (423708 PWs)   bands (ev):

   -21.1451 -11.4415 -10.9724 -10.9723 -10.8942

 ------ SPIN DOWN ----------


          k = 0.0000 0.0000 0.0000 (423701 PWs)   bands (ev):

   -21.1451 -11.4511 -10.9745 -10.8595 -10.8589

          k = 0.0000 0.2500 0.0000 (423725 PWs)   bands (ev):

   -21.1451 -11.4485 -11.0055 -10.8518 -10.8484

          k = 0.0000-0.5000 0.0000 (423542 PWs)   bands (ev):

   -21.1451 -11.4458 -11.0307 -10.8345 -10.8309

          k = 0.2500 0.0000 0.0000 (423725 PWs)   bands (ev):

   -21.1451 -11.4485 -11.0054 -10.8515 -10.8484

          k = 0.2500 0.2500 0.0000 (423766 PWs)   bands (ev):

   -21.1451 -11.4461 -11.0012 -10.9324 -10.7547

          k = 0.2500-0.5000 0.0000 (423782 PWs)   bands (ev):

   -21.1451 -11.4437 -11.0100 -10.9355 -10.8137

          k = 0.2500-0.2500 0.0000 (423766 PWs)   bands (ev):

   -21.1451 -11.4461 -11.0012 -10.9326 -10.7584

          k =-0.5000 0.0000 0.0000 (423542 PWs)   bands (ev):

   -21.1451 -11.4458 -11.0305 -10.8340 -10.8311

          k =-0.5000 0.2500 0.0000 (423782 PWs)   bands (ev):

   -21.1451 -11.4437 -11.0103 -10.9354 -10.8138

          k =-0.5000-0.5000 0.0000 (423708 PWs)   bands (ev):

   -21.1451 -11.4415 -10.9725 -10.9722 -10.8940

     the Fermi energy is   -15.9499 ev

!    total energy              =      -2.33993998 Ry
     estimated scf accuracy    <          7.3E-10 Ry
     smearing contrib. (-TS)   =       0.00000000 Ry
     internal energy E=F+TS    =      -2.33993998 Ry

     The total energy is F=E-TS. E is the sum of the following terms:
     one-electron contribution =      -5.95135938 Ry
     hartree contribution      =       2.29981375 Ry
     xc contribution           =      -1.36823882 Ry
     ewald contribution        =       1.10174730 Ry
     Dispersion Correction     =      -0.00000170 Ry
     electric field correction =       1.57809887 Ry

     total magnetization       =     0.00 Bohr mag/cell
     absolute magnetization    =     0.00 Bohr mag/cell

     convergence has been achieved in   4 iterations

     Forces acting on atoms (cartesian axes, Ry/au):

     atom    1 type  1   force =     0.00000000   -0.00000000    0.00034645
     atom    2 type  1   force =    -0.00000000    0.00000000   -0.00034645

     Total force =     0.000346     Total SCF correction =     0.000006
     Energy error            =      3.0E-05
     Gradient error          =      3.5E-04

     number of scf cycles    =   3
     number of bfgs steps    =   2

     energy   old            =      -2.3399094940 Ry
     energy   new            =      -2.3399399812 Ry

     CASE: energy  _new < energy  _old

     new trust radius        =       0.0004991976 bohr
     new conv_thr            =            1.0E-10 Ry


ATOMIC_POSITIONS (angstrom)
H            10.0000000000       10.0000000000        0.0000000000    0   0   0
H            10.0000000016       10.0000000010       -0.7552201434



     Writing output data file ./H2_ESM_VA16.save/
     NEW-OLD atomic charge density approx. for the potential

     negative rho (up, down):  6.322E-05 6.322E-05

     Adding external electric field
        E field amplitude [Ha a.u.]: -3.1525E-02
        Potential amp.       -2.1446 Ry
        Total length         34.0151 bohr

     Generating pointlists ...

     total cpu time spent up to now is      281.9 secs

     Self-consistent Calculation

     iteration #  1     ecut=    60.00 Ry     beta= 0.70
     CG style diagonalization
     ethr =  1.00E-06,  avg # of iterations =  2.0

     Threshold (ethr) on eigenvalues was too large:
     Diagonalizing with lowered threshold

     CG style diagonalization
     ethr =  5.76E-10,  avg # of iterations =  2.2

     negative rho (up, down):  6.322E-05 6.322E-05

     total cpu time spent up to now is      299.6 secs

     total energy              =      -2.33994022 Ry
     estimated scf accuracy    <       0.00000002 Ry

     total magnetization       =    -0.00 Bohr mag/cell
     absolute magnetization    =     0.00 Bohr mag/cell

     iteration #  2     ecut=    60.00 Ry     beta= 0.70
     CG style diagonalization
     ethr =  1.03E-09,  avg # of iterations =  3.0

     negative rho (up, down):  6.322E-05 6.322E-05

     total cpu time spent up to now is      314.0 secs

     total energy              =      -2.33994022 Ry
     estimated scf accuracy    <          6.4E-10 Ry

     total magnetization       =     0.00 Bohr mag/cell
     absolute magnetization    =     0.00 Bohr mag/cell

     iteration #  3     ecut=    60.00 Ry     beta= 0.70
     CG style diagonalization
     ethr =  3.20E-11,  avg # of iterations =  3.4

     negative rho (up, down):  6.322E-05 6.322E-05

     total cpu time spent up to now is      328.8 secs

     total energy              =      -2.33994022 Ry
     estimated scf accuracy    <          1.2E-10 Ry

     total magnetization       =    -0.00 Bohr mag/cell
     absolute magnetization    =     0.00 Bohr mag/cell

     iteration #  4     ecut=    60.00 Ry     beta= 0.70
     CG style diagonalization
     ethr =  5.81E-12,  avg # of iterations =  3.2

     negative rho (up, down):  6.322E-05 6.322E-05

     Magnetic moment per site:
     atom:    1    charge:    0.2113    magn:   -0.0000    constr:    0.0000
     atom:    2    charge:    0.1939    magn:    0.0000    constr:    0.0000

     total cpu time spent up to now is      341.8 secs

     End of self-consistent calculation

 ------ SPIN UP ------------


          k = 0.0000 0.0000 0.0000 (423701 PWs)   bands (ev):

   -21.1437 -11.4514 -10.9746 -10.8596 -10.8595

          k = 0.0000 0.2500 0.0000 (423725 PWs)   bands (ev):

   -21.1437 -11.4488 -11.0055 -10.8518 -10.8484

          k = 0.0000-0.5000 0.0000 (423542 PWs)   bands (ev):

   -21.1437 -11.4461 -11.0306 -10.8343 -10.8310

          k = 0.2500 0.0000 0.0000 (423725 PWs)   bands (ev):

   -21.1437 -11.4488 -11.0055 -10.8518 -10.8484

          k = 0.2500 0.2500 0.0000 (423766 PWs)   bands (ev):

   -21.1437 -11.4464 -11.0013 -10.9326 -10.7588

          k = 0.2500-0.5000 0.0000 (423782 PWs)   bands (ev):

   -21.1437 -11.4440 -11.0102 -10.9356 -10.8138

          k = 0.2500-0.2500 0.0000 (423766 PWs)   bands (ev):

   -21.1437 -11.4464 -11.0013 -10.9326 -10.7585

          k =-0.5000 0.0000 0.0000 (423542 PWs)   bands (ev):

   -21.1437 -11.4461 -11.0306 -10.8342 -10.8307

          k =-0.5000 0.2500 0.0000 (423782 PWs)   bands (ev):

   -21.1437 -11.4439 -11.0102 -10.9354 -10.8137

          k =-0.5000-0.5000 0.0000 (423708 PWs)   bands (ev):

   -21.1437 -11.4418 -10.9725 -10.9724 -10.8942

 ------ SPIN DOWN ----------


          k = 0.0000 0.0000 0.0000 (423701 PWs)   bands (ev):

   -21.1437 -11.4514 -10.9745 -10.8596 -10.8590

          k = 0.0000 0.2500 0.0000 (423725 PWs)   bands (ev):

   -21.1437 -11.4488 -11.0055 -10.8519 -10.8484

          k = 0.0000-0.5000 0.0000 (423542 PWs)   bands (ev):

   -21.1437 -11.4461 -11.0307 -10.8345 -10.8310

          k = 0.2500 0.0000 0.0000 (423725 PWs)   bands (ev):

   -21.1437 -11.4488 -11.0054 -10.8516 -10.8484

          k = 0.2500 0.2500 0.0000 (423766 PWs)   bands (ev):

   -21.1437 -11.4464 -11.0012 -10.9325 -10.7549

          k = 0.2500-0.5000 0.0000 (423782 PWs)   bands (ev):

   -21.1437 -11.4440 -11.0101 -10.9355 -10.8137

          k = 0.2500-0.2500 0.0000 (423766 PWs)   bands (ev):

   -21.1437 -11.4464 -11.0013 -10.9326 -10.7584

          k =-0.5000 0.0000 0.0000 (423542 PWs)   bands (ev):

   -21.1437 -11.4461 -11.0305 -10.8341 -10.8312

          k =-0.5000 0.2500 0.0000 (423782 PWs)   bands (ev):

   -21.1437 -11.4440 -11.0103 -10.9354 -10.8138

          k =-0.5000-0.5000 0.0000 (423708 PWs)   bands (ev):

   -21.1437 -11.4418 -10.9725 -10.9723 -10.8941

     the Fermi energy is   -15.9493 ev

!    total energy              =      -2.33994022 Ry
     estimated scf accuracy    <          3.0E-12 Ry
     smearing contrib. (-TS)   =       0.00000000 Ry
     internal energy E=F+TS    =      -2.33994022 Ry

     The total energy is F=E-TS. E is the sum of the following terms:
     one-electron contribution =      -5.95064971 Ry
     hartree contribution      =       2.29946197 Ry
     xc contribution           =      -1.36807523 Ry
     ewald contribution        =       1.10125705 Ry
     Dispersion Correction     =      -0.00000170 Ry
     electric field correction =       1.57806740 Ry

     total magnetization       =     0.00 Bohr mag/cell
     absolute magnetization    =     0.00 Bohr mag/cell

     convergence has been achieved in   4 iterations

     Forces acting on atoms (cartesian axes, Ry/au):

     atom    1 type  1   force =     0.00000000    0.00000000    0.00000343
     atom    2 type  1   force =    -0.00000000   -0.00000000   -0.00000343

     Total force =     0.000003     Total SCF correction =     0.000000
     Energy error            =      2.4E-07
     Gradient error          =      3.4E-06
Begin final coordinates

ATOMIC_POSITIONS (angstrom)
H            10.0000000000       10.0000000000        0.0000000000    0   0   0
H            10.0000000016       10.0000000010       -0.7552201434
End final coordinates



     Writing output data file ./H2_ESM_VA16.save/

     lsda relaxation :  a final configuration with zero
                        absolute magnetization has been found

     the program is checking if it is really the minimum energy structure
     by performing a new scf iteration without any "electronic" history

     Initial potential from superposition of free atoms

     starting charge    1.99998, renormalised to    2.00000

     negative rho (up, down):  2.649E-05 2.168E-05

     total cpu time spent up to now is      353.6 secs

     Self-consistent Calculation

     iteration #  1     ecut=    60.00 Ry     beta= 0.70
     CG style diagonalization
     c_bands:  2 eigenvalues not converged
     ethr =  1.00E-06,  avg # of iterations = 12.4

     negative rho (up, down):  5.209E-05 5.051E-05

     total cpu time spent up to now is      377.9 secs

     total energy              =      -2.33103212 Ry
     estimated scf accuracy    <       0.11581295 Ry

     total magnetization       =     0.00 Bohr mag/cell
     absolute magnetization    =     0.01 Bohr mag/cell

     iteration #  2     ecut=    60.00 Ry     beta= 0.70
     CG style diagonalization
     ethr =  5.79E-03,  avg # of iterations =  3.0

     negative rho (up, down):  5.926E-05 5.884E-05

     total cpu time spent up to now is      392.4 secs

     total energy              =      -2.33936926 Ry
     estimated scf accuracy    <       0.00125780 Ry

     total magnetization       =     0.00 Bohr mag/cell
     absolute magnetization    =     0.00 Bohr mag/cell

     iteration #  3     ecut=    60.00 Ry     beta= 0.70
     CG style diagonalization
     ethr =  6.29E-05,  avg # of iterations =  7.0

     negative rho (up, down):  6.131E-05 6.120E-05

     total cpu time spent up to now is      411.2 secs

     total energy              =      -2.33993315 Ry
     estimated scf accuracy    <       0.00009943 Ry

     total magnetization       =    -0.00 Bohr mag/cell
     absolute magnetization    =     0.00 Bohr mag/cell

     iteration #  4     ecut=    60.00 Ry     beta= 0.70
     CG style diagonalization
     ethr =  4.97E-06,  avg # of iterations =  7.5

     negative rho (up, down):  6.322E-05 6.311E-05

     total cpu time spent up to now is      430.5 secs

     total energy              =      -2.33993457 Ry
     estimated scf accuracy    <       0.00002347 Ry

     total magnetization       =     0.00 Bohr mag/cell
     absolute magnetization    =     0.00 Bohr mag/cell

     iteration #  5     ecut=    60.00 Ry     beta= 0.70
     CG style diagonalization
     ethr =  1.17E-06,  avg # of iterations =  4.0

     negative rho (up, down):  6.334E-05 6.335E-05

     total cpu time spent up to now is      446.3 secs

     total energy              =      -2.33994409 Ry
     estimated scf accuracy    <       0.00000741 Ry

     total magnetization       =    -0.00 Bohr mag/cell
     absolute magnetization    =     0.00 Bohr mag/cell

     iteration #  6     ecut=    60.00 Ry     beta= 0.70
     CG style diagonalization
     ethr =  3.70E-07,  avg # of iterations =  3.0

     negative rho (up, down):  6.339E-05 6.331E-05

     total cpu time spent up to now is      461.0 secs

     total energy              =      -2.33994032 Ry
     estimated scf accuracy    <       0.00000998 Ry

     total magnetization       =    -0.00 Bohr mag/cell
     absolute magnetization    =     0.00 Bohr mag/cell

     iteration #  7     ecut=    60.00 Ry     beta= 0.70
     CG style diagonalization
     ethr =  3.70E-07,  avg # of iterations =  3.0

     negative rho (up, down):  6.332E-05 6.323E-05

     total cpu time spent up to now is      475.9 secs

     total energy              =      -2.33993958 Ry
     estimated scf accuracy    <       0.00000214 Ry

     total magnetization       =     0.00 Bohr mag/cell
     absolute magnetization    =     0.00 Bohr mag/cell

     iteration #  8     ecut=    60.00 Ry     beta= 0.70
     CG style diagonalization
     ethr =  1.07E-07,  avg # of iterations =  3.4

     negative rho (up, down):  6.332E-05 6.323E-05

     total cpu time spent up to now is      491.2 secs

     total energy              =      -2.33994031 Ry
     estimated scf accuracy    <       0.00000025 Ry

     total magnetization       =    -0.00 Bohr mag/cell
     absolute magnetization    =     0.00 Bohr mag/cell

     iteration #  9     ecut=    60.00 Ry     beta= 0.70
     CG style diagonalization
     ethr =  1.27E-08,  avg # of iterations =  3.0

     negative rho (up, down):  6.317E-05 6.318E-05

     total cpu time spent up to now is      506.3 secs

     total energy              =      -2.33994017 Ry
     estimated scf accuracy    <       0.00000031 Ry

     total magnetization       =    -0.00 Bohr mag/cell
     absolute magnetization    =     0.00 Bohr mag/cell

     iteration # 10     ecut=    60.00 Ry     beta= 0.70
     CG style diagonalization
     ethr =  1.27E-08,  avg # of iterations =  3.2

     negative rho (up, down):  6.320E-05 6.320E-05

     total cpu time spent up to now is      521.6 secs

     total energy              =      -2.33994022 Ry
     estimated scf accuracy    <       0.00000007 Ry

     total magnetization       =     0.00 Bohr mag/cell
     absolute magnetization    =     0.00 Bohr mag/cell

     iteration # 11     ecut=    60.00 Ry     beta= 0.70
     CG style diagonalization
     ethr =  3.39E-09,  avg # of iterations =  3.0

     negative rho (up, down):  6.322E-05 6.322E-05

     total cpu time spent up to now is      536.9 secs

     total energy              =      -2.33994022 Ry
     estimated scf accuracy    <       0.00000003 Ry

     total magnetization       =    -0.00 Bohr mag/cell
     absolute magnetization    =     0.00 Bohr mag/cell

     iteration # 12     ecut=    60.00 Ry     beta= 0.70
     CG style diagonalization
     ethr =  1.69E-09,  avg # of iterations =  3.2

     negative rho (up, down):  6.321E-05 6.322E-05

     total cpu time spent up to now is      552.4 secs

     total energy              =      -2.33994022 Ry
     estimated scf accuracy    <          3.9E-10 Ry

     total magnetization       =     0.00 Bohr mag/cell
     absolute magnetization    =     0.00 Bohr mag/cell

     iteration # 13     ecut=    60.00 Ry     beta= 0.70
     CG style diagonalization
     ethr =  1.94E-11,  avg # of iterations =  3.2

     negative rho (up, down):  6.322E-05 6.322E-05

     total cpu time spent up to now is      567.8 secs

     total energy              =      -2.33994022 Ry
     estimated scf accuracy    <          5.7E-09 Ry

     total magnetization       =     0.00 Bohr mag/cell
     absolute magnetization    =     0.00 Bohr mag/cell

     iteration # 14     ecut=    60.00 Ry     beta= 0.70
     CG style diagonalization
     ethr =  1.94E-11,  avg # of iterations =  3.2

     negative rho (up, down):  6.322E-05 6.322E-05

     total cpu time spent up to now is      583.2 secs

     total energy              =      -2.33994022 Ry
     estimated scf accuracy    <          2.5E-10 Ry

     total magnetization       =    -0.00 Bohr mag/cell
     absolute magnetization    =     0.00 Bohr mag/cell

     iteration # 15     ecut=    60.00 Ry     beta= 0.70
     CG style diagonalization
     ethr =  1.25E-11,  avg # of iterations =  3.2

     negative rho (up, down):  6.322E-05 6.322E-05

     Magnetic moment per site:
     atom:    1    charge:    0.2113    magn:    0.0000    constr:    0.0000
     atom:    2    charge:    0.1939    magn:   -0.0000    constr:    0.0000

     total cpu time spent up to now is      596.3 secs

     End of self-consistent calculation

 ------ SPIN UP ------------


          k = 0.0000 0.0000 0.0000 (423701 PWs)   bands (ev):

   -21.1437 -11.4513 -10.9746 -10.8596 -10.8596

          k = 0.0000 0.2500 0.0000 (423725 PWs)   bands (ev):

   -21.1437 -11.4487 -11.0053 -10.8520 -10.8483

          k = 0.0000-0.5000 0.0000 (423542 PWs)   bands (ev):

   -21.1437 -11.4461 -11.0305 -10.8346 -10.8312

          k = 0.2500 0.0000 0.0000 (423725 PWs)   bands (ev):

   -21.1437 -11.4487 -11.0055 -10.8520 -10.8483

          k = 0.2500 0.2500 0.0000 (423766 PWs)   bands (ev):

   -21.1437 -11.4464 -11.0012 -10.9325 -10.7590

          k = 0.2500-0.5000 0.0000 (423782 PWs)   bands (ev):

   -21.1437 -11.4439 -11.0103 -10.9353 -10.8138

          k = 0.2500-0.2500 0.0000 (423766 PWs)   bands (ev):

   -21.1437 -11.4464 -11.0012 -10.9325 -10.7590

          k =-0.5000 0.0000 0.0000 (423542 PWs)   bands (ev):

   -21.1437 -11.4461 -11.0305 -10.8347 -10.8312

          k =-0.5000 0.2500 0.0000 (423782 PWs)   bands (ev):

   -21.1437 -11.4439 -11.0103 -10.9353 -10.8138

          k =-0.5000-0.5000 0.0000 (423708 PWs)   bands (ev):

   -21.1437 -11.4418 -10.9725 -10.9724 -10.8943

 ------ SPIN DOWN ----------


          k = 0.0000 0.0000 0.0000 (423701 PWs)   bands (ev):

   -21.1437 -11.4513 -10.9745 -10.8596 -10.8596

          k = 0.0000 0.2500 0.0000 (423725 PWs)   bands (ev):

   -21.1437 -11.4487 -11.0055 -10.8519 -10.8484

          k = 0.0000-0.5000 0.0000 (423542 PWs)   bands (ev):

   -21.1437 -11.4461 -11.0305 -10.8347 -10.8313

          k = 0.2500 0.0000 0.0000 (423725 PWs)   bands (ev):

   -21.1437 -11.4487 -11.0055 -10.8519 -10.8484

          k = 0.2500 0.2500 0.0000 (423766 PWs)   bands (ev):

   -21.1437 -11.4464 -11.0012 -10.9325 -10.7590

          k = 0.2500-0.5000 0.0000 (423782 PWs)   bands (ev):

   -21.1437 -11.4439 -11.0103 -10.9355 -10.8138

          k = 0.2500-0.2500 0.0000 (423766 PWs)   bands (ev):

   -21.1437 -11.4464 -11.0012 -10.9325 -10.7590

          k =-0.5000 0.0000 0.0000 (423542 PWs)   bands (ev):

   -21.1437 -11.4461 -11.0305 -10.8347 -10.8313

          k =-0.5000 0.2500 0.0000 (423782 PWs)   bands (ev):

   -21.1437 -11.4439 -11.0103 -10.9355 -10.8138

          k =-0.5000-0.5000 0.0000 (423708 PWs)   bands (ev):

   -21.1437 -11.4418 -10.9724 -10.9724 -10.8942

     the Fermi energy is   -15.9514 ev

!    total energy              =      -2.33994022 Ry
     estimated scf accuracy    <          1.0E-11 Ry
     smearing contrib. (-TS)   =       0.00000000 Ry
     internal energy E=F+TS    =      -2.33994022 Ry

     The total energy is F=E-TS. E is the sum of the following terms:
     one-electron contribution =      -5.95065056 Ry
     hartree contribution      =       2.29946362 Ry
     xc contribution           =      -1.36807604 Ry
     ewald contribution        =       1.10125705 Ry
     Dispersion Correction     =      -0.00000170 Ry
     electric field correction =       1.57806740 Ry

     total magnetization       =    -0.00 Bohr mag/cell
     absolute magnetization    =     0.00 Bohr mag/cell

     convergence has been achieved in  15 iterations

     Forces acting on atoms (cartesian axes, Ry/au):

     atom    1 type  1   force =     0.00000000   -0.00000000    0.00000295
     atom    2 type  1   force =    -0.00000000    0.00000000   -0.00000295

     Total force =     0.000003     Total SCF correction =     0.000000
     SCF correction compared to forces is large: reduce conv_thr to get better values
     Energy error            =      2.4E-07
     Gradient error          =      2.9E-06

     bfgs converged in   4 scf cycles and   3 bfgs steps
     (criteria: energy <  7.3E-07 Ry, force <  3.9E-04 Ry/Bohr)

     End of BFGS Geometry Optimization

     Final energy   =      -2.3399402213 Ry

     File ./H2_ESM_VA16.bfgs deleted, as requested
Begin final coordinates

ATOMIC_POSITIONS (angstrom)
H            10.0000000000       10.0000000000        0.0000000000    0   0   0
H            10.0000000016       10.0000000010       -0.7552201434
End final coordinates



     Writing output data file ./H2_ESM_VA16.save/

     init_run     :     18.58s CPU     19.74s WALL (       1 calls)
     electrons    :    497.89s CPU    536.91s WALL (       5 calls)
     update_pot   :     21.10s CPU     22.41s WALL (       3 calls)
     forces       :      8.12s CPU      8.30s WALL (       5 calls)

     Called by init_run:
     wfcinit      :      0.97s CPU      1.11s WALL (       1 calls)
     potinit      :     14.66s CPU     15.81s WALL (       2 calls)
     hinit0       :      0.60s CPU      0.72s WALL (       1 calls)

     Called by electrons:
     c_bands      :    152.37s CPU    154.89s WALL (      34 calls)
     sum_band     :     56.89s CPU     57.89s WALL (      34 calls)
     v_of_rho     :    216.21s CPU    234.82s WALL (      38 calls)
     newd         :     22.71s CPU     23.14s WALL (      38 calls)
     mix_rho      :     42.50s CPU     51.26s WALL (      34 calls)

     Called by c_bands:
     init_us_2    :      0.36s CPU      0.39s WALL (     222 calls)
     ccgdiagg     :    116.57s CPU    117.99s WALL (     102 calls)
     wfcrot       :     29.02s CPU     29.36s WALL (      87 calls)

     Called by *cgdiagg:
     h_psi        :    138.22s CPU    139.88s WALL (    1832 calls)
     s_psi        :      0.65s CPU      0.66s WALL (    3577 calls)

     Called by h_psi:
     h_psi:calbec :      2.38s CPU      2.42s WALL (    1832 calls)
     vloc_psi     :    133.53s CPU    135.11s WALL (    1832 calls)
     add_vuspsi   :      1.77s CPU      1.81s WALL (    1832 calls)
     hs_1psi      :    110.93s CPU    112.28s WALL (    1745 calls)
     s_1psi       :      1.30s CPU      1.31s WALL (    1745 calls)

     General routines
     calbec       :      3.50s CPU      3.57s WALL (    3739 calls)
     fft          :    221.26s CPU    226.96s WALL (     939 calls)
     ffts         :     13.08s CPU     13.20s WALL (     144 calls)
     fftw         :    123.37s CPU    124.80s WALL (    4870 calls)
     interpolate  :     27.21s CPU     28.89s WALL (      76 calls)
     davcio       :      0.11s CPU      4.87s WALL (     637 calls)

     Parallel routines
     fft_scatt_xy :     51.45s CPU     52.06s WALL (    5953 calls)
     fft_scatt_yz :    145.21s CPU    146.83s WALL (    5953 calls)

     PWSCF        :   9m19.83s CPU  10m 3.15s WALL


   This run was terminated on:  21: 4:13  28Sep2022            

=------------------------------------------------------------------------------=
   JOB DONE.
=------------------------------------------------------------------------------=
