     Message from routine get_command_line:
     unexpected argument # 4     :-in

     Program PWSCF v.6.7MaX starts on  4Jul2022 at  0: 1:47 

     This program is part of the open-source Quantum ESPRESSO suite
     for quantum simulation of materials; please cite
         "P. Giannozzi et al., J. Phys.:Condens. Matter 21 395502 (2009);
         "P. Giannozzi et al., J. Phys.:Condens. Matter 29 465901 (2017);
          URL http://www.quantum-espresso.org", 
     in publications or presentations arising from this work. More details at
     http://www.quantum-espresso.org/quote

     Parallel version (MPI), running on   120 processors

     MPI processes distributed on     1 nodes
     K-points division:     npool     =       8
     R & G space division:  proc/nbgrp/npool/nimage =      15
     Waiting for input...
     Reading input from standard input
Warning: card &CELL ignored
Warning: card / ignored

     Current dimensions of program PWSCF are:
     Max number of different atomic species (ntypx) = 10
     Max number of k-points (npk) =  40000
     Max angular momentum in pseudopotentials (lmaxx) =  3

     IMPORTANT: XC functional enforced from input :
     Exchange-correlation= PBE
                           (   1   4   3   4   0   0   0)
     Any further DFT definition will be discarded
     Please, verify this is what you really want


     -------------------------------------------------
     Parameters for Dispersion (Grimme-D2) Correction:
     -------------------------------------------------
       atom      VdW radius       C_6     

        N          2.640         42.670

     Subspace diagonalization in iterative solution of the eigenvalue problem:
     one sub-group per band group will be used
     scalapack distributed-memory algorithm (size of sub-group:  3*  3 procs)


     Parallelization info
     --------------------
     sticks:   dense  smooth     PW     G-vecs:    dense   smooth      PW
     Min        3636    1818    468               639190   225950   29545
     Max        3637    1819    470               639197   225953   29547
     Sum       54553   27281   7033              9587919  3389267  443191



     bravais-lattice index     =            0
     lattice parameter (alat)  =      37.7945  a.u.
     unit-cell volume          =   53986.6760 (a.u.)^3
     number of atoms/cell      =            1
     number of atomic types    =            1
     number of electrons       =         5.00
     number of Kohn-Sham states=            7
     kinetic-energy cutoff     =      60.0000  Ry
     charge density cutoff     =     480.0000  Ry
     scf convergence threshold =      1.0E-08
     mixing beta               =       0.7000
     number of iterations used =           10  plain     mixing
     energy convergence thresh.=      7.3E-07
     force convergence thresh. =      3.9E-04
     Exchange-correlation= PBE
                           (   1   4   3   4   0   0   0)
     nstep                     =           50


     Effective Screening Medium Method
     =================================
     Boundary Conditions: Metal-Slab-Metal
     field strength                   =    -0.02 Ry/a.u.
     grid points for fit at edges     =        4 


     celldm(1)=  37.794522  celldm(2)=   0.000000  celldm(3)=   0.000000
     celldm(4)=   0.000000  celldm(5)=   0.000000  celldm(6)=   0.000000

     crystal axes: (cart. coord. in units of alat)
               a(1) = (   1.000000   0.000000   0.000000 )  
               a(2) = (   0.000000   1.000000   0.000000 )  
               a(3) = (   0.000000   0.000000   1.000000 )  

     reciprocal axes: (cart. coord. in units 2 pi/alat)
               b(1) = (  1.000000  0.000000  0.000000 )  
               b(2) = (  0.000000  1.000000  0.000000 )  
               b(3) = (  0.000000  0.000000  1.000000 )  


     PseudoPot. # 1 for N  read from file:
     ../../SSSP/N.pbe-n-radius_5.UPF
     MD5 check sum: 16739722b17309cd8fe442a2ace49922
     Pseudo is Ultrasoft + core correction, Zval =  5.0
     Generated using "atomic" code by A. Dal Corso  v.5.1
     Using radial grid of 1085 points,  4 beta functions with: 
                l(1) =   0
                l(2) =   0
                l(3) =   1
                l(4) =   1
     Q(r) pseudized with 0 coefficients 


     atomic species   valence    mass     pseudopotential
        N              5.00    14.00700     N ( 1.00)

     Starting magnetic structure 
     atomic species   magnetization
        N            0.100

     No symmetry found



   Cartesian axes

     site n.     atom                  positions (alat units)
         1           N   tau(   1) = (   0.5000000   0.5000000   0.0000000  )

     number of k points=    10  Methfessel-Paxton smearing, width (Ry)=  0.0100
                       cart. coord. in units 2pi/alat
        k(    1) = (   0.0000000   0.0000000   0.0000000), wk =   0.0625000
        k(    2) = (   0.0000000   0.2500000   0.0000000), wk =   0.1250000
        k(    3) = (   0.0000000  -0.5000000   0.0000000), wk =   0.0625000
        k(    4) = (   0.2500000   0.0000000   0.0000000), wk =   0.1250000
        k(    5) = (   0.2500000   0.2500000   0.0000000), wk =   0.1250000
        k(    6) = (   0.2500000  -0.5000000   0.0000000), wk =   0.1250000
        k(    7) = (   0.2500000  -0.2500000   0.0000000), wk =   0.1250000
        k(    8) = (  -0.5000000   0.0000000   0.0000000), wk =   0.0625000
        k(    9) = (  -0.5000000   0.2500000   0.0000000), wk =   0.1250000
        k(   10) = (  -0.5000000  -0.5000000   0.0000000), wk =   0.0625000

     Dense  grid:  9587919 G-vectors     FFT dimensions: ( 270, 270, 270)

     Smooth grid:  3389267 G-vectors     FFT dimensions: ( 192, 192, 192)

     Estimated max dynamical RAM per process >     364.64 MB

     Estimated total dynamical RAM >      42.73 GB
     Generating pointlists ...
     new r_m :   0.4125 (alat units) 15.5902 (a.u.) for type    1

     Initial potential from superposition of free atoms

     starting charge    4.99999, renormalised to    5.00000

     negative rho (up, down):  9.787E-05 8.007E-05
     Starting wfcs are    4 randomized atomic wfcs +    3 random wfcs

     total cpu time spent up to now is       21.1 secs

     Self-consistent Calculation

     iteration #  1     ecut=    60.00 Ry     beta= 0.70
     CG style diagonalization
     c_bands:  1 eigenvalues not converged
     c_bands:  2 eigenvalues not converged
     ethr =  1.00E-04,  avg # of iterations =  9.6

     negative rho (up, down):  2.509E-04 3.133E-05

     total cpu time spent up to now is       48.1 secs

     total energy              =     -19.79580547 Ry
     estimated scf accuracy    <       0.07699422 Ry

     total magnetization       =     3.00 Bohr mag/cell
     absolute magnetization    =     3.00 Bohr mag/cell

     iteration #  2     ecut=    60.00 Ry     beta= 0.70
     CG style diagonalization
     ethr =  1.54E-03,  avg # of iterations =  3.0

     negative rho (up, down):  3.192E-04 1.021E-04

     total cpu time spent up to now is       64.7 secs

     total energy              =     -19.81701392 Ry
     estimated scf accuracy    <       0.01022646 Ry

     total magnetization       =     3.00 Bohr mag/cell
     absolute magnetization    =     3.00 Bohr mag/cell

     iteration #  3     ecut=    60.00 Ry     beta= 0.70
     CG style diagonalization
     ethr =  2.05E-04,  avg # of iterations =  3.3

     negative rho (up, down):  3.226E-04 9.233E-05

     total cpu time spent up to now is       81.9 secs

     total energy              =     -19.81796132 Ry
     estimated scf accuracy    <       0.00035090 Ry

     total magnetization       =     3.00 Bohr mag/cell
     absolute magnetization    =     3.00 Bohr mag/cell

     iteration #  4     ecut=    60.00 Ry     beta= 0.70
     CG style diagonalization
     ethr =  7.02E-06,  avg # of iterations =  6.1

     negative rho (up, down):  3.301E-04 8.548E-05

     total cpu time spent up to now is      103.6 secs

     total energy              =     -19.81820136 Ry
     estimated scf accuracy    <       0.00003167 Ry

     total magnetization       =     3.00 Bohr mag/cell
     absolute magnetization    =     3.00 Bohr mag/cell

     iteration #  5     ecut=    60.00 Ry     beta= 0.70
     CG style diagonalization
     ethr =  6.33E-07,  avg # of iterations =  5.3

     negative rho (up, down):  3.355E-04 8.437E-05

     total cpu time spent up to now is      124.3 secs

     total energy              =     -19.81826184 Ry
     estimated scf accuracy    <       0.00000685 Ry

     total magnetization       =     3.00 Bohr mag/cell
     absolute magnetization    =     3.00 Bohr mag/cell

     iteration #  6     ecut=    60.00 Ry     beta= 0.70
     CG style diagonalization
     ethr =  1.37E-07,  avg # of iterations =  4.1

     negative rho (up, down):  3.352E-04 8.441E-05

     total cpu time spent up to now is      143.0 secs

     total energy              =     -19.81826500 Ry
     estimated scf accuracy    <       0.00000053 Ry

     total magnetization       =     3.00 Bohr mag/cell
     absolute magnetization    =     3.00 Bohr mag/cell

     iteration #  7     ecut=    60.00 Ry     beta= 0.70
     CG style diagonalization
     ethr =  1.07E-08,  avg # of iterations =  3.5

     negative rho (up, down):  3.351E-04 8.434E-05

     total cpu time spent up to now is      161.1 secs

     total energy              =     -19.81826539 Ry
     estimated scf accuracy    <       0.00000007 Ry

     total magnetization       =     3.00 Bohr mag/cell
     absolute magnetization    =     3.00 Bohr mag/cell

     iteration #  8     ecut=    60.00 Ry     beta= 0.70
     CG style diagonalization
     ethr =  1.40E-09,  avg # of iterations =  3.4

     negative rho (up, down):  3.351E-04 8.431E-05

     Magnetic moment per site:
     atom:    1    charge:    5.0000    magn:    3.0000    constr:    0.0000

     total cpu time spent up to now is      176.8 secs

     End of self-consistent calculation

 ------ SPIN UP ------------


          k = 0.0000 0.0000 0.0000 (423701 PWs)   bands (ev):

   -24.0041 -12.4178 -12.4168 -12.4168  -6.5797  -6.2045  -6.2018

          k = 0.0000 0.2500 0.0000 (423725 PWs)   bands (ev):

   -24.0041 -12.4178 -12.4168 -12.4168  -6.5568  -6.3681  -6.1806

          k = 0.0000-0.5000 0.0000 (423542 PWs)   bands (ev):

   -24.0041 -12.4178 -12.4168 -12.4168  -6.4913  -6.4811  -6.1128

          k = 0.2500 0.0000 0.0000 (423725 PWs)   bands (ev):

   -24.0041 -12.4178 -12.4168 -12.4168  -6.5567  -6.3665  -6.1786

          k = 0.2500 0.2500 0.0000 (423766 PWs)   bands (ev):

   -24.0041 -12.4178 -12.4168 -12.4168  -6.5331  -6.3466  -6.3429

          k = 0.2500-0.5000 0.0000 (423782 PWs)   bands (ev):

   -24.0041 -12.4178 -12.4168 -12.4168  -6.4672  -6.4577  -6.2757

          k = 0.2500-0.2500 0.0000 (423766 PWs)   bands (ev):

   -24.0041 -12.4178 -12.4168 -12.4168  -6.5335  -6.3451  -6.3389

          k =-0.5000 0.0000 0.0000 (423542 PWs)   bands (ev):

   -24.0041 -12.4178 -12.4168 -12.4168  -6.4912  -6.4813  -6.1119

          k =-0.5000 0.2500 0.0000 (423782 PWs)   bands (ev):

   -24.0041 -12.4178 -12.4168 -12.4168  -6.4667  -6.4574  -6.2774

          k =-0.5000-0.5000 0.0000 (423708 PWs)   bands (ev):

   -24.0041 -12.4178 -12.4168 -12.4168  -6.4007  -6.3900  -6.3846

 ------ SPIN DOWN ----------


          k = 0.0000 0.0000 0.0000 (423701 PWs)   bands (ev):

   -19.1869  -8.0022  -7.9980  -7.9980  -6.5660  -6.1902  -6.1890

          k = 0.0000 0.2500 0.0000 (423725 PWs)   bands (ev):

   -19.1869  -8.0022  -7.9980  -7.9980  -6.5420  -6.3540  -6.1635

          k = 0.0000-0.5000 0.0000 (423542 PWs)   bands (ev):

   -19.1869  -8.0021  -7.9980  -7.9980  -6.4754  -6.4684  -6.0944

          k = 0.2500 0.0000 0.0000 (423725 PWs)   bands (ev):

   -19.1869  -8.0022  -7.9980  -7.9980  -6.5423  -6.3532  -6.1640

          k = 0.2500 0.2500 0.0000 (423766 PWs)   bands (ev):

   -19.1869  -8.0021  -7.9980  -7.9980  -6.5184  -6.3305  -6.3279

          k = 0.2500-0.5000 0.0000 (423782 PWs)   bands (ev):

   -19.1869  -8.0021  -7.9980  -7.9980  -6.4512  -6.4430  -6.2616

          k = 0.2500-0.2500 0.0000 (423766 PWs)   bands (ev):

   -19.1869  -8.0022  -7.9980  -7.9980  -6.5187  -6.3306  -6.3289

          k =-0.5000 0.0000 0.0000 (423542 PWs)   bands (ev):

   -19.1869  -8.0021  -7.9980  -7.9980  -6.4746  -6.4679  -6.0968

          k =-0.5000 0.2500 0.0000 (423782 PWs)   bands (ev):

   -19.1869  -8.0021  -7.9980  -7.9980  -6.4516  -6.4441  -6.2600

          k =-0.5000-0.5000 0.0000 (423708 PWs)   bands (ev):

   -19.1869  -8.0021  -7.9980  -7.9980  -6.3847  -6.3764  -6.3729

     the Fermi energy is   -10.4358 ev

!    total energy              =     -19.81826541 Ry
     estimated scf accuracy    <          1.5E-09 Ry
     smearing contrib. (-TS)   =       0.00000000 Ry
     internal energy E=F+TS    =     -19.81826541 Ry

     The total energy is F=E-TS. E is the sum of the following terms:
     one-electron contribution =     -31.72171287 Ry
     hartree contribution      =      16.03138603 Ry
     xc contribution           =      -5.11367228 Ry
     ewald contribution        =       0.98573376 Ry
     Dispersion Correction     =      -0.00000005 Ry

     total magnetization       =     3.00 Bohr mag/cell
     absolute magnetization    =     3.00 Bohr mag/cell

     convergence has been achieved in   8 iterations

     negative rho (up, down):  3.351E-04 8.431E-05

     Forces acting on atoms (cartesian axes, Ry/au):

     atom    1 type  1   force =     0.00000000    0.00000000   -0.00000275

     Total force =     0.000000     Total SCF correction =     0.000000

     BFGS Geometry Optimization
     Energy error            =      0.0E+00
     Gradient error          =      0.0E+00

     bfgs converged in   1 scf cycles and   0 bfgs steps
     (criteria: energy <  7.3E-07 Ry, force <  3.9E-04 Ry/Bohr)

     End of BFGS Geometry Optimization

     Final energy   =     -19.8182654062 Ry
Begin final coordinates

ATOMIC_POSITIONS (angstrom)
N            10.0000000000       10.0000000000        0.0000000000    0   0   0
End final coordinates



     Writing output data file ./N_ESM_pn25.save/

     init_run     :     20.05s CPU     20.95s WALL (       1 calls)
     electrons    :    150.69s CPU    157.47s WALL (       1 calls)
     forces       :      8.15s CPU      8.41s WALL (       1 calls)

     Called by init_run:
     wfcinit      :      1.37s CPU      1.50s WALL (       1 calls)
     potinit      :      7.69s CPU      8.16s WALL (       1 calls)
     hinit0       :      0.90s CPU      0.96s WALL (       1 calls)

     Called by electrons:
     c_bands      :     59.24s CPU     60.45s WALL (       8 calls)
     sum_band     :     17.24s CPU     17.60s WALL (       8 calls)
     v_of_rho     :     54.49s CPU     57.06s WALL (       9 calls)
     newd         :      6.32s CPU      6.38s WALL (       9 calls)
     mix_rho      :     11.00s CPU     12.32s WALL (       8 calls)

     Called by c_bands:
     init_us_2    :      0.26s CPU      0.27s WALL (      54 calls)
     ccgdiagg     :     45.83s CPU     46.53s WALL (      24 calls)
     wfcrot       :     11.29s CPU     11.57s WALL (      24 calls)

     Called by *cgdiagg:
     h_psi        :     51.85s CPU     52.77s WALL (     686 calls)
     s_psi        :      1.15s CPU      1.16s WALL (    1348 calls)

     Called by h_psi:
     h_psi:calbec :      1.55s CPU      1.58s WALL (     686 calls)
     vloc_psi     :     48.27s CPU     49.13s WALL (     686 calls)
     add_vuspsi   :      1.77s CPU      1.79s WALL (     686 calls)
     hs_1psi      :     41.96s CPU     42.62s WALL (     662 calls)
     s_1psi       :      1.61s CPU      1.63s WALL (     662 calls)

     General routines
     calbec       :      2.70s CPU      2.75s WALL (    1384 calls)
     fft          :     56.39s CPU     57.41s WALL (     238 calls)
     ffts         :      2.67s CPU      2.70s WALL (      34 calls)
     fftw         :     44.25s CPU     45.05s WALL (    1828 calls)
     interpolate  :      6.57s CPU      6.74s WALL (      18 calls)
     davcio       :      0.02s CPU      1.17s WALL (     149 calls)

     Parallel routines
     fft_scatt_xy :     16.13s CPU     16.47s WALL (    2100 calls)
     fft_scatt_yz :     37.27s CPU     37.65s WALL (    2100 calls)

     PWSCF        :   2m59.63s CPU   3m 8.42s WALL


   This run was terminated on:   0: 4:55   4Jul2022            

=------------------------------------------------------------------------------=
   JOB DONE.
=------------------------------------------------------------------------------=
