
     Program PWSCF v.6.7MaX starts on  8Jul2022 at 19:17:19 

     This program is part of the open-source Quantum ESPRESSO suite
     for quantum simulation of materials; please cite
         "P. Giannozzi et al., J. Phys.:Condens. Matter 21 395502 (2009);
         "P. Giannozzi et al., J. Phys.:Condens. Matter 29 465901 (2017);
          URL http://www.quantum-espresso.org", 
     in publications or presentations arising from this work. More details at
     http://www.quantum-espresso.org/quote

     Parallel version (MPI), running on   256 processors

     MPI processes distributed on     2 nodes
     K-points division:     npool     =       8
     R & G space division:  proc/nbgrp/npool/nimage =      32
     Waiting for input...
     Reading input from standard input
Warning: card &CELL ignored
Warning: card / ignored

     Current dimensions of program PWSCF are:
     Max number of different atomic species (ntypx) = 10
     Max number of k-points (npk) =  40000
     Max angular momentum in pseudopotentials (lmaxx) =  3
     file Fe.pbe-spn-kjpaw_psl.0.2.1.UPF: wavefunction(s)  3D renormalized

     IMPORTANT: XC functional enforced from input :
     Exchange-correlation= PBE
                           (   1   4   3   4   0   0   0)
     Any further DFT definition will be discarded
     Please, verify this is what you really want


     -------------------------------------------------
     Parameters for Dispersion (Grimme-D2) Correction:
     -------------------------------------------------
       atom      VdW radius       C_6     

        Fe         2.952        374.666
        N          2.640         42.670
        H          1.892          4.857

     Subspace diagonalization in iterative solution of the eigenvalue problem:
     one sub-group per band group will be used
     scalapack distributed-memory algorithm (size of sub-group:  5*  5 procs)


     Parallelization info
     --------------------
     sticks:   dense  smooth     PW     G-vecs:    dense   smooth      PW
     Min         396     198     52                90796    32100    4368
     Max         397     199     53                90807    32109    4377
     Sum       12685    6351   1677              2905599  1027285  139897



     bravais-lattice index     =            0
     lattice parameter (alat)  =      18.7640  a.u.
     unit-cell volume          =   16360.3161 (a.u.)^3
     number of atoms/cell      =           66
     number of atomic types    =            3
     number of electrons       =      1030.00
     number of Kohn-Sham states=          618
     kinetic-energy cutoff     =      60.0000  Ry
     charge density cutoff     =     480.0000  Ry
     scf convergence threshold =      1.0E-08
     mixing beta               =       0.2000
     number of iterations used =           10  local-TF  mixing
     energy convergence thresh.=      7.3E-07
     force convergence thresh. =      3.9E-04
     Exchange-correlation= PBE
                           (   1   4   3   4   0   0   0)
     nstep                     =           50


     Effective Screening Medium Method
     =================================
     Boundary Conditions: Metal-Slab-Metal
     field strength                   =     0.00 Ry/a.u.
     grid points for fit at edges     =        4 


     celldm(1)=  18.764036  celldm(2)=   0.000000  celldm(3)=   0.000000
     celldm(4)=   0.000000  celldm(5)=   0.000000  celldm(6)=   0.000000

     crystal axes: (cart. coord. in units of alat)
               a(1) = (   1.000000   0.000000   0.000000 )  
               a(2) = (   0.333330   0.942807   0.000000 )  
               a(3) = (   0.000000   0.000000   2.626577 )  

     reciprocal axes: (cart. coord. in units 2 pi/alat)
               b(1) = (  1.000000 -0.353551  0.000000 )  
               b(2) = (  0.000000  1.060663  0.000000 )  
               b(3) = (  0.000000  0.000000  0.380724 )  


     PseudoPot. # 1 for Fe read from file:
     ../../SSSP/Fe.pbe-spn-kjpaw_psl.0.2.1.UPF
     MD5 check sum: e86618425769142926afa95317d90200
     Pseudo is Projector augmented-wave + core cor, Zval = 16.0
     Generated using "atomic" code by A. Dal Corso  v.5.0.99 svn rev. 10869
     Shape of augmentation charge: PSQ
     Using radial grid of 1191 points,  6 beta functions with: 
                l(1) =   0
                l(2) =   0
                l(3) =   1
                l(4) =   1
                l(5) =   2
                l(6) =   2
     Q(r) pseudized with 0 coefficients 


     PseudoPot. # 2 for N  read from file:
     ../../SSSP/N.pbe-n-radius_5.UPF
     MD5 check sum: 16739722b17309cd8fe442a2ace49922
     Pseudo is Ultrasoft + core correction, Zval =  5.0
     Generated using "atomic" code by A. Dal Corso  v.5.1
     Using radial grid of 1085 points,  4 beta functions with: 
                l(1) =   0
                l(2) =   0
                l(3) =   1
                l(4) =   1
     Q(r) pseudized with 0 coefficients 


     PseudoPot. # 3 for H  read from file:
     ../../SSSP/H.pbe-rrkjus_psl.1.0.0.UPF
     MD5 check sum: f52b6d4d1c606e5624b1dc7b2218f220
     Pseudo is Ultrasoft, Zval =  1.0
     Generated using "atomic" code by A. Dal Corso  v.5.1
     Using radial grid of  929 points,  2 beta functions with: 
                l(1) =   0
                l(2) =   0
     Q(r) pseudized with 0 coefficients 


     atomic species   valence    mass     pseudopotential
        Fe            16.00    55.84500     Fe( 1.00)
        N              5.00    14.00700     N ( 1.00)
        H              1.00     1.00800     H ( 1.00)

     Starting magnetic structure 
     atomic species   magnetization
        Fe           0.100
        N            0.100
        H            0.100

     No symmetry found



   Cartesian axes

     site n.     atom                  positions (alat units)
         1           Fe  tau(   1) = (   0.1666663   0.1178509   0.0000000  )
         2           Fe  tau(   2) = (   0.0000000   0.0000000   0.2041376  )
         3           Fe  tau(   3) = (   0.4999989   0.3535526   0.0000000  )
         4           Fe  tau(   4) = (   0.3333326   0.2357017   0.2041376  )
         5           Fe  tau(   5) = (   0.1692309   0.1174836   0.4055241  )
         6           Fe  tau(   6) = (   0.3358430   0.9392619   0.6065572  )
         7           Fe  tau(   7) = (   0.4994978   0.3560176   0.4072674  )
         8           Fe  tau(   8) = (   0.3419286   0.2351907   0.6069021  )
         9           Fe  tau(   9) = (   0.2499989   0.3535526   0.0000000  )
        10           Fe  tau(  10) = (   0.4166663   0.1178509   0.0000000  )
        11           Fe  tau(  11) = (   0.0833326   0.2357017   0.2041376  )
        12           Fe  tau(  12) = (   0.2500000   0.0000000   0.2041376  )
        13           Fe  tau(  13) = (   0.2500452   0.3534538   0.4077446  )
        14           Fe  tau(  14) = (   0.4190567   0.1195660   0.4061143  )
        15           Fe  tau(  15) = (   0.0922598   0.2320729   0.6067819  )
        16           Fe  tau(  16) = (   0.2529537   0.0020846   0.6064834  )
        17           Fe  tau(  17) = (   0.6666663   0.1178509   0.0000000  )
        18           Fe  tau(  18) = (   0.5000000   0.0000000   0.2041376  )
        19           Fe  tau(  19) = (   0.9999989   0.3535526   0.0000000  )
        20           Fe  tau(  20) = (   0.8333326   0.2357017   0.2041376  )
        21           Fe  tau(  21) = (   0.6687947   0.1165307   0.4072326  )
        22           Fe  tau(  22) = (   0.5023735   0.0082670   0.6069204  )
        23           Fe  tau(  23) = (   1.0003151   0.3509709   0.4069601  )
        24           Fe  tau(  24) = (   0.8517145   0.2096852   0.6029056  )
        25           Fe  tau(  25) = (   0.7499989   0.3535526   0.0000000  )
        26           Fe  tau(  26) = (   0.9166663   0.1178509   0.0000000  )
        27           Fe  tau(  27) = (   0.5833326   0.2357017   0.2041376  )
        28           Fe  tau(  28) = (   0.7500000   0.0000000   0.2041376  )
        29           Fe  tau(  29) = (   0.7499020   0.3534409   0.4088301  )
        30           Fe  tau(  30) = (   0.9195851   0.1134197   0.4032914  )
        31           Fe  tau(  31) = (   0.5924423   0.2420789   0.6050697  )
        32           Fe  tau(  32) = (   1.0846088   0.9332379   0.6074062  )
        33           Fe  tau(  33) = (   0.3333315   0.5892543   0.0000000  )
        34           Fe  tau(  34) = (   0.1666652   0.4714034   0.2041376  )
        35           Fe  tau(  35) = (   0.6666640   0.8249560   0.0000000  )
        36           Fe  tau(  36) = (   0.4999978   0.7071052   0.2041376  )
        37           Fe  tau(  37) = (   0.3307324   0.5895106   0.4058920  )
        38           Fe  tau(  38) = (   1.1584047   0.4709276   0.6065009  )
        39           Fe  tau(  39) = (   0.6671769   0.8274891   0.4055425  )
        40           Fe  tau(  40) = (   0.4974926   0.7106378   0.6065960  )
        41           Fe  tau(  41) = (   0.4166640   0.8249560   0.0000000  )
        42           Fe  tau(  42) = (   0.5833315   0.5892543   0.0000000  )
        43           Fe  tau(  43) = (   0.2499978   0.7071052   0.2041376  )
        44           Fe  tau(  44) = (   0.4166652   0.4714034   0.2041376  )
        45           Fe  tau(  45) = (   0.4165103   0.8248470   0.4041333  )
        46           Fe  tau(  46) = (   0.5801172   0.5934896   0.4033157  )
        47           Fe  tau(  47) = (   1.2456829   0.7040520   0.6068983  )
        48           Fe  tau(  48) = (   0.4080929   0.4758174   0.6074594  )
        49           Fe  tau(  49) = (   0.8333315   0.5892543   0.0000000  )
        50           Fe  tau(  50) = (   0.6666652   0.4714034   0.2041376  )
        51           Fe  tau(  51) = (   1.1666640   0.8249560   0.0000000  )
        52           Fe  tau(  52) = (   0.9999978   0.7071052   0.2041376  )
        53           Fe  tau(  53) = (   0.8309700   0.5903883   0.4069933  )
        54           Fe  tau(  54) = (   0.6482997   0.4973457   0.6029042  )
        55           Fe  tau(  55) = (   1.1660452   0.8224115   0.4058740  )
        56           Fe  tau(  56) = (   0.9967589   0.6994986   0.6064705  )
        57           Fe  tau(  57) = (   0.9166640   0.8249560   0.0000000  )
        58           Fe  tau(  58) = (   1.0833315   0.5892543   0.0000000  )
        59           Fe  tau(  59) = (   0.7499978   0.7071052   0.2041376  )
        60           Fe  tau(  60) = (   0.9166652   0.4714034   0.2041376  )
        61           Fe  tau(  61) = (   0.9165754   0.8250215   0.4077364  )
        62           Fe  tau(  62) = (   1.0807259   0.5874363   0.4059540  )
        63           Fe  tau(  63) = (   0.7494962   0.7167127   0.6068311  )
        64           Fe  tau(  64) = (   0.9077209   0.4650257   0.6049361  )
        65           N   tau(  65) = (   0.7501081   0.3535878   0.6396766  )
        66           H   tau(  66) = (   0.4633179   0.8579521   0.7025783  )

     number of k points=    10  Methfessel-Paxton smearing, width (Ry)=  0.0100
                       cart. coord. in units 2pi/alat
        k(    1) = (   0.0000000   0.0000000   0.0000000), wk =   0.0625000
        k(    2) = (   0.0000000   0.2651656   0.0000000), wk =   0.1250000
        k(    3) = (   0.0000000  -0.5303313   0.0000000), wk =   0.0625000
        k(    4) = (   0.2500000  -0.0883878   0.0000000), wk =   0.1250000
        k(    5) = (   0.2500000   0.1767779   0.0000000), wk =   0.1250000
        k(    6) = (   0.2500000  -0.6187190   0.0000000), wk =   0.1250000
        k(    7) = (   0.2500000  -0.3535534   0.0000000), wk =   0.1250000
        k(    8) = (  -0.5000000   0.1767755   0.0000000), wk =   0.0625000
        k(    9) = (  -0.5000000   0.4419412   0.0000000), wk =   0.1250000
        k(   10) = (  -0.5000000  -0.3535558   0.0000000), wk =   0.0625000

     Dense  grid:  2905599 G-vectors     FFT dimensions: ( 135, 135, 360)

     Smooth grid:  1027285 G-vectors     FFT dimensions: (  96,  96, 243)

     Estimated max dynamical RAM per process >     639.95 MB

     Estimated total dynamical RAM >     159.99 GB

     Check: negative core charge=   -0.000039
     Generating pointlists ...
     new r_m :   0.0737 (alat units)  1.3827 (a.u.) for type    1
     new r_m :   0.0742 (alat units)  1.3929 (a.u.) for type    2
     new r_m :   0.0737 (alat units)  1.3827 (a.u.) for type    3

     Initial potential from superposition of free atoms

     starting charge 1029.97193, renormalised to 1030.00000

     negative rho (up, down):  1.363E-02 1.115E-02
     Starting wfcs are  837 randomized atomic wfcs
     Checking if some PAW data can be deallocated... 

     total cpu time spent up to now is       31.9 secs

     Self-consistent Calculation

     iteration #  1     ecut=    60.00 Ry     beta= 0.20
     Davidson diagonalization with overlap
     c_bands:  2 eigenvalues not converged
     ethr =  1.00E-04,  avg # of iterations = 17.9

     negative rho (up, down):  7.040E-03 5.655E-03

     total cpu time spent up to now is      327.3 secs

     total energy              =  -21093.35598422 Ry
     estimated scf accuracy    <      45.73557485 Ry

     total magnetization       =   132.20 Bohr mag/cell
     absolute magnetization    =   132.56 Bohr mag/cell

     iteration #  2     ecut=    60.00 Ry     beta= 0.20
     Davidson diagonalization with overlap
     ethr =  4.44E-03,  avg # of iterations =  1.0

     negative rho (up, down):  4.316E-03 3.691E-03

     total cpu time spent up to now is      373.4 secs

     total energy              =  -21093.77725501 Ry
     estimated scf accuracy    <       9.15290753 Ry

     total magnetization       =   134.70 Bohr mag/cell
     absolute magnetization    =   135.05 Bohr mag/cell

     iteration #  3     ecut=    60.00 Ry     beta= 0.20
     Davidson diagonalization with overlap
     ethr =  8.89E-04,  avg # of iterations =  1.0

     negative rho (up, down):  1.791E-02 5.323E-02

     total cpu time spent up to now is      419.2 secs

     total energy              =  -21093.08992998 Ry
     estimated scf accuracy    <       9.74610509 Ry

     total magnetization       =   140.16 Bohr mag/cell
     absolute magnetization    =   140.57 Bohr mag/cell

     iteration #  4     ecut=    60.00 Ry     beta= 0.20
     Davidson diagonalization with overlap
     ethr =  8.89E-04,  avg # of iterations =  2.3

     negative rho (up, down):  2.850E-02 9.443E-02

     total cpu time spent up to now is      470.6 secs

     total energy              =  -21092.52258999 Ry
     estimated scf accuracy    <       8.46775490 Ry

     total magnetization       =   153.82 Bohr mag/cell
     absolute magnetization    =   154.92 Bohr mag/cell

     iteration #  5     ecut=    60.00 Ry     beta= 0.20
     Davidson diagonalization with overlap
     ethr =  8.22E-04,  avg # of iterations =  5.0

     negative rho (up, down):  5.525E-03 3.980E-02

     total cpu time spent up to now is      531.9 secs

     total energy              =  -21092.94902524 Ry
     estimated scf accuracy    <       4.20402624 Ry

     total magnetization       =   159.08 Bohr mag/cell
     absolute magnetization    =   161.06 Bohr mag/cell

     iteration #  6     ecut=    60.00 Ry     beta= 0.20
     Davidson diagonalization with overlap
     ethr =  4.08E-04,  avg # of iterations =  6.7

     negative rho (up, down):  1.298E-04 1.155E-02

     total cpu time spent up to now is      604.5 secs

     total energy              =  -21093.30216395 Ry
     estimated scf accuracy    <       0.89675550 Ry

     total magnetization       =   153.40 Bohr mag/cell
     absolute magnetization    =   156.72 Bohr mag/cell

     iteration #  7     ecut=    60.00 Ry     beta= 0.20
     Davidson diagonalization with overlap
     c_bands:  1 eigenvalues not converged
     ethr =  8.71E-05,  avg # of iterations = 17.1

     negative rho (up, down):  9.314E-05 4.519E-03

     total cpu time spent up to now is      835.3 secs

     total energy              =  -21093.77158511 Ry
     estimated scf accuracy    <       2.72133377 Ry

     total magnetization       =   150.44 Bohr mag/cell
     absolute magnetization    =   156.46 Bohr mag/cell

     iteration #  8     ecut=    60.00 Ry     beta= 0.20
     Davidson diagonalization with overlap
     ethr =  8.71E-05,  avg # of iterations =  2.0

     negative rho (up, down):  2.376E-05 2.002E-03

     total cpu time spent up to now is      885.9 secs

     total energy              =  -21093.80976391 Ry
     estimated scf accuracy    <       0.42650177 Ry

     total magnetization       =   151.72 Bohr mag/cell
     absolute magnetization    =   156.93 Bohr mag/cell

     iteration #  9     ecut=    60.00 Ry     beta= 0.20
     Davidson diagonalization with overlap
     ethr =  4.14E-05,  avg # of iterations =  3.0

     negative rho (up, down):  2.022E-04 1.268E-03

     total cpu time spent up to now is      940.1 secs

     total energy              =  -21093.78663137 Ry
     estimated scf accuracy    <       0.32848377 Ry

     total magnetization       =   152.55 Bohr mag/cell
     absolute magnetization    =   157.60 Bohr mag/cell

     iteration # 10     ecut=    60.00 Ry     beta= 0.20
     Davidson diagonalization with overlap
     ethr =  3.19E-05,  avg # of iterations =  8.0

     negative rho (up, down):  8.407E-05 1.532E-03

     total cpu time spent up to now is     1041.2 secs

     total energy              =  -21093.83429509 Ry
     estimated scf accuracy    <       0.39285237 Ry

     total magnetization       =   157.20 Bohr mag/cell
     absolute magnetization    =   162.53 Bohr mag/cell

     iteration # 11     ecut=    60.00 Ry     beta= 0.20
     Davidson diagonalization with overlap
     ethr =  3.19E-05,  avg # of iterations =  3.0

     negative rho (up, down):  1.067E-04 1.375E-03

     total cpu time spent up to now is     1113.4 secs

     total energy              =  -21093.82886407 Ry
     estimated scf accuracy    <       0.25440103 Ry

     total magnetization       =   158.32 Bohr mag/cell
     absolute magnetization    =   163.71 Bohr mag/cell

     iteration # 12     ecut=    60.00 Ry     beta= 0.20
     Davidson diagonalization with overlap
     ethr =  2.47E-05,  avg # of iterations =  2.2

     negative rho (up, down):  2.741E-04 1.301E-03

     total cpu time spent up to now is     1173.5 secs

     total energy              =  -21093.81239508 Ry
     estimated scf accuracy    <       0.16854235 Ry

     total magnetization       =   158.79 Bohr mag/cell
     absolute magnetization    =   164.28 Bohr mag/cell

     iteration # 13     ecut=    60.00 Ry     beta= 0.20
     Davidson diagonalization with overlap
     c_bands:  3 eigenvalues not converged
     ethr =  1.64E-05,  avg # of iterations =  7.3

     negative rho (up, down):  6.202E-04 1.436E-03

     total cpu time spent up to now is     1247.8 secs

     total energy              =  -21093.82053454 Ry
     estimated scf accuracy    <       0.34059891 Ry

     total magnetization       =   159.83 Bohr mag/cell
     absolute magnetization    =   165.45 Bohr mag/cell

     iteration # 14     ecut=    60.00 Ry     beta= 0.20
     Davidson diagonalization with overlap
     ethr =  1.64E-05,  avg # of iterations =  2.2

     negative rho (up, down):  1.687E-02 1.090E-02

     total cpu time spent up to now is     1309.1 secs

     total energy              =  -21093.81549653 Ry
     estimated scf accuracy    <       0.14786645 Ry

     total magnetization       =   160.26 Bohr mag/cell
     absolute magnetization    =   165.93 Bohr mag/cell

     iteration # 15     ecut=    60.00 Ry     beta= 0.20
     Davidson diagonalization with overlap
     ethr =  1.44E-05,  avg # of iterations =  2.2

     negative rho (up, down):  7.176E-02 6.336E-02

     total cpu time spent up to now is     1370.9 secs

     total energy              =  -21093.80849651 Ry
     estimated scf accuracy    <       0.10096570 Ry

     total magnetization       =   160.41 Bohr mag/cell
     absolute magnetization    =   166.12 Bohr mag/cell

     iteration # 16     ecut=    60.00 Ry     beta= 0.20
     Davidson diagonalization with overlap
     ethr =  9.80E-06,  avg # of iterations = 10.9

     negative rho (up, down):  1.087E-01 1.019E-01

     total cpu time spent up to now is     1459.3 secs

     total energy              =  -21093.79831853 Ry
     estimated scf accuracy    <       0.09204945 Ry

     total magnetization       =   160.28 Bohr mag/cell
     absolute magnetization    =   166.05 Bohr mag/cell

     iteration # 17     ecut=    60.00 Ry     beta= 0.20
     Davidson diagonalization with overlap
     c_bands:  5 eigenvalues not converged
     ethr =  8.94E-06,  avg # of iterations = 13.3

     negative rho (up, down):  8.167E-02 7.760E-02

     total cpu time spent up to now is     1561.6 secs

     total energy              =  -21093.79041713 Ry
     estimated scf accuracy    <       0.03044807 Ry

     total magnetization       =   159.85 Bohr mag/cell
     absolute magnetization    =   165.76 Bohr mag/cell

     iteration # 18     ecut=    60.00 Ry     beta= 0.20
     Davidson diagonalization with overlap
     c_bands:  3 eigenvalues not converged
     c_bands:  4 eigenvalues not converged
     c_bands:  3 eigenvalues not converged
     ethr =  2.96E-06,  avg # of iterations = 19.1

     negative rho (up, down):  7.281E-02 7.025E-02

     total cpu time spent up to now is     1816.1 secs

     total energy              =  -21093.78439514 Ry
     estimated scf accuracy    <       0.02897607 Ry

     total magnetization       =   159.46 Bohr mag/cell
     absolute magnetization    =   165.73 Bohr mag/cell

     iteration # 19     ecut=    60.00 Ry     beta= 0.20
     Davidson diagonalization with overlap
     c_bands:  3 eigenvalues not converged
     c_bands:  2 eigenvalues not converged
     ethr =  2.81E-06,  avg # of iterations = 13.1

     negative rho (up, down):  8.432E-02 8.356E-02

     total cpu time spent up to now is     1905.8 secs

     total energy              =  -21093.76351554 Ry
     estimated scf accuracy    <       0.01236576 Ry

     total magnetization       =   159.46 Bohr mag/cell
     absolute magnetization    =   165.84 Bohr mag/cell

     iteration # 20     ecut=    60.00 Ry     beta= 0.20
     Davidson diagonalization with overlap
     c_bands:  2 eigenvalues not converged
     c_bands:  1 eigenvalues not converged
     ethr =  1.20E-06,  avg # of iterations = 15.2

     negative rho (up, down):  8.323E-02 8.198E-02

     total cpu time spent up to now is     2089.8 secs

     total energy              =  -21093.76617666 Ry
     estimated scf accuracy    <       0.00701001 Ry

     total magnetization       =   159.70 Bohr mag/cell
     absolute magnetization    =   166.43 Bohr mag/cell

     iteration # 21     ecut=    60.00 Ry     beta= 0.20
     Davidson diagonalization with overlap
     ethr =  6.81E-07,  avg # of iterations =  9.7

     negative rho (up, down):  5.953E-02 5.937E-02

     total cpu time spent up to now is     2188.6 secs

     total energy              =  -21093.76275185 Ry
     estimated scf accuracy    <       0.00515014 Ry

     total magnetization       =   159.85 Bohr mag/cell
     absolute magnetization    =   166.62 Bohr mag/cell

     iteration # 22     ecut=    60.00 Ry     beta= 0.20
     Davidson diagonalization with overlap
     ethr =  5.00E-07,  avg # of iterations =  8.6

     negative rho (up, down):  4.944E-02 4.975E-02

     total cpu time spent up to now is     2294.9 secs

     total energy              =  -21093.76309759 Ry
     estimated scf accuracy    <       0.00256200 Ry

     total magnetization       =   160.06 Bohr mag/cell
     absolute magnetization    =   166.88 Bohr mag/cell

     iteration # 23     ecut=    60.00 Ry     beta= 0.20
     Davidson diagonalization with overlap
     ethr =  2.49E-07,  avg # of iterations = 11.6

     negative rho (up, down):  3.233E-02 3.382E-02

     total cpu time spent up to now is     2438.7 secs

     total energy              =  -21093.76401429 Ry
     estimated scf accuracy    <       0.00182676 Ry

     total magnetization       =   160.13 Bohr mag/cell
     absolute magnetization    =   167.03 Bohr mag/cell

     iteration # 24     ecut=    60.00 Ry     beta= 0.20
     Davidson diagonalization with overlap
     ethr =  1.77E-07,  avg # of iterations =  6.0

     negative rho (up, down):  1.984E-02 2.282E-02

     total cpu time spent up to now is     2503.6 secs

     total energy              =  -21093.76487403 Ry
     estimated scf accuracy    <       0.00089200 Ry

     total magnetization       =   160.20 Bohr mag/cell
     absolute magnetization    =   167.08 Bohr mag/cell

     iteration # 25     ecut=    60.00 Ry     beta= 0.20
     Davidson diagonalization with overlap
     ethr =  8.66E-08,  avg # of iterations =  7.1

     negative rho (up, down):  1.783E-02 2.100E-02

     total cpu time spent up to now is     2606.5 secs

     total energy              =  -21093.76553550 Ry
     estimated scf accuracy    <       0.00026636 Ry

     total magnetization       =   160.24 Bohr mag/cell
     absolute magnetization    =   167.12 Bohr mag/cell

     iteration # 26     ecut=    60.00 Ry     beta= 0.20
     Davidson diagonalization with overlap
     ethr =  2.59E-08,  avg # of iterations =  8.2

     negative rho (up, down):  1.404E-02 1.758E-02

     total cpu time spent up to now is     2743.4 secs

     total energy              =  -21093.76666523 Ry
     estimated scf accuracy    <       0.00018703 Ry

     total magnetization       =   160.28 Bohr mag/cell
     absolute magnetization    =   167.17 Bohr mag/cell

     iteration # 27     ecut=    60.00 Ry     beta= 0.20
     Davidson diagonalization with overlap
     ethr =  1.82E-08,  avg # of iterations =  3.4

     negative rho (up, down):  1.152E-02 1.533E-02

     total cpu time spent up to now is     2803.3 secs

     total energy              =  -21093.76806928 Ry
     estimated scf accuracy    <       0.00008276 Ry

     total magnetization       =   160.35 Bohr mag/cell
     absolute magnetization    =   167.25 Bohr mag/cell

     iteration # 28     ecut=    60.00 Ry     beta= 0.20
     Davidson diagonalization with overlap
     ethr =  8.03E-09,  avg # of iterations =  8.5

     negative rho (up, down):  1.191E-02 1.573E-02

     total cpu time spent up to now is     2950.3 secs

     total energy              =  -21093.76808169 Ry
     estimated scf accuracy    <       0.00002453 Ry

     total magnetization       =   160.39 Bohr mag/cell
     absolute magnetization    =   167.32 Bohr mag/cell

     iteration # 29     ecut=    60.00 Ry     beta= 0.20
     Davidson diagonalization with overlap
     ethr =  2.38E-09,  avg # of iterations =  9.8

     negative rho (up, down):  1.206E-02 1.589E-02

     total cpu time spent up to now is     3097.2 secs

     total energy              =  -21093.76812700 Ry
     estimated scf accuracy    <       0.00001184 Ry

     total magnetization       =   160.41 Bohr mag/cell
     absolute magnetization    =   167.34 Bohr mag/cell

     iteration # 30     ecut=    60.00 Ry     beta= 0.20
     Davidson diagonalization with overlap
     ethr =  1.15E-09,  avg # of iterations =  8.3

     negative rho (up, down):  1.227E-02 1.609E-02

     total cpu time spent up to now is     3256.6 secs

     total energy              =  -21093.76821251 Ry
     estimated scf accuracy    <       0.00001097 Ry

     total magnetization       =   160.41 Bohr mag/cell
     absolute magnetization    =   167.35 Bohr mag/cell

     iteration # 31     ecut=    60.00 Ry     beta= 0.20
     Davidson diagonalization with overlap
     ethr =  1.06E-09,  avg # of iterations =  7.6

     negative rho (up, down):  1.232E-02 1.615E-02

     total cpu time spent up to now is     3322.0 secs

     total energy              =  -21093.76816466 Ry
     estimated scf accuracy    <       0.00000279 Ry

     total magnetization       =   160.42 Bohr mag/cell
     absolute magnetization    =   167.36 Bohr mag/cell

     iteration # 32     ecut=    60.00 Ry     beta= 0.20
     Davidson diagonalization with overlap
     ethr =  2.71E-10,  avg # of iterations =  7.8

     negative rho (up, down):  1.235E-02 1.619E-02

     total cpu time spent up to now is     3473.3 secs

     total energy              =  -21093.76809401 Ry
     estimated scf accuracy    <       0.00000246 Ry

     total magnetization       =   160.42 Bohr mag/cell
     absolute magnetization    =   167.36 Bohr mag/cell

     iteration # 33     ecut=    60.00 Ry     beta= 0.20
     Davidson diagonalization with overlap
     ethr =  2.39E-10,  avg # of iterations =  2.5

     negative rho (up, down):  1.240E-02 1.624E-02

     total cpu time spent up to now is     3526.1 secs

     total energy              =  -21093.76796471 Ry
     estimated scf accuracy    <       0.00000144 Ry

     total magnetization       =   160.43 Bohr mag/cell
     absolute magnetization    =   167.37 Bohr mag/cell

     iteration # 34     ecut=    60.00 Ry     beta= 0.20
     Davidson diagonalization with overlap
     ethr =  1.39E-10,  avg # of iterations =  7.0

     negative rho (up, down):  1.237E-02 1.621E-02

     total cpu time spent up to now is     3599.9 secs

     total energy              =  -21093.76792493 Ry
     estimated scf accuracy    <       0.00000126 Ry

     total magnetization       =   160.43 Bohr mag/cell
     absolute magnetization    =   167.37 Bohr mag/cell

     iteration # 35     ecut=    60.00 Ry     beta= 0.20
     Davidson diagonalization with overlap
     ethr =  1.23E-10,  avg # of iterations =  2.9

     negative rho (up, down):  1.220E-02 1.604E-02

     total cpu time spent up to now is     3653.8 secs

     total energy              =  -21093.76791008 Ry
     estimated scf accuracy    <       0.00000090 Ry

     total magnetization       =   160.43 Bohr mag/cell
     absolute magnetization    =   167.37 Bohr mag/cell

     iteration # 36     ecut=    60.00 Ry     beta= 0.20
     Davidson diagonalization with overlap
     ethr =  8.76E-11,  avg # of iterations =  8.2

     negative rho (up, down):  1.213E-02 1.597E-02

     total cpu time spent up to now is     3817.5 secs

     total energy              =  -21093.76793045 Ry
     estimated scf accuracy    <       0.00000092 Ry

     total magnetization       =   160.44 Bohr mag/cell
     absolute magnetization    =   167.39 Bohr mag/cell

     iteration # 37     ecut=    60.00 Ry     beta= 0.20
     Davidson diagonalization with overlap
     ethr =  8.76E-11,  avg # of iterations =  4.6

     negative rho (up, down):  1.207E-02 1.591E-02

     total cpu time spent up to now is     3880.0 secs

     total energy              =  -21093.76792269 Ry
     estimated scf accuracy    <       0.00000016 Ry

     total magnetization       =   160.44 Bohr mag/cell
     absolute magnetization    =   167.39 Bohr mag/cell

     iteration # 38     ecut=    60.00 Ry     beta= 0.20
     Davidson diagonalization with overlap
     ethr =  1.55E-11,  avg # of iterations = 10.4

     negative rho (up, down):  1.203E-02 1.587E-02

     total cpu time spent up to now is     4029.1 secs

     total energy              =  -21093.76792308 Ry
     estimated scf accuracy    <       0.00000017 Ry

     total magnetization       =   160.45 Bohr mag/cell
     absolute magnetization    =   167.39 Bohr mag/cell

     iteration # 39     ecut=    60.00 Ry     beta= 0.20
     Davidson diagonalization with overlap
     ethr =  1.55E-11,  avg # of iterations =  5.2

     negative rho (up, down):  1.201E-02 1.585E-02

     total cpu time spent up to now is     4086.7 secs

     total energy              =  -21093.76791872 Ry
     estimated scf accuracy    <       0.00000004 Ry

     total magnetization       =   160.45 Bohr mag/cell
     absolute magnetization    =   167.39 Bohr mag/cell

     iteration # 40     ecut=    60.00 Ry     beta= 0.20
     Davidson diagonalization with overlap
     ethr =  3.80E-12,  avg # of iterations =  9.7

     negative rho (up, down):  1.201E-02 1.585E-02

     total cpu time spent up to now is     4239.7 secs

     total energy              =  -21093.76790626 Ry
     estimated scf accuracy    <       0.00000002 Ry

     total magnetization       =   160.45 Bohr mag/cell
     absolute magnetization    =   167.39 Bohr mag/cell

     iteration # 41     ecut=    60.00 Ry     beta= 0.20
     Davidson diagonalization with overlap
     ethr =  2.41E-12,  avg # of iterations =  5.9

     negative rho (up, down):  1.201E-02 1.585E-02

     total cpu time spent up to now is     4307.0 secs

     total energy              =  -21093.76788921 Ry
     estimated scf accuracy    <       0.00000001 Ry

     total magnetization       =   160.45 Bohr mag/cell
     absolute magnetization    =   167.39 Bohr mag/cell

     iteration # 42     ecut=    60.00 Ry     beta= 0.20
     Davidson diagonalization with overlap
     ethr =  1.45E-12,  avg # of iterations =  6.2

     negative rho (up, down):  1.203E-02 1.587E-02

     Magnetic moment per site:
     atom:    1    charge:   12.5874    magn:    2.3560    constr:    0.0000
     atom:    2    charge:   12.5771    magn:    2.1644    constr:    0.0000
     atom:    3    charge:   12.5869    magn:    2.3566    constr:    0.0000
     atom:    4    charge:   12.5753    magn:    2.2028    constr:    0.0000
     atom:    5    charge:   12.5791    magn:    2.2052    constr:    0.0000
     atom:    6    charge:   12.5806    magn:    2.2249    constr:    0.0000
     atom:    7    charge:   12.5752    magn:    2.2563    constr:    0.0000
     atom:    8    charge:   12.5834    magn:    2.3642    constr:    0.0000
     atom:    9    charge:   12.5877    magn:    2.3496    constr:    0.0000
     atom:   10    charge:   12.5876    magn:    2.3538    constr:    0.0000
     atom:   11    charge:   12.5759    magn:    2.2080    constr:    0.0000
     atom:   12    charge:   12.5765    magn:    2.1954    constr:    0.0000
     atom:   13    charge:   12.5753    magn:    2.2083    constr:    0.0000
     atom:   14    charge:   12.5792    magn:    2.1750    constr:    0.0000
     atom:   15    charge:   12.5881    magn:    2.3334    constr:    0.0000
     atom:   16    charge:   12.5846    magn:    2.2221    constr:    0.0000
     atom:   17    charge:   12.5867    magn:    2.3566    constr:    0.0000
     atom:   18    charge:   12.5753    magn:    2.2029    constr:    0.0000
     atom:   19    charge:   12.5869    magn:    2.3574    constr:    0.0000
     atom:   20    charge:   12.5748    magn:    2.2248    constr:    0.0000
     atom:   21    charge:   12.5753    magn:    2.2560    constr:    0.0000
     atom:   22    charge:   12.5832    magn:    2.3643    constr:    0.0000
     atom:   23    charge:   12.5757    magn:    2.2505    constr:    0.0000
     atom:   24    charge:   12.5937    magn:    1.6422    constr:    0.0000
     atom:   25    charge:   12.5871    magn:    2.3631    constr:    0.0000
     atom:   26    charge:   12.5869    magn:    2.3571    constr:    0.0000
     atom:   27    charge:   12.5750    magn:    2.2204    constr:    0.0000
     atom:   28    charge:   12.5757    magn:    2.2056    constr:    0.0000
     atom:   29    charge:   12.5766    magn:    2.2830    constr:    0.0000
     atom:   30    charge:   12.5788    magn:    2.0666    constr:    0.0000
     atom:   31    charge:   12.5823    magn:    2.1295    constr:    0.0000
     atom:   32    charge:   12.5871    magn:    2.3356    constr:    0.0000
     atom:   33    charge:   12.5874    magn:    2.3572    constr:    0.0000
     atom:   34    charge:   12.5753    magn:    2.1977    constr:    0.0000
     atom:   35    charge:   12.5874    magn:    2.3560    constr:    0.0000
     atom:   36    charge:   12.5771    magn:    2.1645    constr:    0.0000
     atom:   37    charge:   12.5788    magn:    2.1954    constr:    0.0000
     atom:   38    charge:   12.5851    magn:    2.3450    constr:    0.0000
     atom:   39    charge:   12.5789    magn:    2.2053    constr:    0.0000
     atom:   40    charge:   12.5804    magn:    2.2250    constr:    0.0000
     atom:   41    charge:   12.5876    magn:    2.3582    constr:    0.0000
     atom:   42    charge:   12.5873    magn:    2.3572    constr:    0.0000
     atom:   43    charge:   12.5761    magn:    2.1986    constr:    0.0000
     atom:   44    charge:   12.5759    magn:    2.2058    constr:    0.0000
     atom:   45    charge:   12.5791    magn:    2.1599    constr:    0.0000
     atom:   46    charge:   12.5792    magn:    2.0666    constr:    0.0000
     atom:   47    charge:   12.5866    magn:    2.3583    constr:    0.0000
     atom:   48    charge:   12.5871    magn:    2.3358    constr:    0.0000
     atom:   49    charge:   12.5871    magn:    2.3575    constr:    0.0000
     atom:   50    charge:   12.5752    magn:    2.2251    constr:    0.0000
     atom:   51    charge:   12.5874    magn:    2.3572    constr:    0.0000
     atom:   52    charge:   12.5753    magn:    2.1977    constr:    0.0000
     atom:   53    charge:   12.5755    magn:    2.2507    constr:    0.0000
     atom:   54    charge:   12.5934    magn:    1.6423    constr:    0.0000
     atom:   55    charge:   12.5792    magn:    2.1953    constr:    0.0000
     atom:   56    charge:   12.5852    magn:    2.3450    constr:    0.0000
     atom:   57    charge:   12.5877    magn:    2.3496    constr:    0.0000
     atom:   58    charge:   12.5875    magn:    2.3548    constr:    0.0000
     atom:   59    charge:   12.5761    magn:    2.2081    constr:    0.0000
     atom:   60    charge:   12.5751    magn:    2.2193    constr:    0.0000
     atom:   61    charge:   12.5754    magn:    2.2082    constr:    0.0000
     atom:   62    charge:   12.5790    magn:    2.1864    constr:    0.0000
     atom:   63    charge:   12.5881    magn:    2.3336    constr:    0.0000
     atom:   64    charge:   12.5817    magn:    2.1365    constr:    0.0000
     atom:   65    charge:    3.7481    magn:   -0.1339    constr:    0.0000
     atom:   66    charge:    0.9778    magn:   -0.0239    constr:    0.0000

     total cpu time spent up to now is     4377.1 secs

     End of self-consistent calculation

 ------ SPIN UP ------------


          k = 0.0000 0.0000 0.0000 (128403 PWs)   bands (ev):

   -92.7041 -92.6457 -92.6377 -92.6140 -92.6118 -92.6067 -92.6039 -92.5990
   -92.5974 -92.5940 -92.5919 -92.5901 -92.5894 -92.5834 -92.5814 -92.5810
   -92.5805 -92.5790 -92.5774 -92.5763 -92.5757 -92.5747 -92.5662 -92.5652
   -92.5625 -92.5624 -92.5615 -92.5597 -92.5555 -92.5479 -92.5344 -92.5322
   -92.5256 -92.5230 -92.5144 -92.4805 -92.4714 -92.4703 -92.4625 -92.4601
   -92.4582 -92.4538 -92.4520 -92.4486 -92.4440 -92.4429 -92.4418 -92.4392
   -92.4384 -92.4364 -92.4363 -92.4311 -92.4311 -92.4298 -92.4283 -92.4279
   -92.4219 -92.4203 -92.4155 -92.4146 -92.4096 -92.4021 -92.3988 -92.3948
   -58.8818 -58.8310 -58.8096 -58.8086 -58.8040 -58.8023 -58.8010 -58.7991
   -58.7955 -58.7885 -58.7874 -58.7855 -58.7850 -58.7835 -58.7808 -58.7799
   -58.7781 -58.7742 -58.7716 -58.7689 -58.7687 -58.7684 -58.7640 -58.7624
   -58.7614 -58.7548 -58.7542 -58.7533 -58.7495 -58.7471 -58.7454 -58.7420
   -58.7413 -58.7358 -58.7340 -58.7310 -58.7204 -58.7195 -58.7188 -58.7167
   -58.7085 -58.7036 -58.6966 -58.6942 -58.6934 -58.6917 -58.6890 -58.6815
   -58.6766 -58.6729 -58.6655 -58.6573 -58.6523 -58.6482 -58.6413 -58.6400
   -58.6388 -58.6350 -58.6337 -58.6318 -58.6256 -58.6242 -58.6229 -58.6221
   -58.6209 -58.6150 -58.6142 -58.6122 -58.6115 -58.6097 -58.6073 -58.6024
   -58.6000 -58.5961 -58.5893 -58.5845 -58.5837 -58.5806 -58.5795 -58.5733
   -58.5730 -58.5724 -58.5694 -58.5638 -58.5635 -58.5617 -58.5589 -58.5582
   -58.5570 -58.5556 -58.5541 -58.5515 -58.5514 -58.5488 -58.5486 -58.5473
   -58.5459 -58.5446 -58.5410 -58.5402 -58.5382 -58.5373 -58.5362 -58.5300
   -58.5297 -58.5279 -58.5226 -58.5200 -58.5183 -58.5152 -58.5143 -58.5138
   -58.5099 -58.5072 -58.5041 -58.5016 -58.4997 -58.4955 -58.4943 -58.4932
   -58.4902 -58.4895 -58.4888 -58.4856 -58.4845 -58.4795 -58.4795 -58.4766
   -58.4765 -58.4754 -58.4725 -58.4716 -58.4695 -58.4690 -58.4686 -58.4635
   -58.4567 -58.4535 -58.4517 -58.4506 -58.4455 -58.4447 -58.4420 -58.4396
   -58.4388 -58.4365 -58.4364 -58.4322 -58.4277 -58.4266 -58.4265 -58.4242
   -58.4230 -58.4219 -58.4218 -58.4164 -58.4156 -58.4154 -58.4105 -58.4052
   -58.4036 -58.4027 -58.4024 -58.4024 -58.4010 -58.3975 -58.3901 -58.3875
   -58.3861 -58.3838 -58.3817 -58.3732 -58.3723 -58.3701 -58.3684 -58.3653
   -58.3607 -58.3557 -58.3509 -58.3496 -58.3481 -58.3458 -58.3457 -58.3447
   -58.3384 -58.3370 -58.3351 -58.3324 -58.3322 -58.3284 -58.2644 -58.2635
   -20.0302 -12.3855 -11.3772 -11.0716 -11.0204 -10.8318 -10.6940 -10.5924
   -10.5056 -10.5040 -10.2499 -10.1817  -9.9143  -9.7160  -9.6382  -9.5745
    -9.5556  -9.3840  -9.2866  -9.2526  -9.1367  -9.0853  -9.0568  -9.0505
    -9.0239  -8.9893  -8.9819  -8.9604  -8.9032  -8.8167  -8.6724  -8.6266
    -8.5920  -8.5835  -8.5644  -8.5398  -8.5249  -8.5205  -8.5117  -8.5003
    -8.4933  -8.4917  -8.4850  -8.4821  -8.4753  -8.4686  -8.4664  -8.4536
    -8.4311  -8.4248  -8.4243  -8.4221  -8.4022  -8.3977  -8.3777  -8.3545
    -8.3541  -8.3158  -8.3066  -8.2416  -8.2413  -8.2284  -8.2227  -8.1517
    -8.1513  -8.0624  -7.9785  -7.9626  -7.9393  -7.9196  -7.9105  -7.9054
    -7.8972  -7.8722  -7.8333  -7.7613  -7.7571  -7.7522  -7.7473  -7.7399
    -7.7319  -7.7315  -7.7269  -7.7090  -7.6944  -7.6907  -7.6894  -7.6849
    -7.6834  -7.6695  -7.6584  -7.6553  -7.6465  -7.6456  -7.6400  -7.6288
    -7.6098  -7.6085  -7.5968  -7.5895  -7.5859  -7.5851  -7.5771  -7.5727
    -7.5629  -7.5576  -7.5469  -7.5392  -7.5269  -7.5128  -7.4536  -7.4446
    -7.4432  -7.3792  -7.3763  -7.3745  -7.3691  -7.3379  -7.3067  -7.2904
    -7.2781  -7.2499  -7.2115  -7.1863  -7.1752  -7.1633  -7.1519  -7.1515
    -7.1445  -7.1430  -7.1280  -7.1136  -7.0849  -7.0723  -7.0511  -7.0505
    -7.0423  -7.0397  -7.0313  -7.0243  -7.0156  -7.0132  -7.0114  -7.0016
    -6.9865  -6.9554  -6.9385  -6.9083  -6.8897  -6.8558  -6.8556  -6.8531
    -6.8498  -6.8463  -6.8331  -6.8231  -6.8047  -6.7944  -6.7784  -6.7576
    -6.7359  -6.7252  -6.7251  -6.7217  -6.7183  -6.7152  -6.7143  -6.7032
    -6.6973  -6.6496  -6.6344  -6.6256  -6.6165  -6.6058  -6.5955  -6.5938
    -6.5917  -6.5729  -6.5714  -6.5686  -6.5653  -6.5590  -6.5497  -6.5380
    -6.5176  -6.4841  -6.4699  -6.4497  -6.3302  -6.3202  -6.2149  -6.1976
    -6.0882  -6.0729  -6.0578  -6.0535  -6.0519  -6.0440  -6.0355  -6.0320
    -6.0248  -6.0164  -6.0026  -5.9979  -5.9978  -5.9843  -5.9529  -5.9435
    -5.9309  -5.9119  -5.9104  -5.8923  -5.8914  -5.8830  -5.8679  -5.8605
    -5.8583  -5.8515  -5.8409  -5.8382  -5.8328  -5.8200  -5.8142  -5.8079
    -5.8020  -5.7863  -5.7808  -5.7694  -5.7443  -5.7325  -5.7308  -5.7281
    -5.7146  -5.7083  -5.7057  -5.7044  -5.7003  -5.6787  -5.6783  -5.6727
    -5.6698  -5.6680  -5.6581  -5.6516  -5.6500  -5.6418  -5.6319  -5.6249
    -5.6229  -5.6218  -5.6152  -5.6137  -5.6122  -5.6083  -5.6011  -5.5983
    -5.5967  -5.5926  -5.5818  -5.5798  -5.5652  -5.5623  -5.5611  -5.5527
    -5.5506  -5.5340  -5.5293  -5.5187  -5.5141  -5.5115  -5.5112  -5.5033
    -5.4992  -5.4980  -5.4920  -5.4891  -5.4697  -5.4663  -5.4464  -5.4380
    -5.4267  -5.4114  -5.4063  -5.3985  -5.3925  -5.3859  -5.3803  -5.3754
    -5.3709  -5.3594  -5.3460  -5.3457  -5.2840  -5.2635  -5.2464  -5.2458
    -5.2405  -5.2371  -5.2323  -5.2307  -5.2269  -5.2153  -5.1985  -5.1978
    -5.1936  -5.1818  -5.1800  -5.1733  -5.1635  -5.1607  -5.1357  -5.1321
    -5.1284  -5.0829  -5.0696  -4.8961  -4.8018  -4.7987  -4.7567  -4.7434
    -4.7379  -4.7132  -4.6497  -4.6432  -4.6194  -4.5877  -4.5777  -4.5718
    -4.5588  -4.4990  -4.4978  -4.4970  -4.4658  -4.4469  -4.4316  -4.4220
    -4.4055  -4.3920  -4.3602  -4.3072  -4.2788  -4.2657  -4.2266  -4.1718
    -4.1559  -3.9357  -3.8184  -3.7293  -3.5439  -3.4413  -3.4215  -3.4120
    -3.3630  -3.0846  -2.8690  -2.8201  -2.7407  -2.6024  -2.5669  -2.5515
    -2.5144  -2.4521

          k = 0.0000 0.2652 0.0000 (128375 PWs)   bands (ev):

   -92.7041 -92.6457 -92.6377 -92.6136 -92.6107 -92.6075 -92.6041 -92.6007
   -92.5984 -92.5933 -92.5911 -92.5908 -92.5869 -92.5842 -92.5835 -92.5820
   -92.5810 -92.5784 -92.5759 -92.5756 -92.5745 -92.5740 -92.5673 -92.5659
   -92.5628 -92.5624 -92.5617 -92.5592 -92.5544 -92.5487 -92.5343 -92.5323
   -92.5256 -92.5229 -92.5144 -92.4797 -92.4742 -92.4676 -92.4645 -92.4601
   -92.4563 -92.4554 -92.4510 -92.4477 -92.4441 -92.4436 -92.4424 -92.4393
   -92.4382 -92.4375 -92.4347 -92.4331 -92.4303 -92.4296 -92.4277 -92.4268
   -92.4226 -92.4211 -92.4168 -92.4143 -92.4077 -92.4025 -92.3986 -92.3954
   -58.8816 -58.8284 -58.8133 -58.8089 -58.8045 -58.8018 -58.8006 -58.7981
   -58.7940 -58.7909 -58.7868 -58.7864 -58.7838 -58.7824 -58.7810 -58.7794
   -58.7762 -58.7730 -58.7720 -58.7713 -58.7668 -58.7653 -58.7639 -58.7613
   -58.7594 -58.7564 -58.7543 -58.7518 -58.7501 -58.7476 -58.7451 -58.7429
   -58.7417 -58.7359 -58.7313 -58.7253 -58.7191 -58.7167 -58.7142 -58.7096
   -58.7067 -58.7035 -58.7013 -58.6942 -58.6918 -58.6876 -58.6857 -58.6812
   -58.6793 -58.6688 -58.6669 -58.6592 -58.6573 -58.6497 -58.6479 -58.6431
   -58.6396 -58.6379 -58.6351 -58.6311 -58.6301 -58.6286 -58.6223 -58.6212
   -58.6181 -58.6163 -58.6142 -58.6128 -58.6113 -58.6090 -58.6087 -58.6079
   -58.6053 -58.6035 -58.5998 -58.5968 -58.5937 -58.5880 -58.5866 -58.5828
   -58.5818 -58.5784 -58.5775 -58.5717 -58.5693 -58.5640 -58.5629 -58.5621
   -58.5605 -58.5580 -58.5555 -58.5503 -58.5486 -58.5459 -58.5436 -58.5424
   -58.5406 -58.5370 -58.5357 -58.5346 -58.5323 -58.5282 -58.5271 -58.5250
   -58.5238 -58.5213 -58.5192 -58.5185 -58.5162 -58.5148 -58.5141 -58.5117
   -58.5100 -58.5081 -58.5062 -58.5038 -58.5004 -58.4989 -58.4970 -58.4939
   -58.4919 -58.4882 -58.4868 -58.4826 -58.4817 -58.4787 -58.4771 -58.4756
   -58.4742 -58.4721 -58.4690 -58.4655 -58.4648 -58.4637 -58.4600 -58.4576
   -58.4550 -58.4520 -58.4501 -58.4464 -58.4447 -58.4424 -58.4419 -58.4386
   -58.4377 -58.4358 -58.4344 -58.4305 -58.4287 -58.4276 -58.4249 -58.4233
   -58.4229 -58.4185 -58.4179 -58.4167 -58.4151 -58.4144 -58.4112 -58.4090
   -58.4070 -58.4050 -58.4029 -58.4009 -58.3995 -58.3938 -58.3915 -58.3865
   -58.3822 -58.3814 -58.3803 -58.3745 -58.3719 -58.3702 -58.3680 -58.3653
   -58.3614 -58.3593 -58.3549 -58.3534 -58.3513 -58.3500 -58.3474 -58.3453
   -58.3429 -58.3401 -58.3394 -58.3358 -58.3331 -58.3297 -58.2649 -58.2639
   -20.0302 -12.2791 -11.5204 -11.2243 -11.0417 -10.8615 -10.7545 -10.6637
   -10.4815 -10.3161 -10.1359 -10.0027  -9.8834  -9.7326  -9.6288  -9.5635
    -9.4174  -9.3605  -9.3128  -9.2175  -9.1463  -9.0969  -9.0553  -9.0037
    -8.9946  -8.9726  -8.9501  -8.9353  -8.8900  -8.8504  -8.7697  -8.7089
    -8.6782  -8.6558  -8.6312  -8.6252  -8.6122  -8.6080  -8.5865  -8.5792
    -8.5641  -8.5381  -8.5331  -8.5159  -8.5058  -8.4805  -8.4665  -8.4523
    -8.4308  -8.4249  -8.4104  -8.4017  -8.3935  -8.3566  -8.3396  -8.3330
    -8.3288  -8.3208  -8.2948  -8.2560  -8.2033  -8.1941  -8.1604  -8.1481
    -8.1060  -8.0899  -8.0491  -8.0282  -7.9976  -7.9630  -7.9315  -7.8848
    -7.8667  -7.8548  -7.8327  -7.8060  -7.7679  -7.7609  -7.7459  -7.7419
    -7.7321  -7.7217  -7.7170  -7.7047  -7.6987  -7.6924  -7.6816  -7.6680
    -7.6600  -7.6516  -7.6438  -7.6409  -7.6265  -7.6231  -7.6135  -7.6098
    -7.6026  -7.5961  -7.5940  -7.5846  -7.5815  -7.5590  -7.5535  -7.5262
    -7.5054  -7.5015  -7.4958  -7.4854  -7.4805  -7.4702  -7.4525  -7.4428
    -7.4303  -7.4186  -7.4133  -7.3625  -7.3348  -7.3202  -7.3118  -7.2994
    -7.2755  -7.2601  -7.2453  -7.2249  -7.2067  -7.1822  -7.1553  -7.1470
    -7.1411  -7.1256  -7.1174  -7.1108  -7.1078  -7.0916  -7.0856  -7.0802
    -7.0620  -7.0541  -7.0429  -7.0324  -7.0270  -7.0202  -7.0082  -6.9946
    -6.9794  -6.9629  -6.9317  -6.9164  -6.9060  -6.8764  -6.8701  -6.8668
    -6.8567  -6.8405  -6.8329  -6.8276  -6.8245  -6.8148  -6.8079  -6.7984
    -6.7887  -6.7842  -6.7707  -6.7629  -6.7426  -6.7368  -6.6995  -6.6828
    -6.6681  -6.6573  -6.6526  -6.6404  -6.6172  -6.6068  -6.5842  -6.5724
    -6.5624  -6.5538  -6.5417  -6.5101  -6.5013  -6.4843  -6.4510  -6.4438
    -6.4304  -6.3915  -6.3758  -6.3615  -6.3169  -6.2215  -6.2080  -6.1737
    -6.1627  -6.1513  -6.1285  -6.1057  -6.0926  -6.0860  -6.0681  -6.0458
    -6.0322  -6.0208  -6.0098  -6.0051  -5.9923  -5.9881  -5.9762  -5.9717
    -5.9594  -5.9401  -5.9364  -5.9229  -5.9076  -5.9017  -5.8925  -5.8672
    -5.8605  -5.8552  -5.8477  -5.8307  -5.8244  -5.8105  -5.8032  -5.8015
    -5.7969  -5.7889  -5.7742  -5.7511  -5.7444  -5.7382  -5.7327  -5.7160
    -5.7154  -5.7097  -5.7043  -5.6952  -5.6904  -5.6851  -5.6828  -5.6752
    -5.6713  -5.6620  -5.6516  -5.6490  -5.6379  -5.6294  -5.6241  -5.6171
    -5.6120  -5.6104  -5.5999  -5.5930  -5.5887  -5.5840  -5.5813  -5.5735
    -5.5674  -5.5621  -5.5547  -5.5498  -5.5376  -5.5313  -5.5298  -5.5247
    -5.5167  -5.5138  -5.5089  -5.5063  -5.5035  -5.4952  -5.4923  -5.4812
    -5.4763  -5.4727  -5.4627  -5.4518  -5.4407  -5.4371  -5.4209  -5.4181
    -5.4068  -5.3807  -5.3740  -5.3670  -5.3608  -5.3545  -5.3468  -5.3322
    -5.3282  -5.3184  -5.3107  -5.3047  -5.2971  -5.2935  -5.2771  -5.2622
    -5.2447  -5.2410  -5.2370  -5.2288  -5.2220  -5.2091  -5.2025  -5.2008
    -5.1884  -5.1813  -5.1608  -5.1463  -5.1285  -5.0937  -5.0814  -5.0535
    -5.0403  -5.0226  -4.9239  -4.8785  -4.8565  -4.8346  -4.8035  -4.7846
    -4.7731  -4.7495  -4.7254  -4.6992  -4.6852  -4.6544  -4.6430  -4.6344
    -4.6229  -4.6046  -4.5903  -4.5826  -4.5660  -4.5598  -4.5323  -4.5188
    -4.5009  -4.4532  -4.4305  -4.4081  -4.3769  -4.3232  -4.2301  -4.0340
    -3.9648  -3.8920  -3.8318  -3.7806  -3.6612  -3.5329  -3.4540  -3.3915
    -3.1970  -3.1643  -3.1354  -3.1082  -2.9968  -2.9042  -2.7857  -2.7028
    -2.6503  -2.5792

          k = 0.0000-0.5303 0.0000 (128388 PWs)   bands (ev):

   -92.7041 -92.6457 -92.6376 -92.6131 -92.6089 -92.6083 -92.6041 -92.6040
   -92.5978 -92.5924 -92.5915 -92.5891 -92.5883 -92.5853 -92.5835 -92.5821
   -92.5808 -92.5775 -92.5766 -92.5762 -92.5721 -92.5718 -92.5690 -92.5675
   -92.5624 -92.5619 -92.5618 -92.5600 -92.5526 -92.5500 -92.5343 -92.5324
   -92.5256 -92.5229 -92.5145 -92.4776 -92.4772 -92.4659 -92.4651 -92.4605
   -92.4584 -92.4542 -92.4494 -92.4463 -92.4446 -92.4440 -92.4436 -92.4396
   -92.4388 -92.4374 -92.4343 -92.4328 -92.4304 -92.4291 -92.4278 -92.4252
   -92.4240 -92.4211 -92.4181 -92.4141 -92.4058 -92.4032 -92.3983 -92.3961
   -58.8815 -58.8223 -58.8204 -58.8092 -58.8039 -58.8025 -58.7987 -58.7972
   -58.7939 -58.7921 -58.7883 -58.7858 -58.7825 -58.7824 -58.7799 -58.7775
   -58.7768 -58.7730 -58.7714 -58.7701 -58.7668 -58.7631 -58.7623 -58.7601
   -58.7589 -58.7566 -58.7545 -58.7511 -58.7494 -58.7488 -58.7463 -58.7433
   -58.7400 -58.7377 -58.7297 -58.7178 -58.7127 -58.7109 -58.7075 -58.7071
   -58.7064 -58.7033 -58.7026 -58.7018 -58.6910 -58.6839 -58.6799 -58.6780
   -58.6716 -58.6690 -58.6681 -58.6644 -58.6629 -58.6545 -58.6508 -58.6503
   -58.6492 -58.6447 -58.6408 -58.6325 -58.6317 -58.6305 -58.6264 -58.6237
   -58.6205 -58.6163 -58.6154 -58.6126 -58.6119 -58.6099 -58.6081 -58.6068
   -58.6051 -58.6002 -58.5992 -58.5960 -58.5951 -58.5937 -58.5912 -58.5903
   -58.5849 -58.5839 -58.5825 -58.5797 -58.5778 -58.5749 -58.5720 -58.5683
   -58.5647 -58.5639 -58.5592 -58.5527 -58.5488 -58.5460 -58.5435 -58.5411
   -58.5365 -58.5352 -58.5337 -58.5328 -58.5307 -58.5278 -58.5255 -58.5234
   -58.5230 -58.5198 -58.5161 -58.5132 -58.5126 -58.5121 -58.5087 -58.5070
   -58.5046 -58.5000 -58.4988 -58.4978 -58.4959 -58.4939 -58.4913 -58.4895
   -58.4872 -58.4846 -58.4840 -58.4828 -58.4804 -58.4802 -58.4776 -58.4752
   -58.4739 -58.4712 -58.4692 -58.4653 -58.4633 -58.4600 -58.4571 -58.4564
   -58.4549 -58.4527 -58.4501 -58.4474 -58.4467 -58.4448 -58.4411 -58.4389
   -58.4376 -58.4307 -58.4300 -58.4296 -58.4278 -58.4262 -58.4239 -58.4229
   -58.4217 -58.4198 -58.4188 -58.4175 -58.4155 -58.4133 -58.4095 -58.4092
   -58.4039 -58.4033 -58.4007 -58.3975 -58.3932 -58.3915 -58.3889 -58.3844
   -58.3801 -58.3794 -58.3770 -58.3728 -58.3714 -58.3686 -58.3680 -58.3667
   -58.3645 -58.3634 -58.3600 -58.3592 -58.3578 -58.3548 -58.3544 -58.3486
   -58.3470 -58.3444 -58.3429 -58.3370 -58.3333 -58.3304 -58.2655 -58.2643
   -20.0302 -12.0367 -11.8795 -11.2619 -11.0383 -10.8335 -10.7463 -10.6239
   -10.5982 -10.2696 -10.1589  -9.8542  -9.8162  -9.6471  -9.5882  -9.3828
    -9.3492  -9.2896  -9.2721  -9.2198  -9.1828  -9.1115  -9.0640  -9.0409
    -9.0134  -8.9282  -8.9112  -8.8659  -8.8629  -8.8542  -8.8413  -8.8283
    -8.8200  -8.8008  -8.7955  -8.7641  -8.7591  -8.6935  -8.6521  -8.6342
    -8.5616  -8.5344  -8.5024  -8.4908  -8.4837  -8.4561  -8.4523  -8.3998
    -8.3978  -8.3922  -8.3842  -8.3829  -8.3714  -8.3646  -8.3611  -8.3372
    -8.3140  -8.2692  -8.2609  -8.2323  -8.2152  -8.2105  -8.1685  -8.1492
    -8.1347  -8.1142  -8.0762  -8.0678  -8.0275  -8.0056  -7.9856  -7.9730
    -7.9545  -7.8717  -7.8401  -7.7795  -7.7722  -7.7454  -7.7408  -7.7365
    -7.7322  -7.7213  -7.6970  -7.6926  -7.6852  -7.6770  -7.6679  -7.6631
    -7.6568  -7.6484  -7.6367  -7.6331  -7.6276  -7.6220  -7.6104  -7.5927
    -7.5777  -7.5589  -7.5392  -7.5303  -7.5266  -7.5021  -7.4889  -7.4835
    -7.4732  -7.4605  -7.4516  -7.4479  -7.4405  -7.4385  -7.4325  -7.4192
    -7.4141  -7.4037  -7.3976  -7.3844  -7.3792  -7.3715  -7.3521  -7.3416
    -7.3257  -7.2561  -7.2312  -7.1969  -7.1716  -7.1477  -7.1389  -7.1333
    -7.1204  -7.1130  -7.1123  -7.1062  -7.1011  -7.0950  -7.0818  -7.0777
    -7.0728  -7.0672  -7.0655  -7.0624  -7.0607  -7.0526  -7.0390  -7.0184
    -7.0140  -6.9943  -6.9789  -6.9785  -6.9546  -6.9508  -6.9309  -6.9232
    -6.9098  -6.9063  -6.9002  -6.8747  -6.8707  -6.8499  -6.8461  -6.8402
    -6.8130  -6.8068  -6.7843  -6.7487  -6.7450  -6.7101  -6.6801  -6.6647
    -6.6312  -6.6190  -6.6136  -6.6020  -6.5913  -6.5827  -6.5798  -6.5634
    -6.5574  -6.4662  -6.4602  -6.3800  -6.3587  -6.3524  -6.3429  -6.3178
    -6.2959  -6.2931  -6.2694  -6.2626  -6.2328  -6.2315  -6.1842  -6.1793
    -6.1783  -6.1570  -6.1511  -6.1422  -6.1391  -6.1297  -6.1227  -6.0942
    -6.0888  -6.0852  -6.0729  -6.0686  -6.0173  -5.9879  -5.9827  -5.9788
    -5.9600  -5.9510  -5.9449  -5.9371  -5.9184  -5.9102  -5.8990  -5.8947
    -5.8891  -5.8642  -5.8388  -5.8340  -5.8277  -5.8195  -5.8146  -5.8129
    -5.7962  -5.7948  -5.7929  -5.7897  -5.7869  -5.7793  -5.7762  -5.7722
    -5.7700  -5.7597  -5.7519  -5.7274  -5.7208  -5.6832  -5.6716  -5.6587
    -5.6475  -5.6432  -5.6408  -5.6377  -5.6341  -5.6245  -5.6186  -5.6150
    -5.6116  -5.5918  -5.5904  -5.5841  -5.5809  -5.5733  -5.5677  -5.5648
    -5.5574  -5.5527  -5.5481  -5.5384  -5.5279  -5.5261  -5.5205  -5.5162
    -5.4992  -5.4794  -5.4739  -5.4686  -5.4643  -5.4570  -5.4413  -5.4358
    -5.4205  -5.4174  -5.4059  -5.4035  -5.3978  -5.3897  -5.3850  -5.3706
    -5.3608  -5.3565  -5.3541  -5.3526  -5.3479  -5.3415  -5.3378  -5.3322
    -5.3291  -5.3255  -5.3103  -5.3039  -5.2970  -5.2901  -5.2834  -5.2822
    -5.2585  -5.2385  -5.2213  -5.2160  -5.1450  -5.1414  -5.1384  -5.1135
    -5.1001  -5.0797  -5.0573  -5.0334  -5.0198  -4.9722  -4.9522  -4.9430
    -4.9330  -4.9240  -4.9174  -4.9105  -4.8910  -4.8553  -4.8513  -4.8407
    -4.8359  -4.8192  -4.7947  -4.7900  -4.7769  -4.7642  -4.6995  -4.6937
    -4.6722  -4.6572  -4.6548  -4.6325  -4.6229  -4.5934  -4.5772  -4.5687
    -4.5623  -4.5587  -4.5328  -4.5200  -4.5129  -4.5068  -4.3364  -4.2730
    -4.2136  -4.1520  -3.8414  -3.8063  -3.5912  -3.5507  -3.5161  -3.4649
    -3.4223  -3.1095  -2.9065  -2.8584  -2.7721  -2.7640  -2.7209  -2.6852
    -2.6829  -2.6190

          k = 0.2500-0.0884 0.0000 (128371 PWs)   bands (ev):

   -92.7041 -92.6457 -92.6377 -92.6136 -92.6107 -92.6075 -92.6040 -92.6007
   -92.5984 -92.5933 -92.5911 -92.5908 -92.5869 -92.5842 -92.5835 -92.5820
   -92.5811 -92.5784 -92.5759 -92.5756 -92.5745 -92.5740 -92.5673 -92.5659
   -92.5628 -92.5624 -92.5617 -92.5592 -92.5544 -92.5487 -92.5343 -92.5322
   -92.5256 -92.5229 -92.5144 -92.4797 -92.4742 -92.4676 -92.4645 -92.4602
   -92.4564 -92.4554 -92.4509 -92.4477 -92.4440 -92.4436 -92.4424 -92.4393
   -92.4382 -92.4375 -92.4347 -92.4331 -92.4303 -92.4296 -92.4277 -92.4268
   -92.4226 -92.4211 -92.4168 -92.4143 -92.4077 -92.4025 -92.3986 -92.3954
   -58.8816 -58.8284 -58.8133 -58.8089 -58.8046 -58.8018 -58.8006 -58.7981
   -58.7940 -58.7909 -58.7869 -58.7864 -58.7837 -58.7824 -58.7810 -58.7794
   -58.7762 -58.7730 -58.7720 -58.7713 -58.7668 -58.7653 -58.7639 -58.7613
   -58.7594 -58.7564 -58.7543 -58.7517 -58.7501 -58.7476 -58.7451 -58.7429
   -58.7417 -58.7359 -58.7313 -58.7253 -58.7191 -58.7167 -58.7142 -58.7097
   -58.7067 -58.7035 -58.7013 -58.6942 -58.6918 -58.6876 -58.6857 -58.6812
   -58.6793 -58.6688 -58.6669 -58.6592 -58.6573 -58.6498 -58.6479 -58.6431
   -58.6395 -58.6379 -58.6351 -58.6311 -58.6301 -58.6286 -58.6222 -58.6212
   -58.6181 -58.6163 -58.6142 -58.6128 -58.6113 -58.6090 -58.6087 -58.6079
   -58.6053 -58.6035 -58.5998 -58.5968 -58.5937 -58.5880 -58.5866 -58.5828
   -58.5818 -58.5785 -58.5775 -58.5717 -58.5693 -58.5641 -58.5629 -58.5621
   -58.5605 -58.5580 -58.5555 -58.5503 -58.5486 -58.5459 -58.5436 -58.5424
   -58.5406 -58.5370 -58.5357 -58.5345 -58.5323 -58.5282 -58.5271 -58.5250
   -58.5238 -58.5213 -58.5192 -58.5185 -58.5162 -58.5148 -58.5141 -58.5117
   -58.5100 -58.5081 -58.5062 -58.5038 -58.5004 -58.4990 -58.4970 -58.4939
   -58.4919 -58.4882 -58.4868 -58.4826 -58.4818 -58.4787 -58.4771 -58.4756
   -58.4742 -58.4721 -58.4690 -58.4655 -58.4648 -58.4637 -58.4600 -58.4577
   -58.4550 -58.4520 -58.4501 -58.4464 -58.4447 -58.4424 -58.4419 -58.4386
   -58.4377 -58.4358 -58.4344 -58.4305 -58.4287 -58.4276 -58.4249 -58.4233
   -58.4229 -58.4185 -58.4179 -58.4167 -58.4151 -58.4144 -58.4112 -58.4090
   -58.4070 -58.4050 -58.4029 -58.4009 -58.3995 -58.3938 -58.3915 -58.3865
   -58.3822 -58.3814 -58.3803 -58.3745 -58.3719 -58.3702 -58.3680 -58.3653
   -58.3614 -58.3593 -58.3549 -58.3534 -58.3513 -58.3500 -58.3474 -58.3452
   -58.3428 -58.3401 -58.3394 -58.3358 -58.3331 -58.3297 -58.2649 -58.2639
   -20.0302 -12.2791 -11.5204 -11.2243 -11.0417 -10.8615 -10.7545 -10.6637
   -10.4815 -10.3161 -10.1359 -10.0027  -9.8834  -9.7326  -9.6288  -9.5635
    -9.4174  -9.3605  -9.3128  -9.2175  -9.1463  -9.0969  -9.0553  -9.0037
    -8.9945  -8.9727  -8.9501  -8.9353  -8.8900  -8.8504  -8.7697  -8.7089
    -8.6782  -8.6559  -8.6312  -8.6252  -8.6122  -8.6080  -8.5865  -8.5792
    -8.5641  -8.5381  -8.5331  -8.5159  -8.5057  -8.4805  -8.4665  -8.4523
    -8.4308  -8.4249  -8.4104  -8.4016  -8.3935  -8.3566  -8.3395  -8.3331
    -8.3288  -8.3208  -8.2948  -8.2560  -8.2033  -8.1941  -8.1604  -8.1481
    -8.1060  -8.0898  -8.0491  -8.0283  -7.9976  -7.9630  -7.9315  -7.8848
    -7.8666  -7.8548  -7.8327  -7.8060  -7.7679  -7.7608  -7.7460  -7.7419
    -7.7321  -7.7217  -7.7170  -7.7047  -7.6987  -7.6923  -7.6816  -7.6680
    -7.6600  -7.6516  -7.6438  -7.6409  -7.6265  -7.6231  -7.6135  -7.6097
    -7.6026  -7.5961  -7.5940  -7.5846  -7.5815  -7.5590  -7.5535  -7.5262
    -7.5054  -7.5014  -7.4958  -7.4854  -7.4805  -7.4702  -7.4524  -7.4428
    -7.4303  -7.4186  -7.4134  -7.3625  -7.3347  -7.3203  -7.3118  -7.2994
    -7.2755  -7.2601  -7.2453  -7.2249  -7.2067  -7.1822  -7.1553  -7.1470
    -7.1411  -7.1256  -7.1174  -7.1108  -7.1077  -7.0916  -7.0856  -7.0802
    -7.0620  -7.0541  -7.0429  -7.0324  -7.0270  -7.0202  -7.0081  -6.9946
    -6.9794  -6.9629  -6.9317  -6.9164  -6.9060  -6.8764  -6.8702  -6.8668
    -6.8567  -6.8405  -6.8329  -6.8276  -6.8245  -6.8148  -6.8079  -6.7984
    -6.7887  -6.7841  -6.7707  -6.7629  -6.7425  -6.7369  -6.6994  -6.6828
    -6.6681  -6.6572  -6.6526  -6.6405  -6.6172  -6.6067  -6.5842  -6.5724
    -6.5624  -6.5538  -6.5417  -6.5101  -6.5013  -6.4843  -6.4510  -6.4438
    -6.4304  -6.3915  -6.3758  -6.3615  -6.3169  -6.2216  -6.2079  -6.1737
    -6.1627  -6.1513  -6.1284  -6.1057  -6.0926  -6.0859  -6.0681  -6.0458
    -6.0322  -6.0209  -6.0097  -6.0052  -5.9924  -5.9880  -5.9762  -5.9717
    -5.9594  -5.9402  -5.9364  -5.9229  -5.9076  -5.9017  -5.8925  -5.8673
    -5.8604  -5.8551  -5.8477  -5.8308  -5.8244  -5.8106  -5.8031  -5.8016
    -5.7969  -5.7889  -5.7742  -5.7511  -5.7444  -5.7382  -5.7327  -5.7160
    -5.7154  -5.7096  -5.7043  -5.6952  -5.6904  -5.6851  -5.6828  -5.6752
    -5.6712  -5.6620  -5.6516  -5.6491  -5.6379  -5.6295  -5.6241  -5.6171
    -5.6119  -5.6104  -5.5999  -5.5930  -5.5887  -5.5840  -5.5813  -5.5735
    -5.5674  -5.5621  -5.5548  -5.5498  -5.5377  -5.5313  -5.5298  -5.5247
    -5.5167  -5.5138  -5.5089  -5.5062  -5.5035  -5.4951  -5.4923  -5.4813
    -5.4763  -5.4727  -5.4627  -5.4518  -5.4407  -5.4371  -5.4209  -5.4180
    -5.4068  -5.3807  -5.3739  -5.3671  -5.3607  -5.3545  -5.3468  -5.3322
    -5.3282  -5.3184  -5.3107  -5.3047  -5.2971  -5.2935  -5.2771  -5.2622
    -5.2447  -5.2410  -5.2370  -5.2288  -5.2220  -5.2091  -5.2026  -5.2007
    -5.1884  -5.1813  -5.1608  -5.1464  -5.1285  -5.0937  -5.0815  -5.0535
    -5.0403  -5.0226  -4.9239  -4.8784  -4.8566  -4.8346  -4.8035  -4.7846
    -4.7731  -4.7495  -4.7253  -4.6992  -4.6852  -4.6544  -4.6430  -4.6344
    -4.6229  -4.6046  -4.5903  -4.5825  -4.5660  -4.5598  -4.5323  -4.5188
    -4.5009  -4.4532  -4.4305  -4.4081  -4.3769  -4.3232  -4.2301  -4.0341
    -3.9648  -3.8920  -3.8318  -3.7806  -3.6612  -3.5329  -3.4540  -3.3915
    -3.1970  -3.1643  -3.1354  -3.1082  -2.9968  -2.9042  -2.7857  -2.7028
    -2.6502  -2.5783

          k = 0.2500 0.1768 0.0000 (128340 PWs)   bands (ev):

   -92.7041 -92.6457 -92.6376 -92.6129 -92.6100 -92.6078 -92.6054 -92.5992
   -92.5974 -92.5974 -92.5916 -92.5913 -92.5858 -92.5856 -92.5828 -92.5813
   -92.5788 -92.5771 -92.5768 -92.5766 -92.5745 -92.5705 -92.5683 -92.5677
   -92.5652 -92.5622 -92.5621 -92.5564 -92.5540 -92.5498 -92.5343 -92.5323
   -92.5256 -92.5228 -92.5145 -92.4795 -92.4720 -92.4708 -92.4651 -92.4615
   -92.4553 -92.4534 -92.4494 -92.4478 -92.4443 -92.4437 -92.4434 -92.4394
   -92.4390 -92.4365 -92.4348 -92.4327 -92.4305 -92.4297 -92.4282 -92.4265
   -92.4232 -92.4226 -92.4147 -92.4139 -92.4076 -92.4025 -92.3987 -92.3957
   -58.8816 -58.8281 -58.8109 -58.8096 -58.8065 -58.8019 -58.7991 -58.7986
   -58.7930 -58.7891 -58.7866 -58.7860 -58.7842 -58.7828 -58.7807 -58.7794
   -58.7756 -58.7745 -58.7711 -58.7697 -58.7673 -58.7654 -58.7616 -58.7603
   -58.7599 -58.7557 -58.7552 -58.7540 -58.7497 -58.7460 -58.7434 -58.7404
   -58.7385 -58.7370 -58.7349 -58.7209 -58.7139 -58.7138 -58.7127 -58.7077
   -58.7062 -58.7029 -58.6900 -58.6881 -58.6878 -58.6863 -58.6854 -58.6843
   -58.6747 -58.6723 -58.6672 -58.6663 -58.6564 -58.6504 -58.6496 -58.6464
   -58.6451 -58.6424 -58.6373 -58.6349 -58.6316 -58.6311 -58.6292 -58.6282
   -58.6263 -58.6214 -58.6188 -58.6153 -58.6153 -58.6146 -58.6118 -58.6105
   -58.6074 -58.6047 -58.6030 -58.5984 -58.5981 -58.5901 -58.5900 -58.5846
   -58.5841 -58.5818 -58.5777 -58.5736 -58.5709 -58.5667 -58.5652 -58.5642
   -58.5615 -58.5595 -58.5568 -58.5548 -58.5502 -58.5493 -58.5447 -58.5415
   -58.5384 -58.5372 -58.5308 -58.5295 -58.5265 -58.5253 -58.5225 -58.5207
   -58.5196 -58.5195 -58.5184 -58.5165 -58.5153 -58.5149 -58.5130 -58.5108
   -58.5066 -58.5064 -58.5048 -58.5014 -58.5001 -58.4982 -58.4951 -58.4937
   -58.4923 -58.4848 -58.4844 -58.4819 -58.4809 -58.4808 -58.4789 -58.4746
   -58.4743 -58.4699 -58.4654 -58.4630 -58.4588 -58.4586 -58.4535 -58.4529
   -58.4495 -58.4473 -58.4444 -58.4427 -58.4421 -58.4415 -58.4413 -58.4393
   -58.4359 -58.4346 -58.4316 -58.4312 -58.4299 -58.4287 -58.4253 -58.4225
   -58.4220 -58.4173 -58.4168 -58.4162 -58.4142 -58.4130 -58.4123 -58.4111
   -58.4104 -58.4052 -58.4003 -58.3977 -58.3955 -58.3932 -58.3878 -58.3864
   -58.3854 -58.3792 -58.3777 -58.3753 -58.3735 -58.3714 -58.3681 -58.3666
   -58.3621 -58.3615 -58.3578 -58.3563 -58.3531 -58.3521 -58.3509 -58.3490
   -58.3447 -58.3443 -58.3419 -58.3414 -58.3354 -58.3321 -58.2654 -58.2644
   -20.0302 -12.2390 -11.3731 -11.2122 -11.1652 -10.9936 -10.8062 -10.7727
   -10.5391 -10.2200 -10.1008  -9.9364  -9.8550  -9.8142  -9.6639  -9.5072
    -9.3957  -9.3054  -9.2278  -9.1364  -9.0453  -9.0435  -9.0049  -9.0023
    -8.9653  -8.9322  -8.9186  -8.9173  -8.8819  -8.8151  -8.8122  -8.7313
    -8.7047  -8.6934  -8.6795  -8.6617  -8.6096  -8.6026  -8.5962  -8.5712
    -8.5636  -8.5521  -8.5358  -8.5309  -8.5262  -8.5259  -8.5160  -8.5140
    -8.4790  -8.4749  -8.4430  -8.4355  -8.4021  -8.4002  -8.3615  -8.3411
    -8.3376  -8.2760  -8.2649  -8.2058  -8.1812  -8.1721  -8.1514  -8.1214
    -8.1035  -8.0754  -8.0497  -8.0408  -8.0229  -7.9729  -7.9436  -7.9301
    -7.8879  -7.8451  -7.8207  -7.8015  -7.7846  -7.7746  -7.7724  -7.7532
    -7.7523  -7.7490  -7.7408  -7.7354  -7.7264  -7.7217  -7.7165  -7.7054
    -7.7028  -7.6920  -7.6703  -7.6571  -7.6194  -7.6079  -7.6052  -7.5984
    -7.5728  -7.5704  -7.5510  -7.5434  -7.5295  -7.5200  -7.5182  -7.5075
    -7.4911  -7.4863  -7.4637  -7.4589  -7.4402  -7.4211  -7.4037  -7.3913
    -7.3845  -7.3799  -7.3554  -7.3548  -7.3413  -7.3300  -7.3197  -7.3165
    -7.3074  -7.3048  -7.3032  -7.2930  -7.2599  -7.2419  -7.2233  -7.2113
    -7.1845  -7.1503  -7.1486  -7.1386  -7.1263  -7.1250  -7.1143  -7.0964
    -7.0800  -7.0532  -7.0295  -7.0217  -7.0155  -7.0135  -6.9984  -6.9946
    -6.9821  -6.9743  -6.9512  -6.9385  -6.9270  -6.9105  -6.8850  -6.8659
    -6.8546  -6.8454  -6.8421  -6.8378  -6.8097  -6.8067  -6.7999  -6.7919
    -6.7715  -6.7511  -6.7482  -6.7403  -6.7398  -6.7257  -6.7159  -6.7117
    -6.6957  -6.6912  -6.6846  -6.6754  -6.6688  -6.6594  -6.6589  -6.6198
    -6.6104  -6.6076  -6.5813  -6.5303  -6.4812  -6.4437  -6.4057  -6.3711
    -6.3437  -6.3272  -6.3125  -6.2572  -6.2499  -6.2110  -6.1969  -6.1932
    -6.1788  -6.1543  -6.1343  -6.1242  -6.1078  -6.0925  -6.0558  -6.0536
    -6.0399  -6.0325  -6.0172  -6.0139  -6.0081  -5.9951  -5.9833  -5.9651
    -5.9428  -5.9391  -5.9307  -5.9300  -5.9049  -5.8996  -5.8973  -5.8900
    -5.8795  -5.8681  -5.8557  -5.8507  -5.8171  -5.8106  -5.8020  -5.7920
    -5.7818  -5.7668  -5.7604  -5.7514  -5.7488  -5.7452  -5.7420  -5.7232
    -5.7118  -5.7020  -5.7012  -5.6975  -5.6867  -5.6726  -5.6717  -5.6647
    -5.6641  -5.6539  -5.6529  -5.6443  -5.6441  -5.6182  -5.6008  -5.5981
    -5.5929  -5.5806  -5.5802  -5.5749  -5.5721  -5.5529  -5.5519  -5.5440
    -5.5208  -5.5202  -5.5186  -5.5113  -5.5096  -5.4996  -5.4875  -5.4787
    -5.4777  -5.4758  -5.4694  -5.4574  -5.4569  -5.4537  -5.4410  -5.4343
    -5.4318  -5.4296  -5.4228  -5.4194  -5.4173  -5.4109  -5.4077  -5.3823
    -5.3796  -5.3723  -5.3716  -5.3638  -5.3610  -5.3486  -5.3433  -5.3372
    -5.3356  -5.3327  -5.3232  -5.3096  -5.3039  -5.2820  -5.2810  -5.2601
    -5.2455  -5.2428  -5.2272  -5.2053  -5.1958  -5.1893  -5.1818  -5.1606
    -5.1577  -5.1491  -5.1468  -5.1371  -5.0772  -5.0759  -5.0371  -5.0323
    -5.0280  -5.0273  -4.9183  -4.9006  -4.8304  -4.8173  -4.7764  -4.7499
    -4.7445  -4.6999  -4.6913  -4.6804  -4.6661  -4.6577  -4.6307  -4.6196
    -4.6023  -4.5996  -4.5909  -4.5818  -4.5757  -4.5335  -4.5229  -4.4830
    -4.4419  -4.4035  -4.3581  -4.3501  -4.3027  -4.2926  -4.1800  -4.1597
    -4.0633  -4.0073  -3.9449  -3.7557  -3.6526  -3.6067  -3.5686  -3.5451
    -3.4858  -3.4776  -3.4221  -3.4077  -3.3083  -3.1906  -3.0043  -2.9243
    -2.8223  -2.7430

          k = 0.2500-0.6187 0.0000 (128424 PWs)   bands (ev):

   -92.7041 -92.6457 -92.6376 -92.6123 -92.6085 -92.6081 -92.6059 -92.6027
   -92.5969 -92.5966 -92.5928 -92.5920 -92.5846 -92.5828 -92.5826 -92.5810
   -92.5803 -92.5785 -92.5763 -92.5753 -92.5741 -92.5720 -92.5709 -92.5657
   -92.5638 -92.5626 -92.5619 -92.5568 -92.5531 -92.5508 -92.5343 -92.5324
   -92.5256 -92.5228 -92.5145 -92.4781 -92.4754 -92.4683 -92.4665 -92.4613
   -92.4548 -92.4537 -92.4484 -92.4466 -92.4453 -92.4442 -92.4439 -92.4402
   -92.4396 -92.4366 -92.4338 -92.4322 -92.4302 -92.4291 -92.4278 -92.4266
   -92.4246 -92.4229 -92.4162 -92.4131 -92.4056 -92.4034 -92.3985 -92.3964
   -58.8814 -58.8234 -58.8157 -58.8133 -58.8036 -58.8014 -58.7982 -58.7970
   -58.7928 -58.7917 -58.7875 -58.7861 -58.7833 -58.7822 -58.7797 -58.7791
   -58.7746 -58.7725 -58.7700 -58.7689 -58.7675 -58.7646 -58.7627 -58.7601
   -58.7577 -58.7562 -58.7535 -58.7517 -58.7502 -58.7469 -58.7443 -58.7419
   -58.7395 -58.7376 -58.7296 -58.7170 -58.7084 -58.7065 -58.7037 -58.7018
   -58.7009 -58.6998 -58.6993 -58.6935 -58.6920 -58.6861 -58.6787 -58.6772
   -58.6740 -58.6709 -58.6683 -58.6629 -58.6607 -58.6584 -58.6579 -58.6536
   -58.6513 -58.6488 -58.6455 -58.6428 -58.6365 -58.6344 -58.6305 -58.6277
   -58.6260 -58.6197 -58.6183 -58.6180 -58.6158 -58.6132 -58.6124 -58.6105
   -58.6055 -58.6034 -58.6002 -58.5985 -58.5963 -58.5944 -58.5917 -58.5900
   -58.5882 -58.5865 -58.5831 -58.5814 -58.5778 -58.5757 -58.5733 -58.5700
   -58.5670 -58.5647 -58.5626 -58.5600 -58.5548 -58.5489 -58.5447 -58.5416
   -58.5372 -58.5317 -58.5290 -58.5275 -58.5264 -58.5246 -58.5233 -58.5205
   -58.5191 -58.5170 -58.5165 -58.5119 -58.5103 -58.5088 -58.5065 -58.5048
   -58.5031 -58.5009 -58.4996 -58.4978 -58.4944 -58.4936 -58.4906 -58.4896
   -58.4874 -58.4850 -58.4833 -58.4804 -58.4779 -58.4756 -58.4732 -58.4701
   -58.4689 -58.4679 -58.4659 -58.4633 -58.4622 -58.4598 -58.4569 -58.4528
   -58.4521 -58.4501 -58.4467 -58.4463 -58.4425 -58.4408 -58.4390 -58.4370
   -58.4348 -58.4311 -58.4297 -58.4288 -58.4274 -58.4260 -58.4247 -58.4225
   -58.4199 -58.4189 -58.4168 -58.4160 -58.4150 -58.4138 -58.4126 -58.4079
   -58.4047 -58.3977 -58.3972 -58.3941 -58.3930 -58.3911 -58.3880 -58.3844
   -58.3806 -58.3784 -58.3776 -58.3751 -58.3707 -58.3694 -58.3685 -58.3674
   -58.3651 -58.3640 -58.3612 -58.3603 -58.3591 -58.3585 -58.3570 -58.3536
   -58.3518 -58.3493 -58.3466 -58.3414 -58.3366 -58.3341 -58.2660 -58.2648
   -20.0302 -12.0053 -11.7176 -11.4410 -11.1164 -10.9224 -10.8569 -10.5650
   -10.4548 -10.2643 -10.1816  -9.9654  -9.9083  -9.4726  -9.3946  -9.3431
    -9.3038  -9.2784  -9.2325  -9.2010  -9.1490  -9.0770  -9.0201  -9.0096
    -8.9873  -8.9756  -8.9402  -8.8968  -8.8714  -8.8469  -8.8393  -8.8348
    -8.8135  -8.7860  -8.7653  -8.7312  -8.7194  -8.6938  -8.6772  -8.6669
    -8.6429  -8.6394  -8.5966  -8.5850  -8.5605  -8.5410  -8.4817  -8.4702
    -8.4506  -8.4274  -8.3901  -8.3636  -8.3501  -8.3217  -8.2911  -8.2777
    -8.2429  -8.2340  -8.2235  -8.2076  -8.1980  -8.1870  -8.1536  -8.1453
    -8.1125  -8.1076  -8.0704  -8.0517  -8.0432  -8.0149  -7.9859  -7.9691
    -7.9477  -7.9094  -7.8922  -7.8610  -7.8297  -7.7865  -7.7709  -7.7616
    -7.7564  -7.7444  -7.7352  -7.7304  -7.7236  -7.6923  -7.6765  -7.6536
    -7.6397  -7.6308  -7.6119  -7.5963  -7.5844  -7.5667  -7.5589  -7.5541
    -7.5475  -7.5401  -7.5291  -7.5195  -7.5148  -7.5060  -7.4999  -7.4717
    -7.4658  -7.4566  -7.4505  -7.4352  -7.4246  -7.4157  -7.4079  -7.3964
    -7.3922  -7.3798  -7.3646  -7.3560  -7.3481  -7.3187  -7.3118  -7.3023
    -7.2932  -7.2844  -7.2785  -7.2714  -7.2672  -7.2535  -7.2443  -7.2308
    -7.2222  -7.2172  -7.2095  -7.1950  -7.1872  -7.1696  -7.1575  -7.1416
    -7.1286  -7.1185  -7.0918  -7.0516  -7.0197  -7.0000  -6.9858  -6.9812
    -6.9597  -6.9558  -6.9528  -6.9493  -6.9287  -6.9211  -6.9108  -6.9047
    -6.8974  -6.8915  -6.8816  -6.8718  -6.8653  -6.8563  -6.8411  -6.8309
    -6.8222  -6.8151  -6.7979  -6.7500  -6.7315  -6.7229  -6.7050  -6.6697
    -6.6673  -6.6402  -6.6254  -6.5923  -6.5822  -6.5617  -6.5452  -6.5090
    -6.4975  -6.4675  -6.4354  -6.4001  -6.3871  -6.3681  -6.3578  -6.3381
    -6.3060  -6.2917  -6.2855  -6.2559  -6.2412  -6.2236  -6.2156  -6.1904
    -6.1826  -6.1777  -6.1660  -6.1560  -6.1389  -6.1290  -6.1032  -6.0831
    -6.0691  -6.0570  -6.0452  -6.0400  -6.0154  -5.9992  -5.9877  -5.9708
    -5.9587  -5.9483  -5.9413  -5.9294  -5.9224  -5.9132  -5.9009  -5.8862
    -5.8802  -5.8700  -5.8673  -5.8368  -5.8305  -5.8151  -5.8093  -5.8065
    -5.8000  -5.7872  -5.7788  -5.7746  -5.7703  -5.7663  -5.7584  -5.7556
    -5.7522  -5.7350  -5.7271  -5.7240  -5.7028  -5.6920  -5.6800  -5.6630
    -5.6602  -5.6422  -5.6402  -5.6274  -5.6227  -5.6144  -5.6068  -5.6027
    -5.5965  -5.5862  -5.5798  -5.5712  -5.5692  -5.5524  -5.5506  -5.5368
    -5.5315  -5.5169  -5.5119  -5.5078  -5.4914  -5.4852  -5.4788  -5.4751
    -5.4675  -5.4612  -5.4581  -5.4531  -5.4487  -5.4454  -5.4391  -5.4182
    -5.4115  -5.4059  -5.4041  -5.3961  -5.3941  -5.3854  -5.3811  -5.3755
    -5.3713  -5.3676  -5.3562  -5.3539  -5.3484  -5.3333  -5.3170  -5.3127
    -5.3003  -5.2927  -5.2781  -5.2695  -5.2558  -5.2501  -5.2466  -5.2308
    -5.1905  -5.1751  -5.1648  -5.1537  -5.1351  -5.1267  -5.1208  -5.0810
    -5.0512  -5.0407  -5.0206  -5.0147  -4.9704  -4.9612  -4.9548  -4.9421
    -4.9356  -4.9267  -4.8896  -4.8831  -4.8663  -4.8503  -4.8384  -4.8188
    -4.7947  -4.7811  -4.7604  -4.7438  -4.7258  -4.7114  -4.7022  -4.6823
    -4.6627  -4.6546  -4.6369  -4.6311  -4.6204  -4.6106  -4.5858  -4.5654
    -4.5522  -4.5389  -4.5189  -4.5023  -4.4263  -4.4084  -4.3912  -4.2866
    -4.1810  -4.1387  -3.9681  -3.9104  -3.8236  -3.8001  -3.7056  -3.6684
    -3.5149  -3.4147  -3.2998  -3.2410  -3.0912  -3.0634  -2.9268  -2.8506
    -2.7902  -2.6197

          k = 0.2500-0.3536 0.0000 (128397 PWs)   bands (ev):

   -92.7041 -92.6457 -92.6376 -92.6132 -92.6094 -92.6079 -92.6047 -92.6019
   -92.5978 -92.5969 -92.5912 -92.5885 -92.5865 -92.5840 -92.5831 -92.5808
   -92.5792 -92.5790 -92.5784 -92.5750 -92.5748 -92.5740 -92.5689 -92.5640
   -92.5627 -92.5624 -92.5617 -92.5588 -92.5547 -92.5492 -92.5343 -92.5323
   -92.5256 -92.5228 -92.5145 -92.4783 -92.4761 -92.4671 -92.4648 -92.4608
   -92.4562 -92.4542 -92.4509 -92.4473 -92.4443 -92.4435 -92.4430 -92.4399
   -92.4397 -92.4364 -92.4337 -92.4332 -92.4302 -92.4295 -92.4277 -92.4253
   -92.4229 -92.4225 -92.4186 -92.4130 -92.4062 -92.4031 -92.3984 -92.3960
   -58.8815 -58.8237 -58.8170 -58.8126 -58.8034 -58.8010 -58.7992 -58.7968
   -58.7931 -58.7923 -58.7879 -58.7860 -58.7847 -58.7830 -58.7804 -58.7767
   -58.7746 -58.7731 -58.7708 -58.7684 -58.7681 -58.7667 -58.7631 -58.7608
   -58.7568 -58.7548 -58.7545 -58.7521 -58.7513 -58.7470 -58.7456 -58.7429
   -58.7416 -58.7363 -58.7278 -58.7208 -58.7156 -58.7131 -58.7076 -58.7040
   -58.7030 -58.7012 -58.6981 -58.6962 -58.6938 -58.6913 -58.6857 -58.6828
   -58.6807 -58.6706 -58.6639 -58.6622 -58.6570 -58.6520 -58.6510 -58.6458
   -58.6422 -58.6404 -58.6327 -58.6317 -58.6294 -58.6278 -58.6250 -58.6246
   -58.6242 -58.6220 -58.6195 -58.6175 -58.6135 -58.6127 -58.6116 -58.6108
   -58.6083 -58.6039 -58.6013 -58.6001 -58.5980 -58.5964 -58.5911 -58.5898
   -58.5883 -58.5801 -58.5779 -58.5752 -58.5723 -58.5701 -58.5684 -58.5681
   -58.5625 -58.5617 -58.5597 -58.5512 -58.5479 -58.5469 -58.5441 -58.5380
   -58.5355 -58.5352 -58.5338 -58.5312 -58.5293 -58.5267 -58.5255 -58.5237
   -58.5227 -58.5207 -58.5200 -58.5153 -58.5126 -58.5107 -58.5098 -58.5066
   -58.5036 -58.5018 -58.5011 -58.4993 -58.4971 -58.4963 -58.4951 -58.4932
   -58.4922 -58.4874 -58.4872 -58.4823 -58.4816 -58.4809 -58.4785 -58.4756
   -58.4734 -58.4700 -58.4677 -58.4646 -58.4606 -58.4593 -58.4558 -58.4526
   -58.4520 -58.4476 -58.4463 -58.4451 -58.4439 -58.4408 -58.4392 -58.4377
   -58.4362 -58.4321 -58.4311 -58.4294 -58.4279 -58.4268 -58.4233 -58.4211
   -58.4196 -58.4190 -58.4179 -58.4172 -58.4158 -58.4150 -58.4144 -58.4112
   -58.4082 -58.4056 -58.4027 -58.3994 -58.3961 -58.3937 -58.3891 -58.3858
   -58.3827 -58.3820 -58.3779 -58.3745 -58.3707 -58.3688 -58.3680 -58.3659
   -58.3629 -58.3607 -58.3570 -58.3561 -58.3551 -58.3542 -58.3493 -58.3489
   -58.3458 -58.3443 -58.3438 -58.3382 -58.3355 -58.3332 -58.2655 -58.2643
   -20.0302 -12.1116 -11.6014 -11.5183 -11.1349 -10.8765 -10.7714 -10.5770
   -10.2659 -10.2315 -10.0040  -9.9531  -9.9263  -9.8159  -9.6705  -9.5471
    -9.3533  -9.1535  -9.1354  -9.1188  -9.0967  -9.0959  -9.0547  -9.0499
    -9.0142  -8.9891  -8.9472  -8.9345  -8.9099  -8.9045  -8.8747  -8.8687
    -8.8195  -8.7644  -8.7105  -8.7065  -8.6698  -8.6547  -8.6429  -8.6252
    -8.6126  -8.6036  -8.5900  -8.5632  -8.5498  -8.5230  -8.4967  -8.4617
    -8.4446  -8.4171  -8.4078  -8.3675  -8.3460  -8.3406  -8.2954  -8.2719
    -8.2424  -8.2305  -8.2124  -8.1967  -8.1879  -8.1796  -8.1583  -8.1354
    -8.1179  -8.1099  -8.0640  -8.0628  -8.0326  -7.9708  -7.9637  -7.9564
    -7.8858  -7.8799  -7.8548  -7.8454  -7.7738  -7.7692  -7.7580  -7.7533
    -7.7329  -7.7202  -7.7120  -7.7020  -7.6966  -7.6939  -7.6853  -7.6643
    -7.6623  -7.6528  -7.6395  -7.6372  -7.6344  -7.6227  -7.6043  -7.5763
    -7.5674  -7.5532  -7.5466  -7.5399  -7.5269  -7.5248  -7.5237  -7.5068
    -7.4959  -7.4861  -7.4681  -7.4497  -7.4303  -7.4175  -7.4009  -7.3817
    -7.3714  -7.3668  -7.3625  -7.3540  -7.3504  -7.3385  -7.3330  -7.3250
    -7.3105  -7.3074  -7.2979  -7.2692  -7.2526  -7.2337  -7.2105  -7.1853
    -7.1705  -7.1669  -7.1557  -7.1120  -7.0992  -7.0872  -7.0658  -7.0535
    -7.0395  -7.0248  -7.0227  -7.0159  -7.0138  -7.0022  -6.9970  -6.9942
    -6.9918  -6.9885  -6.9833  -6.9824  -6.9763  -6.9689  -6.9512  -6.9434
    -6.9325  -6.9258  -6.9129  -6.8912  -6.8720  -6.8554  -6.8327  -6.8026
    -6.7978  -6.7694  -6.7370  -6.7337  -6.7257  -6.6914  -6.6818  -6.6625
    -6.6444  -6.6372  -6.6229  -6.6168  -6.5615  -6.5441  -6.5211  -6.5113
    -6.4734  -6.4316  -6.4088  -6.3855  -6.3832  -6.3719  -6.3540  -6.3516
    -6.3380  -6.3082  -6.2934  -6.2646  -6.2474  -6.2417  -6.2275  -6.2265
    -6.2239  -6.2184  -6.1961  -6.1642  -6.1596  -6.1198  -6.1097  -6.1048
    -6.0824  -6.0715  -6.0712  -6.0500  -6.0274  -5.9929  -5.9798  -5.9724
    -5.9709  -5.9654  -5.9565  -5.9551  -5.9210  -5.8988  -5.8873  -5.8835
    -5.8692  -5.8621  -5.8450  -5.8429  -5.8297  -5.8145  -5.7942  -5.7796
    -5.7759  -5.7633  -5.7620  -5.7597  -5.7461  -5.7415  -5.7383  -5.7143
    -5.7116  -5.7100  -5.6982  -5.6932  -5.6782  -5.6721  -5.6675  -5.6592
    -5.6433  -5.6391  -5.6339  -5.6327  -5.6259  -5.6201  -5.6050  -5.5991
    -5.5981  -5.5959  -5.5786  -5.5761  -5.5737  -5.5676  -5.5667  -5.5585
    -5.5510  -5.5478  -5.5452  -5.5369  -5.5318  -5.5300  -5.5263  -5.5097
    -5.5080  -5.5046  -5.5026  -5.4958  -5.4877  -5.4821  -5.4770  -5.4752
    -5.4631  -5.4434  -5.4392  -5.4377  -5.4224  -5.4159  -5.4124  -5.4090
    -5.4087  -5.3960  -5.3949  -5.3863  -5.3767  -5.3730  -5.3515  -5.3483
    -5.3237  -5.3150  -5.3043  -5.2951  -5.2853  -5.2812  -5.2663  -5.2419
    -5.2235  -5.2058  -5.1983  -5.1753  -5.1716  -5.1559  -5.1524  -5.1408
    -5.1317  -5.1192  -5.1143  -5.0911  -5.0873  -5.0583  -5.0204  -5.0088
    -5.0014  -4.9749  -4.9637  -4.9540  -4.9011  -4.8865  -4.8611  -4.8169
    -4.7921  -4.7897  -4.7523  -4.7516  -4.7482  -4.7108  -4.7004  -4.6876
    -4.6747  -4.6627  -4.6466  -4.6425  -4.6346  -4.6252  -4.6063  -4.6041
    -4.5951  -4.5907  -4.5767  -4.4035  -4.1939  -4.1440  -4.1275  -4.0154
    -3.9817  -3.8722  -3.8225  -3.7822  -3.7566  -3.6809  -3.6031  -3.5779
    -3.5421  -3.4639  -3.3835  -3.3021  -3.1090  -3.0446  -2.9952  -2.7346
    -2.5945  -2.2263

          k =-0.5000 0.1768 0.0000 (128388 PWs)   bands (ev):

   -92.7041 -92.6457 -92.6376 -92.6131 -92.6089 -92.6084 -92.6041 -92.6040
   -92.5979 -92.5924 -92.5915 -92.5891 -92.5883 -92.5853 -92.5835 -92.5821
   -92.5808 -92.5775 -92.5766 -92.5762 -92.5721 -92.5718 -92.5690 -92.5675
   -92.5624 -92.5619 -92.5618 -92.5600 -92.5526 -92.5501 -92.5343 -92.5323
   -92.5256 -92.5228 -92.5145 -92.4776 -92.4772 -92.4659 -92.4651 -92.4605
   -92.4584 -92.4542 -92.4493 -92.4463 -92.4446 -92.4440 -92.4436 -92.4396
   -92.4388 -92.4374 -92.4343 -92.4328 -92.4304 -92.4291 -92.4278 -92.4252
[...]
    -2.1192  -2.0867  -2.0764  -2.0726  -2.0525  -2.0359  -2.0318  -2.0034
    -1.9798  -1.9546  -1.8988  -1.8796  -1.8367  -1.7799  -1.6939  -1.6770
    -1.5678  -1.5334  -1.4998  -1.4656  -1.3423  -1.2959  -1.2430  -1.2062
    -1.1603  -1.0262

          k =-0.5000-0.3536 0.0000 (128560 PWs)   bands (ev):

   -90.2580 -90.2577 -89.8355 -89.8337 -89.7254 -89.7245 -89.6996 -89.6766
   -89.6686 -89.6053 -89.5993 -89.5893 -89.5860 -89.5792 -89.5749 -89.5742
   -89.5639 -89.5631 -89.5601 -89.5539 -89.5530 -89.5503 -89.5479 -89.5468
   -89.5444 -89.5420 -89.5409 -89.5364 -89.5363 -89.5320 -89.5310 -89.5308
   -89.5295 -89.5293 -89.5265 -89.5192 -89.5150 -89.5140 -89.5097 -89.5097
   -89.5085 -89.5045 -89.5044 -89.5022 -89.5021 -89.4994 -89.4981 -89.4960
   -89.4901 -89.4844 -89.4826 -89.4807 -89.4801 -89.4785 -89.4785 -89.4781
   -89.4755 -89.4745 -89.4742 -89.4724 -89.4589 -89.4565 -89.4549 -89.4524
   -56.7991 -56.7910 -56.2618 -56.2502 -56.1863 -56.1766 -56.1444 -56.1395
   -55.9709 -55.9499 -55.9258 -55.9184 -55.9182 -55.9132 -55.9097 -55.9061
   -55.8842 -55.8838 -55.8715 -55.8698 -55.8677 -55.8610 -55.8501 -55.8499
   -55.8429 -55.8424 -55.8386 -55.8361 -55.8359 -55.8273 -55.8272 -55.8262
   -55.8237 -55.8231 -55.8171 -55.8120 -55.8111 -55.8048 -55.8015 -55.8010
   -55.7978 -55.7972 -55.7907 -55.7887 -55.7875 -55.7841 -55.7831 -55.7814
   -55.7810 -55.7764 -55.7718 -55.7680 -55.7637 -55.7586 -55.7577 -55.7576
   -55.7559 -55.7522 -55.7507 -55.7507 -55.7491 -55.7483 -55.7477 -55.7474
   -55.7445 -55.7426 -55.7415 -55.7405 -55.7389 -55.7341 -55.7312 -55.7284
   -55.7268 -55.7242 -55.7192 -55.7108 -55.7030 -55.7016 -55.6981 -55.6956
   -55.6899 -55.6889 -55.6825 -55.6817 -55.6786 -55.6778 -55.6627 -55.6611
   -55.6597 -55.6574 -55.6563 -55.6520 -55.6510 -55.6457 -55.6441 -55.6437
   -55.6414 -55.6369 -55.6338 -55.6329 -55.6306 -55.6283 -55.6259 -55.6237
   -55.6230 -55.6197 -55.6168 -55.6103 -55.6076 -55.6074 -55.6065 -55.6056
   -55.6028 -55.6018 -55.6004 -55.5983 -55.5979 -55.5973 -55.5952 -55.5928
   -55.5893 -55.5863 -55.5851 -55.5835 -55.5786 -55.5753 -55.5731 -55.5717
   -55.5707 -55.5698 -55.5662 -55.5648 -55.5643 -55.5629 -55.5585 -55.5560
   -55.5523 -55.5504 -55.5501 -55.5456 -55.5450 -55.5438 -55.5427 -55.5425
   -55.5412 -55.5406 -55.5391 -55.5378 -55.5355 -55.5344 -55.5343 -55.5338
   -55.5326 -55.5300 -55.5275 -55.5265 -55.5253 -55.5245 -55.5224 -55.5220
   -55.5167 -55.5165 -55.5155 -55.5127 -55.5103 -55.5095 -55.5092 -55.5082
   -55.5076 -55.5069 -55.5068 -55.5065 -55.5038 -55.5034 -55.5033 -55.5026
   -55.4997 -55.4994 -55.4960 -55.4944 -55.4932 -55.4913 -55.4901 -55.4878
   -55.4867 -55.4855 -55.4840 -55.4819 -55.4787 -55.4782 -55.4749 -55.4725
   -20.1624 -11.6286 -11.5813 -11.0811 -11.0696 -10.6448 -10.6033 -10.4619
   -10.0794  -9.9434  -9.5879  -9.4763  -9.3801  -8.9798  -8.9259  -8.9101
    -8.7661  -8.5330  -8.2980  -8.1414  -8.1267  -8.1095  -8.0970  -8.0888
    -8.0242  -8.0218  -7.9926  -7.9441  -7.9266  -7.8525  -7.6861  -7.5710
    -7.5661  -7.5579  -7.5415  -7.4901  -7.4481  -7.3679  -7.1937  -7.1092
    -7.1053  -7.0941  -7.0631  -7.0515  -7.0387  -6.9984  -6.9667  -6.9374
    -6.9246  -6.8713  -6.8099  -6.8050  -6.7803  -6.7670  -6.7584  -6.7515
    -6.5749  -6.5562  -6.5364  -6.5339  -6.5076  -6.4759  -6.4375  -6.3061
    -6.2626  -6.2472  -6.2410  -6.1979  -6.1940  -6.1881  -6.1185  -6.0793
    -6.0611  -6.0432  -6.0127  -6.0077  -5.9959  -5.9778  -5.9721  -5.9616
    -5.9487  -5.9378  -5.8933  -5.8709  -5.8704  -5.8640  -5.8626  -5.8566
    -5.8311  -5.8249  -5.8228  -5.7898  -5.7806  -5.6895  -5.6563  -5.6539
    -5.6472  -5.6451  -5.5757  -5.5522  -5.5273  -5.5162  -5.5124  -5.5065
    -5.4933  -5.4888  -5.4874  -5.4802  -5.4413  -5.4286  -5.4279  -5.4212
    -5.4193  -5.4118  -5.4107  -5.3960  -5.3938  -5.3886  -5.3800  -5.3769
    -5.3619  -5.3534  -5.3417  -5.3410  -5.3350  -5.3344  -5.3253  -5.3117
    -5.3039  -5.2913  -5.2741  -5.2700  -5.2673  -5.2664  -5.2617  -5.2554
    -5.2431  -5.2361  -5.2164  -5.2143  -5.1758  -5.0907  -5.0572  -5.0430
    -5.0241  -5.0181  -5.0157  -5.0018  -4.9997  -4.9868  -4.9805  -4.9644
    -4.9629  -4.8921  -4.8591  -4.8529  -4.8348  -4.8289  -4.8252  -4.8132
    -4.8020  -4.7954  -4.7708  -4.7558  -4.7539  -4.7284  -4.6836  -4.6599
    -4.6343  -4.6189  -4.6047  -4.5425  -4.5315  -4.5108  -4.4906  -4.4770
    -4.4512  -4.4412  -4.4406  -4.4328  -4.4157  -4.3949  -4.3828  -4.3692
    -4.3646  -4.3541  -4.3194  -4.3148  -4.2647  -4.1370  -4.1128  -4.1053
    -4.0015  -3.9708  -3.9675  -3.8552  -3.8305  -3.8027  -3.7849  -3.7306
    -3.7014  -3.6988  -3.6942  -3.6474  -3.6245  -3.5970  -3.5924  -3.5666
    -3.5543  -3.5334  -3.4897  -3.4629  -3.4496  -3.4487  -3.4476  -3.4172
    -3.3545  -3.3401  -3.3368  -3.3331  -3.3252  -3.3065  -3.2658  -3.2511
    -3.2486  -3.2174  -3.2077  -3.2056  -3.2003  -3.1962  -3.1789  -3.1690
    -3.1564  -3.1564  -3.1092  -3.1012  -3.0966  -3.0937  -3.0636  -3.0615
    -3.0450  -3.0401  -3.0247  -3.0093  -2.9628  -2.9565  -2.9100  -2.9081
    -2.8948  -2.8578  -2.8563  -2.8486  -2.8433  -2.8319  -2.7992  -2.7949
    -2.7922  -2.7765  -2.7752  -2.7680  -2.7411  -2.7387  -2.7345  -2.7200
    -2.7187  -2.7037  -2.7011  -2.6923  -2.6869  -2.6860  -2.6697  -2.6632
    -2.6623  -2.6354  -2.6317  -2.6283  -2.6215  -2.6115  -2.6044  -2.6001
    -2.5987  -2.5954  -2.5923  -2.5844  -2.5695  -2.5653  -2.5576  -2.5519
    -2.5460  -2.5262  -2.5232  -2.5217  -2.5134  -2.5111  -2.5025  -2.5001
    -2.4956  -2.4745  -2.4632  -2.4605  -2.4525  -2.4287  -2.4188  -2.4174
    -2.3978  -2.3975  -2.3932  -2.3812  -2.3809  -2.3699  -2.3656  -2.3347
    -2.3328  -2.3258  -2.3244  -2.3140  -2.3088  -2.3027  -2.2955  -2.2873
    -2.2845  -2.2843  -2.2792  -2.2750  -2.2703  -2.2643  -2.2485  -2.2384
    -2.2367  -2.2286  -2.2255  -2.2112  -2.2031  -2.1980  -2.1727  -2.1715
    -2.1525  -2.1475  -2.1464  -2.1221  -2.1183  -2.1079  -1.9765  -1.9530
    -1.9203  -1.9024  -1.8691  -1.8536  -1.7261  -1.7010  -1.6877  -1.6822
    -1.6756  -1.6497  -1.6405  -1.6241  -1.6094  -1.5879  -1.5813  -1.3779
    -1.3650  -1.3304

     the Fermi energy is    -4.4421 ev

!    total energy              =  -21093.76789009 Ry
     estimated scf accuracy    <          7.5E-11 Ry
     smearing contrib. (-TS)   =       0.00324956 Ry
     internal energy E=F+TS    =  -21093.77113965 Ry

     The total energy is F=E-TS. E is the sum of the following terms:
     one-electron contribution = -743987.30066855 Ry
     hartree contribution      =  371820.18372690 Ry
     xc contribution           =   -2234.32942769 Ry
     ewald contribution        =  358182.52320792 Ry
     Dispersion Correction     =      -1.39586626 Ry
     one-center paw contrib.   =   -4873.45211196 Ry

     total magnetization       =   160.43 Bohr mag/cell
     absolute magnetization    =   167.37 Bohr mag/cell

     convergence has been achieved in  16 iterations

     negative rho (up, down):  1.202E-02 1.592E-02

     Forces acting on atoms (cartesian axes, Ry/au):

     atom    1 type  1   force =     0.00009757    0.00066192    0.00890274
     atom    2 type  1   force =     0.00259580   -0.00389784   -0.01552449
     atom    3 type  1   force =    -0.00085045   -0.00069776    0.00861800
     atom    4 type  1   force =     0.00078140    0.00123822   -0.00828521
     atom    5 type  1   force =    -0.00000987   -0.00001212    0.00002452
     atom    6 type  1   force =    -0.00000894   -0.00002995   -0.00018433
     atom    7 type  1   force =     0.00000053    0.00006867    0.00000715
     atom    8 type  1   force =    -0.00001879    0.00003749   -0.00009896
     atom    9 type  1   force =     0.00005623    0.00008785    0.00833973
     atom   10 type  1   force =    -0.00064913   -0.00046794    0.00892096
     atom   11 type  1   force =     0.00102790   -0.00024797   -0.00875906
     atom   12 type  1   force =     0.00036833    0.00031322   -0.01290774
     atom   13 type  1   force =     0.00000553    0.00001693    0.00001270
     atom   14 type  1   force =    -0.00001436   -0.00000541   -0.00000694
     atom   15 type  1   force =     0.00018567    0.00012333   -0.00014319
     atom   16 type  1   force =     0.00010075    0.00007516   -0.00008139
     atom   17 type  1   force =    -0.00094408   -0.00051671    0.00860007
     atom   18 type  1   force =     0.00143643    0.00033677   -0.00825877
     atom   19 type  1   force =     0.00073546    0.00064953    0.00867299
     atom   20 type  1   force =    -0.00118708    0.00144882   -0.00294165
     atom   21 type  1   force =     0.00005968   -0.00002572   -0.00000001
     atom   22 type  1   force =     0.00003317   -0.00002077   -0.00010996
     atom   23 type  1   force =    -0.00001676   -0.00004513    0.00003525
     atom   24 type  1   force =    -0.00006757    0.00004795   -0.00015600
     atom   25 type  1   force =     0.00005266   -0.00000800    0.00750133
     atom   26 type  1   force =    -0.00103239    0.00133419    0.00835393
     atom   27 type  1   force =     0.00133861    0.00087537   -0.00363448
     atom   28 type  1   force =     0.00012341   -0.00100010   -0.00811637
     atom   29 type  1   force =     0.00000466    0.00000176    0.00014003
     atom   30 type  1   force =     0.00001894    0.00000792    0.00004556
     atom   31 type  1   force =    -0.00004372   -0.00002860   -0.00014259
     atom   32 type  1   force =    -0.00016563   -0.00010217   -0.00012075
     atom   33 type  1   force =     0.00008224   -0.00078693    0.00871361
     atom   34 type  1   force =    -0.00064208   -0.00117984   -0.00839350
     atom   35 type  1   force =     0.00066891   -0.00013677    0.00891362
     atom   36 type  1   force =    -0.00286478    0.00380807   -0.01551600
     atom   37 type  1   force =     0.00002293    0.00003242    0.00002138
     atom   38 type  1   force =     0.00006831    0.00004758   -0.00008346
     atom   39 type  1   force =    -0.00001788   -0.00000256    0.00002620
     atom   40 type  1   force =    -0.00003077   -0.00000002   -0.00018320
     atom   41 type  1   force =     0.00016747    0.00006502    0.00931915
     atom   42 type  1   force =     0.00091799   -0.00142177    0.00836965
     atom   43 type  1   force =    -0.00086566   -0.00054196   -0.01244902
     atom   44 type  1   force =    -0.00093162    0.00045350   -0.00803314
     atom   45 type  1   force =     0.00003232    0.00002435    0.00005429
     atom   46 type  1   force =     0.00001518    0.00001084    0.00003462
     atom   47 type  1   force =    -0.00011210   -0.00008301   -0.00012241
     atom   48 type  1   force =    -0.00014506   -0.00012297   -0.00012795
     atom   49 type  1   force =     0.00083638    0.00051608    0.00869666
     atom   50 type  1   force =     0.00101562   -0.00169195   -0.00291277
     atom   51 type  1   force =    -0.00070759    0.00035135    0.00874299
     atom   52 type  1   force =    -0.00133379   -0.00019300   -0.00841947
     atom   53 type  1   force =    -0.00004790   -0.00000189    0.00003550
     atom   54 type  1   force =     0.00002053   -0.00008120   -0.00016043
     atom   55 type  1   force =     0.00003548    0.00001041    0.00003299
     atom   56 type  1   force =     0.00006703    0.00005112   -0.00007648
     atom   57 type  1   force =     0.00006982   -0.00004085    0.00834319
     atom   58 type  1   force =     0.00049499    0.00034478    0.00889108
     atom   59 type  1   force =     0.00010988    0.00106520   -0.00868384
     atom   60 type  1   force =    -0.00120164   -0.00089399   -0.00360685
     atom   61 type  1   force =     0.00000838   -0.00000835    0.00001717
     atom   62 type  1   force =     0.00000964    0.00000835   -0.00000982
     atom   63 type  1   force =     0.00017623    0.00012639   -0.00014161
     atom   64 type  1   force =     0.00007058    0.00005204   -0.00010921
     atom   65 type  2   force =     0.00000118   -0.00000412   -0.00006599
     atom   66 type  3   force =    -0.00000419    0.00000480   -0.00005765

     Total force =     0.000766     Total SCF correction =     0.000043
     Energy error            =      6.0E-07
     Gradient error          =      1.9E-04

     bfgs converged in   8 scf cycles and   7 bfgs steps
     (criteria: energy <  7.3E-07 Ry, force <  3.9E-04 Ry/Bohr)

     End of BFGS Geometry Optimization

     Final energy   =  -21093.7678900938 Ry

     File ./Fe_N_H_paper_480c_ESM_std.bfgs deleted, as requested
Begin final coordinates

ATOMIC_POSITIONS (angstrom)
Fe            1.6549129530        1.1702001330        0.0000000000    0   0   0
Fe            0.0000000000        0.0000000000        2.0269842320    0   0   0
Fe            4.9647388580        3.5106003990        0.0000000000    0   0   0
Fe            3.3098259060        2.3404002660        2.0269842320    0   0   0
Fe            1.6800120489        1.1668405400        4.0262679363
Fe            3.3356907645        9.3267519960        6.0217426145
Fe            4.9598984672        3.5350908164        4.0435617450
Fe            3.3943827602        2.3353961800        6.0244388592
Fe            2.4823638580        3.5106003990        0.0000000000    0   0   0
Fe            4.1372879530        1.1702001330        0.0000000000    0   0   0
Fe            0.8274509060        2.3404002660        2.0269842320    0   0   0
Fe            2.4823750000        0.0000000000        2.0269842320    0   0   0
Fe            2.4828682566        3.5096301058        4.0485509026
Fe            4.1610020454        1.1871425371        4.0322501682
Fe            0.9140885134        2.3031277321        6.0259142643
Fe            2.5104645597        0.0198874811        6.0199319264
Fe            6.6196629530        1.1702001330        0.0000000000    0   0   0
Fe            4.9647500000        0.0000000000        2.0269842320    0   0   0
Fe            9.9294888580        3.5106003990        0.0000000000    0   0   0
Fe            8.2745759060        2.3404002660        2.0269842320    0   0   0
Fe            6.6409209683        1.1572819395        4.0432870989
Fe            4.9880820866        0.0813228911        6.0247422624
Fe            9.9328860686        3.4849121785        4.0402690332
Fe            8.4573806072        2.0823250267        5.9842023879
Fe            7.4471138580        3.5106003990        0.0000000000    0   0   0
Fe            9.1020379530        1.1702001330        0.0000000000    0   0   0
Fe            5.7922009060        2.3404002660        2.0269842320    0   0   0
Fe            7.4471250000        0.0000000000        2.0269842320    0   0   0
Fe            7.4463279496        3.5096623896        4.0582326749
Fe            9.1311704639        1.1261904552        4.0030446429
Fe            5.8826600248        2.4038169219        6.0065466382
Fe           10.7717081207        9.2679554674        6.0313527088
Fe            3.3098147640        5.8510006640        0.0000000000    0   0   0
Fe            1.6549018110        4.6808005310        2.0269842320    0   0   0
Fe            6.6196406700        8.1914009300        0.0000000000    0   0   0
Fe            4.9647277170        7.0212007970        2.0269842320    0   0   0
Fe            3.2843643692        5.8535130538        4.0302560787
Fe           11.5027055324        4.6755383257        6.0209309040
Fe            6.6249413269        8.2161040970        4.0264672287
Fe            4.9404817522        7.0570943022        6.0221957778
Fe            4.1372656700        8.1914009300        0.0000000000    0   0   0
Fe            5.7921897640        5.8510006640        0.0000000000    0   0   0
Fe            2.4823527170        7.0212007970        2.0269842320    0   0   0
Fe            4.1372768110        4.6808005310        2.0269842320    0   0   0
Fe            4.1358812557        8.1903863390        4.0118244561
Fe            5.7602588992        5.8932512275        4.0032852077
Fe           12.3706669654        6.9921103539        6.0254766557
Fe            4.0541481106        4.7261504623        6.0317804142
Fe            8.2745647640        5.8510006640        0.0000000000    0   0   0
Fe            6.6196518110        4.6808005310        2.0269842320    0   0   0
Fe           11.5843906700        8.1914009300        0.0000000000    0   0   0
Fe            9.9294777170        7.0212007970        2.0269842320    0   0   0
Fe            8.2511826085        5.8625636100        4.0405471517
Fe            6.4376450431        4.9385943990        5.9840273705
Fe           11.5783989695        8.1665317885        4.0300409426
Fe            9.8969698518        6.9460537504        6.0204616153
Fe            9.1020156700        8.1914009300        0.0000000000    0   0   0
Fe           10.7569397640        5.8510006640        0.0000000000    0   0   0
Fe            7.4471027170        7.0212007970        2.0269842320    0   0   0
Fe            9.1020268110        4.6808005310        2.0269842320    0   0   0
Fe            9.1012427716        8.1921800942        4.0484898126
Fe           10.7312790923        5.8330485434        4.0309754672
Fe            7.4403574681        7.1151175223        6.0263704204
Fe            9.0131752938        4.6174863418        6.0047920950
N             7.4483142126        3.5110681045        6.3466798495
H             4.6002180768        8.5188512224        6.9762956624
End final coordinates



     Writing output data file ./Fe_N_H_paper_480c_ESM_std.save/

     init_run     :     30.24s CPU     31.35s WALL (       1 calls)
     electrons    :  14217.13s CPU  14481.30s WALL (       8 calls)
     update_pot   :     40.95s CPU     41.30s WALL (       7 calls)
     forces       :    142.76s CPU    145.84s WALL (       8 calls)

     Called by init_run:
     wfcinit      :     20.30s CPU     21.10s WALL (       1 calls)
     potinit      :      2.89s CPU      2.98s WALL (       1 calls)
     hinit0       :      5.08s CPU      5.19s WALL (       1 calls)

     Called by electrons:
     c_bands      :  12735.97s CPU  12951.92s WALL (     155 calls)
     sum_band     :    746.29s CPU    776.23s WALL (     155 calls)
     v_of_rho     :    131.62s CPU    133.39s WALL (     156 calls)
     newd         :     27.44s CPU     27.76s WALL (     156 calls)
     PAW_pot      :     29.79s CPU     30.08s WALL (     163 calls)
     mix_rho      :    514.05s CPU    523.33s WALL (     155 calls)

     Called by c_bands:
     init_us_2    :     67.54s CPU     72.75s WALL (     978 calls)
     cegterg      :  11072.56s CPU  11222.05s WALL (     465 calls)

     Called by *egterg:
     cdiaghg      :   2623.32s CPU   2641.39s WALL (    3184 calls)
     h_psi        :   3577.40s CPU   3632.16s WALL (    3229 calls)
     s_psi        :    935.06s CPU    941.32s WALL (    3229 calls)
     g_psi        :     17.52s CPU     17.78s WALL (    2761 calls)

     Called by h_psi:
     h_psi:calbec :   1021.74s CPU   1028.53s WALL (    3229 calls)
     vloc_psi     :   1592.11s CPU   1609.74s WALL (    3229 calls)
     add_vuspsi   :    933.22s CPU    939.34s WALL (    3229 calls)

     General routines
     calbec       :   1461.74s CPU   1471.96s WALL (    3811 calls)
     fft          :     87.96s CPU     88.91s WALL (    4025 calls)
     ffts         :    230.01s CPU    232.01s WALL (   87354 calls)
     fftw         :   1726.99s CPU   1746.59s WALL ( 1916616 calls)
     interpolate  :     10.21s CPU     10.32s WALL (     312 calls)
     davcio       :      0.57s CPU     71.85s WALL (    3922 calls)

     Parallel routines
     fft_scatt_xy :    238.54s CPU    241.07s WALL ( 2007995 calls)
     fft_scatt_yz :    948.67s CPU    959.73s WALL ( 2007995 calls)

     PWSCF        :      4h 1m CPU      4h 5m WALL


   This run was terminated on:  23:23: 6   8Jul2022            

=------------------------------------------------------------------------------=
   JOB DONE.
=------------------------------------------------------------------------------=
