
     Program PWSCF v.6.4.1 starts on 15Jun2022 at 15: 7:37 

     This program is part of the open-source Quantum ESPRESSO suite
     for quantum simulation of materials; please cite
         "P. Giannozzi et al., J. Phys.:Condens. Matter 21 395502 (2009);
         "P. Giannozzi et al., J. Phys.:Condens. Matter 29 465901 (2017);
          URL http://www.quantum-espresso.org", 
     in publications or presentations arising from this work. More details at
     http://www.quantum-espresso.org/quote

     Parallel version (MPI), running on   160 processors

     MPI processes distributed on     8 nodes
     K-points division:     npool     =       8
     R & G space division:  proc/nbgrp/npool/nimage =      20
     Waiting for input...
     Reading input from standard input
Warning: card &CELL ignored
Warning: card / ignored

     Current dimensions of program PWSCF are:
     Max number of different atomic species (ntypx) = 10
     Max number of k-points (npk) =  40000
     Max angular momentum in pseudopotentials (lmaxx) =  3

     IMPORTANT: XC functional enforced from input :
     Exchange-correlation      = PBE ( 1  4  3  4 0 0)
     Any further DFT definition will be discarded
     Please, verify this is what you really want

               file Fe.pbe-spn-kjpaw_psl.0.2.1.UPF: wavefunction(s)  3D renormalized

     -------------------------------------------------
     Parameters for Dispersion (Grimme-D2) Correction:
     -------------------------------------------------
       atom      VdW radius       C_6     

        Fe         2.952        374.666
        N          2.640         42.670
        H          1.892          4.857

     Subspace diagonalization in iterative solution of the eigenvalue problem:
     one sub-group per band group will be used
     scalapack distributed-memory algorithm (size of sub-group:  3*  3 procs)


     Parallelization info
     --------------------
     sticks:   dense  smooth     PW     G-vecs:    dense   smooth      PW
     Min         634     317     83               145278    51361    6989
     Max         635     318     84               145287    51370    7000
     Sum       12685    6351   1677              2905599  1027285  139897



     bravais-lattice index     =            0
     lattice parameter (alat)  =      18.7640  a.u.
     unit-cell volume          =   16360.3163 (a.u.)^3
     number of atoms/cell      =           66
     number of atomic types    =            3
     number of electrons       =      1030.00
     number of Kohn-Sham states=          618
     kinetic-energy cutoff     =      60.0000  Ry
     charge density cutoff     =     480.0000  Ry
     convergence threshold     =      1.0E-08
     mixing beta               =       0.2000
     number of iterations used =           10  local-TF  mixing
     Exchange-correlation      = PBE ( 1  4  3  4 0 0)
     nstep                     =           50


     Effective Screening Medium Method
     =================================
     Boundary Conditions: Metal-Slab-Metal
     field strength                   =    -0.02 Ry/a.u.
     grid points for fit at edges     =        4 


     celldm(1)=  18.764036  celldm(2)=   0.000000  celldm(3)=   0.000000
     celldm(4)=   0.000000  celldm(5)=   0.000000  celldm(6)=   0.000000

     crystal axes: (cart. coord. in units of alat)
               a(1) = (   1.000000   0.000000   0.000000 )  
               a(2) = (   0.333330   0.942807   0.000000 )  
               a(3) = (   0.000000   0.000000   2.626577 )  

     reciprocal axes: (cart. coord. in units 2 pi/alat)
               b(1) = (  1.000000 -0.353551  0.000000 )  
               b(2) = (  0.000000  1.060663  0.000000 )  
               b(3) = (  0.000000  0.000000  0.380724 )  


     PseudoPot. # 1 for Fe read from file:
     ../../SSSP/Fe.pbe-spn-kjpaw_psl.0.2.1.UPF
     MD5 check sum: e86618425769142926afa95317d90200
     Pseudo is Projector augmented-wave + core cor, Zval = 16.0
     Generated using "atomic" code by A. Dal Corso v.5.0.99 svn rev. 10869
     Shape of augmentation charge: PSQ
     Using radial grid of 1191 points,  6 beta functions with: 
                l(1) =   0
                l(2) =   0
                l(3) =   1
                l(4) =   1
                l(5) =   2
                l(6) =   2
     Q(r) pseudized with 0 coefficients 


     PseudoPot. # 2 for N  read from file:
     ../../SSSP/N.pbe-n-radius_5.UPF
     MD5 check sum: 16739722b17309cd8fe442a2ace49922
     Pseudo is Ultrasoft + core correction, Zval =  5.0
     Generated using "atomic" code by A. Dal Corso v.5.1
     Using radial grid of 1085 points,  4 beta functions with: 
                l(1) =   0
                l(2) =   0
                l(3) =   1
                l(4) =   1
     Q(r) pseudized with 0 coefficients 


     PseudoPot. # 3 for H  read from file:
     ../../SSSP/H.pbe-rrkjus_psl.1.0.0.UPF
     MD5 check sum: f52b6d4d1c606e5624b1dc7b2218f220
     Pseudo is Ultrasoft, Zval =  1.0
     Generated using "atomic" code by A. Dal Corso v.5.1
     Using radial grid of  929 points,  2 beta functions with: 
                l(1) =   0
                l(2) =   0
     Q(r) pseudized with 0 coefficients 


     atomic species   valence    mass     pseudopotential
        Fe            16.00    55.84500     Fe( 1.00)
        N              5.00    14.00700     N ( 1.00)
        H              1.00     1.00800     H ( 1.00)

     Starting magnetic structure 
     atomic species   magnetization
        Fe           0.100
        N            0.100
        H            0.100

     No symmetry found



   Cartesian axes

     site n.     atom                  positions (alat units)
         1           Fe  tau(   1) = (   0.1666663   0.1178509   0.0000000  )
         2           Fe  tau(   2) = (   0.0000000   0.0000000   0.2041376  )
         3           Fe  tau(   3) = (   0.4999989   0.3535526   0.0000000  )
         4           Fe  tau(   4) = (   0.3333326   0.2357017   0.2041376  )
         5           Fe  tau(   5) = (   0.1686285   0.1178444   0.4053509  )
         6           Fe  tau(   6) = (   0.3341138   0.9417908   0.6036220  )
         7           Fe  tau(   7) = (   0.5010571   0.3547382   0.4069762  )
         8           Fe  tau(   8) = (   0.3388431   0.2353412   0.6054646  )
         9           Fe  tau(   9) = (   0.2499989   0.3535526   0.0000000  )
        10           Fe  tau(  10) = (   0.4166663   0.1178509   0.0000000  )
        11           Fe  tau(  11) = (   0.0833326   0.2357017   0.2041376  )
        12           Fe  tau(  12) = (   0.2500000   0.0000000   0.2041376  )
        13           Fe  tau(  13) = (   0.2500013   0.3535851   0.4068436  )
        14           Fe  tau(  14) = (   0.4190417   0.1195776   0.4061143  )
        15           Fe  tau(  15) = (   0.0863955   0.2339549   0.6039849  )
        16           Fe  tau(  16) = (   0.2512517   0.0009152   0.6053189  )
        17           Fe  tau(  17) = (   0.6666663   0.1178509   0.0000000  )
        18           Fe  tau(  18) = (   0.5000000   0.0000000   0.2041376  )
        19           Fe  tau(  19) = (   0.9999989   0.3535526   0.0000000  )
        20           Fe  tau(  20) = (   0.8333326   0.2357017   0.2041376  )
        21           Fe  tau(  21) = (   0.6681086   0.1185096   0.4069531  )
        22           Fe  tau(  22) = (   0.5014849   0.0053883   0.6054906  )
        23           Fe  tau(  23) = (   0.9989690   0.3524567   0.4069506  )
        24           Fe  tau(  24) = (   0.8419824   0.2236035   0.6021388  )
        25           Fe  tau(  25) = (   0.7499989   0.3535526   0.0000000  )
        26           Fe  tau(  26) = (   0.9166663   0.1178509   0.0000000  )
        27           Fe  tau(  27) = (   0.5833326   0.2357017   0.2041376  )
        28           Fe  tau(  28) = (   0.7500000   0.0000000   0.2041376  )
        29           Fe  tau(  29) = (   0.7500262   0.3535864   0.4028105  )
        30           Fe  tau(  30) = (   0.9183967   0.1154676   0.4034806  )
        31           Fe  tau(  31) = (   0.5924062   0.2421762   0.6094502  )
        32           Fe  tau(  32) = (   1.0840597   0.9394357   0.6039872  )
        33           Fe  tau(  33) = (   0.3333315   0.5892543   0.0000000  )
        34           Fe  tau(  34) = (   0.1666652   0.4714034   0.2041376  )
        35           Fe  tau(  35) = (   0.6666640   0.8249560   0.0000000  )
        36           Fe  tau(  36) = (   0.4999978   0.7071052   0.2041376  )
        37           Fe  tau(  37) = (   0.3314016   0.5893182   0.4053558  )
        38           Fe  tau(  38) = (   1.1612288   0.4718641   0.6054848  )
        39           Fe  tau(  39) = (   0.6673049   0.8268444   0.4053531  )
        40           Fe  tau(  40) = (   0.4992723   0.7082197   0.6035056  )
        41           Fe  tau(  41) = (   0.4166640   0.8249560   0.0000000  )
        42           Fe  tau(  42) = (   0.5833315   0.5892543   0.0000000  )
        43           Fe  tau(  43) = (   1.2499978   0.7071052   0.2041376  )
        44           Fe  tau(  44) = (   0.4166652   0.4714034   0.2041376  )
        45           Fe  tau(  45) = (   0.4166687   0.8250097   0.4049660  )
        46           Fe  tau(  46) = (   0.5816525   0.5916924   0.4034550  )
        47           Fe  tau(  47) = (   1.2488056   0.7062978   0.6053108  )
        48           Fe  tau(  48) = (   0.4136562   0.4732691   0.6040576  )
        49           Fe  tau(  49) = (   0.8333315   0.5892543   0.0000000  )
        50           Fe  tau(  50) = (   0.6666652   0.4714034   0.2041376  )
        51           Fe  tau(  51) = (   1.1666640   0.8249560   0.0000000  )
        52           Fe  tau(  52) = (   0.9999978   0.7071052   0.2041376  )
        53           Fe  tau(  53) = (   0.8319318   0.5887060   0.4069754  )
        54           Fe  tau(  54) = (   0.6580739   0.4836954   0.6021394  )
        55           Fe  tau(  55) = (   1.1660721   0.8231522   0.4053495  )
        56           Fe  tau(  56) = (   0.9986058   0.7018871   0.6054513  )
        57           Fe  tau(  57) = (   0.9166640   0.8249560   0.0000000  )
        58           Fe  tau(  58) = (   1.0833315   0.5892543   0.0000000  )
        59           Fe  tau(  59) = (   0.7499978   0.7071052   0.2041376  )
        60           Fe  tau(  60) = (   0.9166652   0.4714034   0.2041376  )
        61           Fe  tau(  61) = (   0.9166914   0.8250215   0.4068437  )
        62           Fe  tau(  62) = (   1.0809829   0.5876358   0.4061148  )
        63           Fe  tau(  63) = (   0.7493409   0.7106718   0.6040550  )
        64           Fe  tau(  64) = (   0.9077141   0.4651188   0.6094298  )
        65           N   tau(  65) = (   0.7501739   0.3537627   0.7047077  )
        66           H   tau(  66) = (   0.7501852   0.3538175   0.8083634  )

     number of k points=    10  Methfessel-Paxton smearing, width (Ry)=  0.0100
                       cart. coord. in units 2pi/alat
        k(    1) = (   0.0000000   0.0000000   0.0000000), wk =   0.0625000
        k(    2) = (   0.0000000   0.2651656   0.0000000), wk =   0.1250000
        k(    3) = (   0.0000000  -0.5303313   0.0000000), wk =   0.0625000
        k(    4) = (   0.2500000  -0.0883878   0.0000000), wk =   0.1250000
        k(    5) = (   0.2500000   0.1767779   0.0000000), wk =   0.1250000
        k(    6) = (   0.2500000  -0.6187190   0.0000000), wk =   0.1250000
        k(    7) = (   0.2500000  -0.3535534   0.0000000), wk =   0.1250000
        k(    8) = (  -0.5000000   0.1767755   0.0000000), wk =   0.0625000
        k(    9) = (  -0.5000000   0.4419412   0.0000000), wk =   0.1250000
        k(   10) = (  -0.5000000  -0.3535558   0.0000000), wk =   0.0625000

     Dense  grid:  2905599 G-vectors     FFT dimensions: ( 135, 135, 360)

     Smooth grid:  1027285 G-vectors     FFT dimensions: (  96,  96, 243)

     Estimated max dynamical RAM per process >       1.01 GB

     Estimated total dynamical RAM >     161.82 GB
     Generating pointlists ...
     new r_m :   0.0781 (alat units)  1.4662 (a.u.) for type    1
     new r_m :   0.0428 (alat units)  0.8023 (a.u.) for type    2
     new r_m :   0.0428 (alat units)  0.8023 (a.u.) for type    3

     Check: negative core charge=   -0.000039

     Initial potential from superposition of free atoms

     starting charge 1029.97193, renormalised to 1030.00000

     negative rho (up, down):  2.449E-02 2.497E-03
     Starting wfcs are  837 randomized atomic wfcs
     Checking if some PAW data can be deallocated... 

     total cpu time spent up to now is       90.5 secs

     Self-consistent Calculation

     iteration #  1     ecut=    60.00 Ry     beta= 0.20
     Davidson diagonalization with overlap
     ethr =  1.00E-04,  avg # of iterations = 18.1

     negative rho (up, down):  1.499E-02 3.107E-03

     total cpu time spent up to now is     1109.0 secs

     total energy              =  -21078.36308058 Ry
     Harris-Foulkes estimate   =  -21100.68051766 Ry
     estimated scf accuracy    <    1159.96608550 Ry

     total magnetization       =    68.97 Bohr mag/cell
     absolute magnetization    =    70.86 Bohr mag/cell

     iteration #  2     ecut=    60.00 Ry     beta= 0.20
     Davidson diagonalization with overlap
     ethr =  1.00E-02,  avg # of iterations =  1.0

     negative rho (up, down):  1.252E-02 2.848E-02

     total cpu time spent up to now is     1247.6 secs

     total energy              =  -21090.93776337 Ry
     Harris-Foulkes estimate   =  -21097.83669962 Ry
     estimated scf accuracy    <     360.09507531 Ry

     total magnetization       =    82.08 Bohr mag/cell
     absolute magnetization    =    84.12 Bohr mag/cell

     iteration #  3     ecut=    60.00 Ry     beta= 0.20
     Davidson diagonalization with overlap
     ethr =  1.00E-02,  avg # of iterations =  1.0

     negative rho (up, down):  9.964E-03 6.044E-02

     total cpu time spent up to now is     1385.4 secs

     total energy              =  -21093.71369423 Ry
     Harris-Foulkes estimate   =  -21093.97193184 Ry
     estimated scf accuracy    <      15.43897835 Ry

     total magnetization       =   120.24 Bohr mag/cell
     absolute magnetization    =   120.87 Bohr mag/cell

     iteration #  4     ecut=    60.00 Ry     beta= 0.20
     Davidson diagonalization with overlap
     ethr =  1.50E-03,  avg # of iterations =  1.0

     negative rho (up, down):  7.295E-03 6.747E-02

     total cpu time spent up to now is     1513.8 secs

     total energy              =  -21093.79604960 Ry
     Harris-Foulkes estimate   =  -21093.85064683 Ry
     estimated scf accuracy    <      18.26877610 Ry

     total magnetization       =   127.43 Bohr mag/cell
     absolute magnetization    =   128.00 Bohr mag/cell

     iteration #  5     ecut=    60.00 Ry     beta= 0.20
     Davidson diagonalization with overlap
     ethr =  1.50E-03,  avg # of iterations =  1.0

     negative rho (up, down):  2.095E-02 2.224E-01

     total cpu time spent up to now is     1643.8 secs

     total energy              =  -21092.22467992 Ry
     Harris-Foulkes estimate   =  -21093.83750944 Ry
     estimated scf accuracy    <      21.19601346 Ry

     total magnetization       =   131.60 Bohr mag/cell
     absolute magnetization    =   132.20 Bohr mag/cell

     iteration #  6     ecut=    60.00 Ry     beta= 0.20
     Davidson diagonalization with overlap
     ethr =  1.50E-03,  avg # of iterations =  2.5

     negative rho (up, down):  1.707E-02 2.030E-01

     total cpu time spent up to now is     1799.0 secs

     total energy              =  -21092.70063558 Ry
     Harris-Foulkes estimate   =  -21093.07025166 Ry
     estimated scf accuracy    <       9.03986363 Ry

     total magnetization       =   153.36 Bohr mag/cell
     absolute magnetization    =   154.65 Bohr mag/cell

     iteration #  7     ecut=    60.00 Ry     beta= 0.20
     Davidson diagonalization with overlap
     ethr =  8.78E-04,  avg # of iterations =  4.7

     negative rho (up, down):  6.402E-03 1.131E-01

     total cpu time spent up to now is     1978.0 secs

     total energy              =  -21092.85610045 Ry
     Harris-Foulkes estimate   =  -21092.93276446 Ry
     estimated scf accuracy    <       2.95605950 Ry

     total magnetization       =   154.33 Bohr mag/cell
     absolute magnetization    =   156.13 Bohr mag/cell

     iteration #  8     ecut=    60.00 Ry     beta= 0.20
     Davidson diagonalization with overlap
     ethr =  2.87E-04,  avg # of iterations = 12.8

     negative rho (up, down):  8.155E-04 4.416E-02

     total cpu time spent up to now is     2655.7 secs

     total energy              =  -21093.50056646 Ry
     Harris-Foulkes estimate   =  -21094.21936354 Ry
     estimated scf accuracy    <       5.80716956 Ry

     total magnetization       =   153.56 Bohr mag/cell
     absolute magnetization    =   159.23 Bohr mag/cell

     iteration #  9     ecut=    60.00 Ry     beta= 0.20
     Davidson diagonalization with overlap
     ethr =  2.87E-04,  avg # of iterations =  3.1

     negative rho (up, down):  5.647E-04 2.547E-02

     total cpu time spent up to now is     2825.3 secs

     total energy              =  -21093.76034001 Ry
     Harris-Foulkes estimate   =  -21093.78065017 Ry
     estimated scf accuracy    <       0.77115701 Ry

     total magnetization       =   147.40 Bohr mag/cell
     absolute magnetization    =   152.57 Bohr mag/cell

     iteration # 10     ecut=    60.00 Ry     beta= 0.20
     Davidson diagonalization with overlap
     ethr =  7.49E-05,  avg # of iterations =  6.9

     negative rho (up, down):  2.713E-04 1.527E-02

     total cpu time spent up to now is     3032.2 secs

     total energy              =  -21093.82833643 Ry
     Harris-Foulkes estimate   =  -21093.83181836 Ry
     estimated scf accuracy    <       0.72625368 Ry

     total magnetization       =   147.18 Bohr mag/cell
     absolute magnetization    =   152.04 Bohr mag/cell

     iteration # 11     ecut=    60.00 Ry     beta= 0.20
     Davidson diagonalization with overlap
     ethr =  7.05E-05,  avg # of iterations =  2.4

     negative rho (up, down):  5.371E-04 4.030E-02

     total cpu time spent up to now is     3187.3 secs

     total energy              =  -21093.83313576 Ry
     Harris-Foulkes estimate   =  -21093.85848352 Ry
     estimated scf accuracy    <       0.40202756 Ry

     total magnetization       =   150.94 Bohr mag/cell
     absolute magnetization    =   155.66 Bohr mag/cell

     iteration # 12     ecut=    60.00 Ry     beta= 0.20
     Davidson diagonalization with overlap
     ethr =  3.90E-05,  avg # of iterations =  6.9

     negative rho (up, down):  5.916E-04 3.532E-02

     total cpu time spent up to now is     3398.5 secs

     total energy              =  -21093.87851218 Ry
     Harris-Foulkes estimate   =  -21093.88726873 Ry
     estimated scf accuracy    <       0.31896572 Ry

     total magnetization       =   155.55 Bohr mag/cell
     absolute magnetization    =   160.48 Bohr mag/cell

     iteration # 13     ecut=    60.00 Ry     beta= 0.20
     Davidson diagonalization with overlap
     ethr =  3.10E-05,  avg # of iterations =  8.1

     negative rho (up, down):  1.039E-03 4.114E-02

     total cpu time spent up to now is     3618.1 secs

     total energy              =  -21093.91870610 Ry
     Harris-Foulkes estimate   =  -21093.91455315 Ry
     estimated scf accuracy    <       0.39257339 Ry

     total magnetization       =   159.28 Bohr mag/cell
     absolute magnetization    =   164.39 Bohr mag/cell

     iteration # 14     ecut=    60.00 Ry     beta= 0.20
     Davidson diagonalization with overlap
     ethr =  3.10E-05,  avg # of iterations =  4.7

     negative rho (up, down):  7.309E-03 3.946E-02

     total cpu time spent up to now is     3801.0 secs

     total energy              =  -21093.91226399 Ry
     Harris-Foulkes estimate   =  -21093.93376830 Ry
     estimated scf accuracy    <       0.68791495 Ry

     total magnetization       =   160.71 Bohr mag/cell
     absolute magnetization    =   165.93 Bohr mag/cell

     iteration # 15     ecut=    60.00 Ry     beta= 0.20
     Davidson diagonalization with overlap
     ethr =  3.10E-05,  avg # of iterations =  3.9

     negative rho (up, down):  4.301E-02 4.515E-02

     total cpu time spent up to now is     3961.6 secs

     total energy              =  -21093.90748942 Ry
     Harris-Foulkes estimate   =  -21093.92909307 Ry
     estimated scf accuracy    <       0.36701663 Ry

     total magnetization       =   162.14 Bohr mag/cell
     absolute magnetization    =   167.40 Bohr mag/cell

     iteration # 16     ecut=    60.00 Ry     beta= 0.20
     Davidson diagonalization with overlap
     ethr =  3.10E-05,  avg # of iterations =  4.0

     negative rho (up, down):  3.446E-02 4.341E-02

     total cpu time spent up to now is     4124.4 secs

     total energy              =  -21093.91585443 Ry
     Harris-Foulkes estimate   =  -21093.91692129 Ry
     estimated scf accuracy    <       0.26191875 Ry

     total magnetization       =   162.61 Bohr mag/cell
     absolute magnetization    =   167.91 Bohr mag/cell

     iteration # 17     ecut=    60.00 Ry     beta= 0.20
     Davidson diagonalization with overlap
     ethr =  2.54E-05,  avg # of iterations =  1.4

     negative rho (up, down):  1.385E-02 3.926E-02

     total cpu time spent up to now is     4275.7 secs

     total energy              =  -21093.88461773 Ry
     Harris-Foulkes estimate   =  -21093.92070429 Ry
     estimated scf accuracy    <       0.27052573 Ry

     total magnetization       =   162.32 Bohr mag/cell
     absolute magnetization    =   167.69 Bohr mag/cell

     iteration # 18     ecut=    60.00 Ry     beta= 0.20
     Davidson diagonalization with overlap
     ethr =  2.54E-05,  avg # of iterations =  3.4

     negative rho (up, down):  5.254E-03 2.660E-02

     total cpu time spent up to now is     4445.1 secs

     total energy              =  -21093.88481185 Ry
     Harris-Foulkes estimate   =  -21093.89734936 Ry
     estimated scf accuracy    <       0.11454741 Ry

     total magnetization       =   162.53 Bohr mag/cell
     absolute magnetization    =   168.01 Bohr mag/cell

     iteration # 19     ecut=    60.00 Ry     beta= 0.20
     Davidson diagonalization with overlap
     c_bands:  1 eigenvalues not converged
     ethr =  1.11E-05,  avg # of iterations = 51.6

     negative rho (up, down):  1.274E-03 2.590E-02

     total cpu time spent up to now is     6544.7 secs

     total energy              =  -21093.95098623 Ry
     Harris-Foulkes estimate   =  -21093.98648730 Ry
     estimated scf accuracy    <       1.00340962 Ry

     total magnetization       =   160.46 Bohr mag/cell
     absolute magnetization    =   170.59 Bohr mag/cell

     iteration # 20     ecut=    60.00 Ry     beta= 0.20
     Davidson diagonalization with overlap
     ethr =  1.11E-05,  avg # of iterations = 11.2

     negative rho (up, down):  9.844E-04 4.199E-02

     total cpu time spent up to now is     6921.8 secs

     total energy              =  -21093.97233664 Ry
     Harris-Foulkes estimate   =  -21093.96270153 Ry
     estimated scf accuracy    <       0.36494042 Ry

     total magnetization       =   160.31 Bohr mag/cell
     absolute magnetization    =   169.34 Bohr mag/cell

     iteration # 21     ecut=    60.00 Ry     beta= 0.20
     Davidson diagonalization with overlap
     ethr =  1.11E-05,  avg # of iterations =  5.7

     negative rho (up, down):  1.453E-03 1.448E-01

     total cpu time spent up to now is     7216.8 secs

     total energy              =  -21093.97132035 Ry
     Harris-Foulkes estimate   =  -21093.97575423 Ry
     estimated scf accuracy    <       0.66006315 Ry

     total magnetization       =   159.92 Bohr mag/cell
     absolute magnetization    =   169.73 Bohr mag/cell

     iteration # 22     ecut=    60.00 Ry     beta= 0.20
     Davidson diagonalization with overlap
     ethr =  1.11E-05,  avg # of iterations =  5.8

     negative rho (up, down):  7.043E-02 1.969E-01

     total cpu time spent up to now is     7468.4 secs

     total energy              =  -21093.80343546 Ry
     Harris-Foulkes estimate   =  -21093.97382151 Ry
     estimated scf accuracy    <       0.86228579 Ry

     total magnetization       =   159.79 Bohr mag/cell
     absolute magnetization    =   169.99 Bohr mag/cell

     iteration # 23     ecut=    60.00 Ry     beta= 0.20
     Davidson diagonalization with overlap
     ethr =  1.11E-05,  avg # of iterations =  7.6

     negative rho (up, down):  3.739E-02 1.992E-01

     total cpu time spent up to now is     7703.5 secs

     total energy              =  -21093.89821656 Ry
     Harris-Foulkes estimate   =  -21093.87918361 Ry
     estimated scf accuracy    <       0.08022877 Ry

     total magnetization       =   161.63 Bohr mag/cell
     absolute magnetization    =   168.12 Bohr mag/cell

     iteration # 24     ecut=    60.00 Ry     beta= 0.20
     Davidson diagonalization with overlap
     ethr =  7.79E-06,  avg # of iterations =  4.1

     negative rho (up, down):  1.901E-02 1.422E-01

     total cpu time spent up to now is     7889.1 secs

     total energy              =  -21093.92656556 Ry
     Harris-Foulkes estimate   =  -21093.90087025 Ry
     estimated scf accuracy    <       0.04731654 Ry

     total magnetization       =   161.38 Bohr mag/cell
     absolute magnetization    =   168.11 Bohr mag/cell

     iteration # 25     ecut=    60.00 Ry     beta= 0.20
     Davidson diagonalization with overlap
     ethr =  4.59E-06,  avg # of iterations =  8.7

     negative rho (up, down):  2.710E-02 1.077E-01

     total cpu time spent up to now is     8128.7 secs

     total energy              =  -21093.93403530 Ry
     Harris-Foulkes estimate   =  -21093.93441317 Ry
     estimated scf accuracy    <       0.03330928 Ry

     total magnetization       =   160.93 Bohr mag/cell
     absolute magnetization    =   168.89 Bohr mag/cell

     iteration # 26     ecut=    60.00 Ry     beta= 0.20
     Davidson diagonalization with overlap
     ethr =  3.23E-06,  avg # of iterations = 12.6

     negative rho (up, down):  2.866E-02 9.554E-02

     total cpu time spent up to now is     8420.0 secs

     total energy              =  -21093.93905585 Ry
     Harris-Foulkes estimate   =  -21093.93743956 Ry
     estimated scf accuracy    <       0.00339256 Ry

     total magnetization       =   161.28 Bohr mag/cell
     absolute magnetization    =   168.61 Bohr mag/cell

     iteration # 27     ecut=    60.00 Ry     beta= 0.20
     Davidson diagonalization with overlap
     c_bands:  3 eigenvalues not converged
     ethr =  3.29E-07,  avg # of iterations = 17.6

     negative rho (up, down):  2.662E-02 1.085E-01

     total cpu time spent up to now is     9337.0 secs

     total energy              =  -21093.94382538 Ry
     Harris-Foulkes estimate   =  -21093.94599977 Ry
     estimated scf accuracy    <       0.00989556 Ry

     total magnetization       =   161.12 Bohr mag/cell
     absolute magnetization    =   168.57 Bohr mag/cell

     iteration # 28     ecut=    60.00 Ry     beta= 0.20
     Davidson diagonalization with overlap
     c_bands:  1 eigenvalues not converged
     ethr =  3.29E-07,  avg # of iterations =  7.8

     negative rho (up, down):  2.233E-02 1.116E-01

     total cpu time spent up to now is     9575.4 secs

     total energy              =  -21093.94148493 Ry
     Harris-Foulkes estimate   =  -21093.94396409 Ry
     estimated scf accuracy    <       0.00543817 Ry

     total magnetization       =   161.07 Bohr mag/cell
     absolute magnetization    =   168.60 Bohr mag/cell

     iteration # 29     ecut=    60.00 Ry     beta= 0.20
     Davidson diagonalization with overlap
     c_bands:  5 eigenvalues not converged
     ethr =  3.29E-07,  avg # of iterations = 10.9

     negative rho (up, down):  2.950E-02 7.749E-02

     total cpu time spent up to now is    10083.3 secs

     total energy              =  -21093.94519527 Ry
     Harris-Foulkes estimate   =  -21093.94372599 Ry
     estimated scf accuracy    <       0.02047461 Ry

     total magnetization       =   160.64 Bohr mag/cell
     absolute magnetization    =   168.79 Bohr mag/cell

     iteration # 30     ecut=    60.00 Ry     beta= 0.20
     Davidson diagonalization with overlap
     c_bands:  1 eigenvalues not converged
     ethr =  3.29E-07,  avg # of iterations =  8.4

     negative rho (up, down):  2.948E-02 8.092E-02

     total cpu time spent up to now is    10417.5 secs

     total energy              =  -21093.94358391 Ry
     Harris-Foulkes estimate   =  -21093.94563231 Ry
     estimated scf accuracy    <       0.00314408 Ry

     total magnetization       =   160.81 Bohr mag/cell
     absolute magnetization    =   168.67 Bohr mag/cell

     iteration # 31     ecut=    60.00 Ry     beta= 0.20
     Davidson diagonalization with overlap
     c_bands:  1 eigenvalues not converged
     ethr =  3.05E-07,  avg # of iterations =  3.9

     negative rho (up, down):  2.684E-02 1.002E-01

     total cpu time spent up to now is    10633.4 secs

     total energy              =  -21093.94005947 Ry
     Harris-Foulkes estimate   =  -21093.94365983 Ry
     estimated scf accuracy    <       0.00715261 Ry

     total magnetization       =   160.80 Bohr mag/cell
     absolute magnetization    =   168.78 Bohr mag/cell

     iteration # 32     ecut=    60.00 Ry     beta= 0.20
     Davidson diagonalization with overlap
     c_bands:  1 eigenvalues not converged
     ethr =  3.05E-07,  avg # of iterations =  3.9

     negative rho (up, down):  1.812E-02 1.441E-01

     total cpu time spent up to now is    10851.5 secs

     total energy              =  -21093.93141997 Ry
     Harris-Foulkes estimate   =  -21093.94011089 Ry
     estimated scf accuracy    <       0.00318675 Ry

     total magnetization       =   160.83 Bohr mag/cell
     absolute magnetization    =   168.72 Bohr mag/cell

     iteration # 33     ecut=    60.00 Ry     beta= 0.20
     Davidson diagonalization with overlap
     ethr =  3.05E-07,  avg # of iterations =  9.4

     negative rho (up, down):  1.682E-02 1.307E-01

     total cpu time spent up to now is    11099.0 secs

     total energy              =  -21093.93261256 Ry
     Harris-Foulkes estimate   =  -21093.93171149 Ry
     estimated scf accuracy    <       0.00035049 Ry

     total magnetization       =   160.83 Bohr mag/cell
     absolute magnetization    =   168.51 Bohr mag/cell

     iteration # 34     ecut=    60.00 Ry     beta= 0.20
     Davidson diagonalization with overlap
     c_bands:  1 eigenvalues not converged
     ethr =  3.40E-08,  avg # of iterations = 10.6

     negative rho (up, down):  1.619E-02 1.224E-01

     total cpu time spent up to now is    11549.4 secs

     total energy              =  -21093.93365883 Ry
     Harris-Foulkes estimate   =  -21093.93270034 Ry
     estimated scf accuracy    <       0.00063849 Ry

     total magnetization       =   160.82 Bohr mag/cell
     absolute magnetization    =   168.48 Bohr mag/cell

     iteration # 35     ecut=    60.00 Ry     beta= 0.20
     Davidson diagonalization with overlap
     ethr =  3.40E-08,  avg # of iterations =  3.4

     negative rho (up, down):  1.368E-02 1.124E-01

     total cpu time spent up to now is    11730.6 secs

     total energy              =  -21093.93452834 Ry
     Harris-Foulkes estimate   =  -21093.93367713 Ry
     estimated scf accuracy    <       0.00018209 Ry

     total magnetization       =   160.80 Bohr mag/cell
     absolute magnetization    =   168.49 Bohr mag/cell

     iteration # 36     ecut=    60.00 Ry     beta= 0.20
     Davidson diagonalization with overlap
     ethr =  1.77E-08,  avg # of iterations =  9.6

     negative rho (up, down):  1.230E-02 1.291E-01

     total cpu time spent up to now is    12231.2 secs

     total energy              =  -21093.93237549 Ry
     Harris-Foulkes estimate   =  -21093.93460706 Ry
     estimated scf accuracy    <       0.00011327 Ry

     total magnetization       =   160.73 Bohr mag/cell
     absolute magnetization    =   168.48 Bohr mag/cell

     iteration # 37     ecut=    60.00 Ry     beta= 0.20
     Davidson diagonalization with overlap
     ethr =  1.10E-08,  avg # of iterations = 10.2

     negative rho (up, down):  1.261E-02 1.202E-01

     total cpu time spent up to now is    12493.6 secs

     total energy              =  -21093.93384612 Ry
     Harris-Foulkes estimate   =  -21093.93240408 Ry
     estimated scf accuracy    <       0.00011777 Ry

     total magnetization       =   160.73 Bohr mag/cell
     absolute magnetization    =   168.42 Bohr mag/cell

     iteration # 38     ecut=    60.00 Ry     beta= 0.20
     Davidson diagonalization with overlap
     ethr =  1.10E-08,  avg # of iterations =  4.0

     negative rho (up, down):  1.211E-02 1.214E-01

     total cpu time spent up to now is    12695.9 secs

     total energy              =  -21093.93407932 Ry
     Harris-Foulkes estimate   =  -21093.93385203 Ry
     estimated scf accuracy    <       0.00001340 Ry

     total magnetization       =   160.73 Bohr mag/cell
     absolute magnetization    =   168.44 Bohr mag/cell

     iteration # 39     ecut=    60.00 Ry     beta= 0.20
     Davidson diagonalization with overlap
     c_bands:  2 eigenvalues not converged
     c_bands:  4 eigenvalues not converged
     ethr =  1.30E-09,  avg # of iterations = 14.4

     negative rho (up, down):  1.192E-02 1.240E-01

     total cpu time spent up to now is    13519.9 secs

     total energy              =  -21093.93363835 Ry
     Harris-Foulkes estimate   =  -21093.93409899 Ry
     estimated scf accuracy    <       0.00001709 Ry

     total magnetization       =   160.71 Bohr mag/cell
     absolute magnetization    =   168.43 Bohr mag/cell

     iteration # 40     ecut=    60.00 Ry     beta= 0.20
     Davidson diagonalization with overlap
     c_bands:  1 eigenvalues not converged
     ethr =  1.30E-09,  avg # of iterations =  8.4

     negative rho (up, down):  1.186E-02 1.224E-01

     total cpu time spent up to now is    13763.9 secs

     total energy              =  -21093.93376048 Ry
     Harris-Foulkes estimate   =  -21093.93363988 Ry
     estimated scf accuracy    <       0.00000455 Ry

     total magnetization       =   160.71 Bohr mag/cell
     absolute magnetization    =   168.42 Bohr mag/cell

     iteration # 41     ecut=    60.00 Ry     beta= 0.20
     Davidson diagonalization with overlap
     c_bands:  1 eigenvalues not converged
     ethr =  4.42E-10,  avg # of iterations = 10.2

     negative rho (up, down):  1.176E-02 1.229E-01

     total cpu time spent up to now is    14210.3 secs

     total energy              =  -21093.93374534 Ry
     Harris-Foulkes estimate   =  -21093.93376133 Ry
     estimated scf accuracy    <       0.00000273 Ry

     total magnetization       =   160.71 Bohr mag/cell
     absolute magnetization    =   168.43 Bohr mag/cell

     iteration # 42     ecut=    60.00 Ry     beta= 0.20
     Davidson diagonalization with overlap
     ethr =  2.65E-10,  avg # of iterations = 10.7

     negative rho (up, down):  1.170E-02 1.240E-01

     total cpu time spent up to now is    14726.3 secs

     total energy              =  -21093.93382250 Ry
     Harris-Foulkes estimate   =  -21093.93374660 Ry
     estimated scf accuracy    <       0.00000218 Ry

     total magnetization       =   160.72 Bohr mag/cell
     absolute magnetization    =   168.43 Bohr mag/cell

     iteration # 43     ecut=    60.00 Ry     beta= 0.20
     Davidson diagonalization with overlap
     ethr =  2.12E-10,  avg # of iterations =  8.8

     negative rho (up, down):  1.143E-02 1.227E-01

     total cpu time spent up to now is    14969.6 secs

     total energy              =  -21093.93411450 Ry
     Harris-Foulkes estimate   =  -21093.93382264 Ry
     estimated scf accuracy    <       0.00000174 Ry

     total magnetization       =   160.72 Bohr mag/cell
     absolute magnetization    =   168.43 Bohr mag/cell

     iteration # 44     ecut=    60.00 Ry     beta= 0.20
     Davidson diagonalization with overlap
     ethr =  1.69E-10,  avg # of iterations = 12.5

     negative rho (up, down):  1.142E-02 1.227E-01

     total cpu time spent up to now is    15246.6 secs

     total energy              =  -21093.93419328 Ry
     Harris-Foulkes estimate   =  -21093.93411481 Ry
     estimated scf accuracy    <       0.00000056 Ry

     total magnetization       =   160.71 Bohr mag/cell
     absolute magnetization    =   168.43 Bohr mag/cell

     iteration # 45     ecut=    60.00 Ry     beta= 0.20
     Davidson diagonalization with overlap
     ethr =  5.41E-11,  avg # of iterations = 14.8

     negative rho (up, down):  1.150E-02 1.227E-01

     total cpu time spent up to now is    15867.5 secs

     total energy              =  -21093.93427207 Ry
     Harris-Foulkes estimate   =  -21093.93419354 Ry
     estimated scf accuracy    <       0.00000036 Ry

     total magnetization       =   160.72 Bohr mag/cell
     absolute magnetization    =   168.43 Bohr mag/cell

     iteration # 46     ecut=    60.00 Ry     beta= 0.20
     Davidson diagonalization with overlap
     ethr =  3.47E-11,  avg # of iterations = 11.2

     negative rho (up, down):  1.155E-02 1.224E-01

     total cpu time spent up to now is    16176.0 secs

     total energy              =  -21093.93437011 Ry
     Harris-Foulkes estimate   =  -21093.93427211 Ry
     estimated scf accuracy    <       0.00000020 Ry

     total magnetization       =   160.72 Bohr mag/cell
     absolute magnetization    =   168.43 Bohr mag/cell

     iteration # 47     ecut=    60.00 Ry     beta= 0.20
     Davidson diagonalization with overlap
     ethr =  1.92E-11,  avg # of iterations = 13.8

     negative rho (up, down):  1.149E-02 1.220E-01

     total cpu time spent up to now is    16833.9 secs

     total energy              =  -21093.93438549 Ry
     Harris-Foulkes estimate   =  -21093.93437015 Ry
     estimated scf accuracy    <       0.00000010 Ry

     total magnetization       =   160.72 Bohr mag/cell
     absolute magnetization    =   168.44 Bohr mag/cell

     iteration # 48     ecut=    60.00 Ry     beta= 0.20
     Davidson diagonalization with overlap
     ethr =  1.01E-11,  avg # of iterations = 12.3

     negative rho (up, down):  1.144E-02 1.220E-01

     total cpu time spent up to now is    17372.3 secs

     total energy              =  -21093.93438833 Ry
     Harris-Foulkes estimate   =  -21093.93438552 Ry
     estimated scf accuracy    <       0.00000007 Ry

     total magnetization       =   160.72 Bohr mag/cell
     absolute magnetization    =   168.43 Bohr mag/cell

     iteration # 49     ecut=    60.00 Ry     beta= 0.20
     Davidson diagonalization with overlap
     ethr =  7.11E-12,  avg # of iterations = 10.3

     negative rho (up, down):  1.135E-02 1.226E-01

     total cpu time spent up to now is    17674.9 secs

     total energy              =  -21093.93436419 Ry
     Harris-Foulkes estimate   =  -21093.93438832 Ry
     estimated scf accuracy    <       0.00000005 Ry

     total magnetization       =   160.72 Bohr mag/cell
     absolute magnetization    =   168.43 Bohr mag/cell

     iteration # 50     ecut=    60.00 Ry     beta= 0.20
     Davidson diagonalization with overlap
     ethr =  4.41E-12,  avg # of iterations = 15.3

     negative rho (up, down):  1.132E-02 1.229E-01

     total cpu time spent up to now is    18162.0 secs

     total energy              =  -21093.93435993 Ry
     Harris-Foulkes estimate   =  -21093.93436422 Ry
     estimated scf accuracy    <       0.00000002 Ry

     total magnetization       =   160.72 Bohr mag/cell
     absolute magnetization    =   168.43 Bohr mag/cell

     iteration # 51     ecut=    60.00 Ry     beta= 0.20
     Davidson diagonalization with overlap
     ethr =  2.27E-12,  avg # of iterations = 13.1

     negative rho (up, down):  1.130E-02 1.227E-01

     total cpu time spent up to now is    18747.0 secs

     total energy              =  -21093.93437676 Ry
     Harris-Foulkes estimate   =  -21093.93435993 Ry
     estimated scf accuracy    <       0.00000003 Ry

     total magnetization       =   160.72 Bohr mag/cell
     absolute magnetization    =   168.43 Bohr mag/cell

     iteration # 52     ecut=    60.00 Ry     beta= 0.20
     Davidson diagonalization with overlap
     ethr =  2.27E-12,  avg # of iterations =  8.5

     negative rho (up, down):  1.130E-02 1.226E-01

     total cpu time spent up to now is    18989.0 secs

     total energy              =  -21093.93439157 Ry
     Harris-Foulkes estimate   =  -21093.93437675 Ry
     estimated scf accuracy    <       0.00000002 Ry

     total magnetization       =   160.72 Bohr mag/cell
     absolute magnetization    =   168.43 Bohr mag/cell

     iteration # 53     ecut=    60.00 Ry     beta= 0.20
     Davidson diagonalization with overlap
     ethr =  1.87E-12,  avg # of iterations = 10.6

     negative rho (up, down):  1.127E-02 1.224E-01

     Magnetic moment per site:
     atom:    1    charge:   12.9279    magn:    2.4275    constr:    0.0000
     atom:    2    charge:   12.9249    magn:    2.2620    constr:    0.0000
     atom:    3    charge:   12.9273    magn:    2.4333    constr:    0.0000
     atom:    4    charge:   12.9214    magn:    2.2582    constr:    0.0000
     atom:    5    charge:   12.9268    magn:    2.2337    constr:    0.0000
     atom:    6    charge:   12.9315    magn:    2.4151    constr:    0.0000
     atom:    7    charge:   12.9231    magn:    2.2368    constr:    0.0000
     atom:    8    charge:   12.9292    magn:    2.4432    constr:    0.0000
     atom:    9    charge:   12.9282    magn:    2.4262    constr:    0.0000
     atom:   10    charge:   12.9275    magn:    2.4330    constr:    0.0000
     atom:   11    charge:   12.9212    magn:    2.2663    constr:    0.0000
     atom:   12    charge:   12.9227    magn:    2.2546    constr:    0.0000
     atom:   13    charge:   12.9229    magn:    2.2505    constr:    0.0000
     atom:   14    charge:   12.9271    magn:    2.2025    constr:    0.0000
     atom:   15    charge:   12.9343    magn:    2.4005    constr:    0.0000
     atom:   16    charge:   12.9334    magn:    2.4169    constr:    0.0000
     atom:   17    charge:   12.9275    magn:    2.4334    constr:    0.0000
     atom:   18    charge:   12.9212    magn:    2.2582    constr:    0.0000
     atom:   19    charge:   12.9275    magn:    2.4334    constr:    0.0000
     atom:   20    charge:   12.9222    magn:    2.2492    constr:    0.0000
     atom:   21    charge:   12.9233    magn:    2.2366    constr:    0.0000
     atom:   22    charge:   12.9292    magn:    2.4433    constr:    0.0000
     atom:   23    charge:   12.9233    magn:    2.2366    constr:    0.0000
     atom:   24    charge:   12.9342    magn:    1.9284    constr:    0.0000
     atom:   25    charge:   12.9264    magn:    2.4403    constr:    0.0000
     atom:   26    charge:   12.9277    magn:    2.4268    constr:    0.0000
     atom:   27    charge:   12.9202    magn:    2.2665    constr:    0.0000
     atom:   28    charge:   12.9212    magn:    2.2663    constr:    0.0000
     atom:   29    charge:   12.9268    magn:    2.2839    constr:    0.0000
     atom:   30    charge:   12.9285    magn:    2.1825    constr:    0.0000
     atom:   31    charge:   12.9209    magn:    2.3244    constr:    0.0000
     atom:   32    charge:   12.9343    magn:    2.4002    constr:    0.0000
     atom:   33    charge:   12.9276    magn:    2.4274    constr:    0.0000
     atom:   34    charge:   12.9212    magn:    2.2582    constr:    0.0000
     atom:   35    charge:   12.9276    magn:    2.4274    constr:    0.0000
     atom:   36    charge:   12.9240    magn:    2.2620    constr:    0.0000
     atom:   37    charge:   12.9265    magn:    2.2341    constr:    0.0000
     atom:   38    charge:   12.9292    magn:    2.4431    constr:    0.0000
     atom:   39    charge:   12.9265    magn:    2.2341    constr:    0.0000
     atom:   40    charge:   12.9313    magn:    2.4145    constr:    0.0000
     atom:   41    charge:   12.9276    magn:    2.4395    constr:    0.0000
     atom:   42    charge:   12.9271    magn:    2.4267    constr:    0.0000
     atom:   43    charge:   12.9227    magn:    2.2546    constr:    0.0000
     atom:   44    charge:   12.9208    magn:    2.2662    constr:    0.0000
     atom:   45    charge:   12.9266    magn:    2.2163    constr:    0.0000
     atom:   46    charge:   12.9285    magn:    2.1821    constr:    0.0000
     atom:   47    charge:   12.9334    magn:    2.4168    constr:    0.0000
     atom:   48    charge:   12.9344    magn:    2.4006    constr:    0.0000
     atom:   49    charge:   12.9273    magn:    2.4333    constr:    0.0000
     atom:   50    charge:   12.9220    magn:    2.2491    constr:    0.0000
     atom:   51    charge:   12.9279    magn:    2.4275    constr:    0.0000
     atom:   52    charge:   12.9214    magn:    2.2582    constr:    0.0000
     atom:   53    charge:   12.9231    magn:    2.2369    constr:    0.0000
     atom:   54    charge:   12.9338    magn:    1.9284    constr:    0.0000
     atom:   55    charge:   12.9268    magn:    2.2337    constr:    0.0000
     atom:   56    charge:   12.9292    magn:    2.4430    constr:    0.0000
     atom:   57    charge:   12.9282    magn:    2.4262    constr:    0.0000
     atom:   58    charge:   12.9275    magn:    2.4330    constr:    0.0000
     atom:   59    charge:   12.9208    magn:    2.2662    constr:    0.0000
     atom:   60    charge:   12.9202    magn:    2.2665    constr:    0.0000
     atom:   61    charge:   12.9229    magn:    2.2505    constr:    0.0000
     atom:   62    charge:   12.9271    magn:    2.2025    constr:    0.0000
     atom:   63    charge:   12.9344    magn:    2.4008    constr:    0.0000
     atom:   64    charge:   12.9209    magn:    2.3219    constr:    0.0000
     atom:   65    charge:    1.3333    magn:   -0.0341    constr:    0.0000
     atom:   66    charge:    0.4294    magn:    0.0081    constr:    0.0000

     total cpu time spent up to now is    19244.2 secs

     End of self-consistent calculation

 ------ SPIN UP ------------


          k = 0.0000 0.0000 0.0000 (128403 PWs)   bands (ev):

  -100.3767-100.3745-100.3258-100.3208-100.3193-100.3146-100.3145-100.3003
  -100.2980-100.2943-100.2940-100.2921-100.2876-100.2875-100.2835-100.2791
  -100.2775-100.2773-100.2732-100.2699-100.2690-100.2680-100.2674-100.2643
  -100.2642-100.2639-100.2638-100.2605-100.2559-100.2527-100.2241-100.2228
  -100.2000-100.1810-100.1691-100.1679-100.1674-100.1613-100.1571-100.1526
  -100.1464-100.1452-100.1446-100.1446-100.1425-100.1390-100.1388-100.1385
  -100.1381-100.1350-100.1347-100.1291-100.1277-100.1275-100.1245-100.1232
  -100.1212-100.1168-100.1115-100.1114-100.1058-100.1015-100.0952-100.0866
   -66.5630 -66.5526 -66.5228 -66.5146 -66.5138 -66.5129 -66.5101 -66.5022
   -66.5021 -66.4892 -66.4848 -66.4806 -66.4785 -66.4781 -66.4765 -66.4745
   -66.4745 -66.4728 -66.4680 -66.4671 -66.4662 -66.4658 -66.4656 -66.4636
   -66.4623 -66.4589 -66.4574 -66.4571 -66.4525 -66.4518 -66.4483 -66.4444
   -66.4356 -66.4350 -66.4319 -66.4266 -66.4252 -66.4242 -66.4146 -66.4100
   -66.4028 -66.4013 -66.3993 -66.3988 -66.3987 -66.3976 -66.3700 -66.3592
   -66.3521 -66.3480 -66.3470 -66.3397 -66.3373 -66.3328 -66.3322 -66.3322
   -66.3287 -66.3278 -66.3244 -66.3233 -66.3207 -66.3204 -66.3194 -66.3175
   -66.3161 -66.3122 -66.3106 -66.3102 -66.3046 -66.3031 -66.2999 -66.2992
   -66.2983 -66.2893 -66.2858 -66.2848 -66.2812 -66.2805 -66.2740 -66.2733
   -66.2671 -66.2664 -66.2663 -66.2617 -66.2616 -66.2592 -66.2591 -66.2590
   -66.2574 -66.2568 -66.2551 -66.2532 -66.2507 -66.2496 -66.2485 -66.2433
   -66.2414 -66.2401 -66.2386 -66.2316 -66.2262 -66.2261 -66.2236 -66.2214
   -66.2191 -66.2145 -66.2120 -66.2072 -66.2072 -66.2058 -66.2049 -66.2016
   -66.2015 -66.1992 -66.1961 -66.1945 -66.1937 -66.1915 -66.1889 -66.1879
   -66.1865 -66.1842 -66.1833 -66.1823 -66.1814 -66.1807 -66.1784 -66.1771
   -66.1747 -66.1733 -66.1729 -66.1681 -66.1624 -66.1614 -66.1586 -66.1570
   -66.1569 -66.1539 -66.1484 -66.1479 -66.1430 -66.1419 -66.1405 -66.1403
   -66.1394 -66.1394 -66.1264 -66.1254 -66.1248 -66.1225 -66.1176 -66.1149
   -66.1144 -66.1097 -66.1094 -66.1084 -66.1008 -66.0987 -66.0945 -66.0928
   -66.0925 -66.0908 -66.0897 -66.0891 -66.0869 -66.0845 -66.0809 -66.0757
   -66.0747 -66.0742 -66.0737 -66.0722 -66.0704 -66.0653 -66.0600 -66.0583
   -66.0530 -66.0521 -66.0497 -66.0478 -66.0462 -66.0426 -66.0417 -66.0390
   -66.0383 -66.0378 -66.0346 -66.0326 -66.0323 -66.0308 -66.0259 -66.0230
   -28.2091 -20.1897 -19.8032 -18.7710 -18.4811 -18.4301 -18.3972 -18.3478
   -17.9686 -17.9092 -17.7027 -17.6943 -17.4583 -17.4204 -17.2822 -17.2470
   -17.0840 -16.9983 -16.9548 -16.9181 -16.7908 -16.7882 -16.7428 -16.7394
   -16.7230 -16.6840 -16.6595 -16.6022 -16.5986 -16.3608 -16.3299 -16.3184
   -16.3179 -16.2775 -16.2410 -16.2353 -16.2149 -16.2145 -16.2105 -16.1940
   -16.1898 -16.1894 -16.1892 -16.1809 -16.1790 -16.1774 -16.1540 -16.1508
   -16.1328 -16.1314 -16.1208 -16.1089 -16.1011 -16.0973 -16.0797 -16.0546
   -16.0264 -16.0118 -16.0004 -15.9431 -15.9344 -15.9314 -15.9184 -15.9140
   -15.8352 -15.8204 -15.6430 -15.6353 -15.6102 -15.6082 -15.6068 -15.5840
   -15.5247 -15.4807 -15.4648 -15.4531 -15.4469 -15.4381 -15.4323 -15.4303
   -15.4169 -15.4064 -15.3968 -15.3954 -15.3889 -15.3857 -15.3814 -15.3788
   -15.3763 -15.3715 -15.3674 -15.3546 -15.3543 -15.3507 -15.3458 -15.3343
   -15.3120 -15.3021 -15.3010 -15.2911 -15.2897 -15.2773 -15.2724 -15.2683
   -15.2619 -15.2423 -15.2403 -15.2365 -15.2357 -15.2297 -15.2196 -15.1632
   -15.1534 -15.0788 -15.0578 -15.0564 -15.0548 -15.0506 -15.0014 -14.9864
   -14.9448 -14.9312 -14.8671 -14.8647 -14.8568 -14.8514 -14.8457 -14.8450
   -14.8386 -14.8114 -14.8043 -14.7850 -14.7839 -14.7615 -14.7523 -14.7442
   -14.7315 -14.7310 -14.7190 -14.7171 -14.7103 -14.7091 -14.7064 -14.6962
   -14.6923 -14.6551 -14.6504 -14.6276 -14.6209 -14.5574 -14.5531 -14.5526
   -14.5519 -14.5304 -14.5117 -14.5078 -14.4970 -14.4929 -14.4890 -14.4712
   -14.4381 -14.4365 -14.4352 -14.4095 -14.4084 -14.4064 -14.4049 -14.4015
   -14.3731 -14.3639 -14.3636 -14.3281 -14.3173 -14.3121 -14.3049 -14.3046
   -14.2991 -14.2855 -14.2840 -14.2754 -14.2703 -14.2693 -14.2522 -14.2503
   -14.2218 -14.2167 -14.1517 -14.1447 -14.1422 -14.0324 -14.0260 -13.8852
   -13.8733 -13.8692 -13.7589 -13.7478 -13.7463 -13.7356 -13.7333 -13.7310
   -13.7262 -13.7202 -13.7106 -13.6917 -13.6794 -13.6746 -13.6682 -13.6567
   -13.6180 -13.6078 -13.5965 -13.5783 -13.5771 -13.5621 -13.5599 -13.5511
   -13.5436 -13.5325 -13.5324 -13.5293 -13.5212 -13.5207 -13.4916 -13.4889
   -13.4770 -13.4680 -13.4573 -13.4530 -13.4397 -13.4369 -13.4311 -13.4291
   -13.4059 -13.4054 -13.3986 -13.3979 -13.3961 -13.3913 -13.3733 -13.3684
   -13.3682 -13.3453 -13.3366 -13.3317 -13.3280 -13.3267 -13.3250 -13.3183
   -13.3175 -13.3128 -13.3114 -13.3093 -13.3034 -13.3019 -13.3011 -13.2952
   -13.2945 -13.2910 -13.2810 -13.2790 -13.2746 -13.2669 -13.2642 -13.2628
   -13.2577 -13.2368 -13.2329 -13.2298 -13.2223 -13.2112 -13.2029 -13.1967
   -13.1964 -13.1944 -13.1927 -13.1887 -13.1829 -13.1782 -13.1753 -13.1741
   -13.1498 -13.1450 -13.1201 -13.1168 -13.1014 -13.0895 -13.0771 -13.0757
   -13.0645 -13.0568 -13.0514 -13.0430 -12.9713 -12.9688 -12.9390 -12.9389
   -12.9336 -12.9241 -12.9190 -12.9107 -12.9077 -12.9021 -12.9000 -12.8992
   -12.8935 -12.8770 -12.8759 -12.8729 -12.8591 -12.8452 -12.8431 -12.8315
   -12.8314 -12.7933 -12.7684 -12.7431 -12.6354 -12.5737 -12.4425 -12.4346
   -12.4326 -12.4152 -12.3467 -12.3464 -12.3237 -12.3115 -12.3099 -12.2652
   -12.2531 -12.2196 -12.2052 -12.1836 -12.1747 -12.1682 -12.1386 -12.1085
   -12.0942 -12.0791 -12.0572 -11.9641 -11.9607 -11.9244 -11.9199 -11.8556
   -11.8245 -11.6982 -11.5843 -11.5552 -11.4461 -11.3571 -11.1440 -11.1214
   -11.1049 -11.0981 -10.8703 -10.8105 -10.5881 -10.2486 -10.2171 -10.2120
   -10.2091 -10.2033

          k = 0.0000 0.2652 0.0000 (128375 PWs)   bands (ev):

  -100.3766-100.3746-100.3253-100.3222-100.3179-100.3150-100.3133-100.3039
  -100.2971-100.2946-100.2934-100.2906-100.2881-100.2872-100.2842-100.2809
  -100.2776-100.2740-100.2720-100.2713-100.2695-100.2677-100.2667-100.2655
  -100.2651-100.2645-100.2630-100.2588-100.2561-100.2535-100.2242-100.2228
  -100.1997-100.1806-100.1735-100.1679-100.1639-100.1608-100.1563-100.1510
  -100.1496-100.1464-100.1454-100.1446-100.1406-100.1401-100.1391-100.1382
  -100.1363-100.1346-100.1341-100.1302-100.1279-100.1269-100.1253-100.1221
  -100.1219-100.1162-100.1131-100.1114-100.1054-100.1010-100.0944-100.0874
   -66.5621 -66.5528 -66.5223 -66.5171 -66.5128 -66.5111 -66.5100 -66.5036
   -66.5001 -66.4884 -66.4878 -66.4814 -66.4800 -66.4779 -66.4757 -66.4740
   -66.4735 -66.4701 -66.4689 -66.4667 -66.4664 -66.4654 -66.4635 -66.4626
   -66.4593 -66.4590 -66.4577 -66.4551 -66.4539 -66.4504 -66.4497 -66.4423
   -66.4361 -66.4302 -66.4292 -66.4279 -66.4224 -66.4158 -66.4136 -66.4075
   -66.4063 -66.4020 -66.3998 -66.3970 -66.3939 -66.3857 -66.3667 -66.3646
   -66.3613 -66.3525 -66.3476 -66.3467 -66.3445 -66.3437 -66.3419 -66.3350
   -66.3327 -66.3285 -66.3265 -66.3231 -66.3209 -66.3191 -66.3161 -66.3154
   -66.3145 -66.3139 -66.3130 -66.3105 -66.3094 -66.3065 -66.3021 -66.2988
   -66.2981 -66.2947 -66.2921 -66.2913 -66.2883 -66.2854 -66.2795 -66.2791
   -66.2746 -66.2718 -66.2699 -66.2667 -66.2657 -66.2643 -66.2582 -66.2580
   -66.2568 -66.2504 -66.2478 -66.2468 -66.2461 -66.2410 -66.2402 -66.2391
   -66.2383 -66.2338 -66.2331 -66.2299 -66.2293 -66.2259 -66.2229 -66.2199
   -66.2177 -66.2166 -66.2131 -66.2113 -66.2093 -66.2089 -66.2066 -66.2040
   -66.2028 -66.2012 -66.1993 -66.1973 -66.1960 -66.1922 -66.1899 -66.1875
   -66.1863 -66.1847 -66.1835 -66.1804 -66.1775 -66.1737 -66.1714 -66.1709
   -66.1700 -66.1668 -66.1643 -66.1638 -66.1615 -66.1590 -66.1563 -66.1548
   -66.1543 -66.1488 -66.1481 -66.1453 -66.1434 -66.1420 -66.1378 -66.1356
   -66.1334 -66.1299 -66.1287 -66.1283 -66.1266 -66.1205 -66.1162 -66.1157
   -66.1139 -66.1090 -66.1078 -66.1057 -66.1017 -66.1009 -66.0987 -66.0966
   -66.0920 -66.0914 -66.0882 -66.0859 -66.0818 -66.0806 -66.0774 -66.0751
   -66.0736 -66.0733 -66.0711 -66.0699 -66.0675 -66.0639 -66.0600 -66.0583
   -66.0574 -66.0545 -66.0525 -66.0507 -66.0475 -66.0466 -66.0443 -66.0431
   -66.0423 -66.0409 -66.0387 -66.0379 -66.0344 -66.0323 -66.0300 -66.0246
   -28.2091 -20.1143 -19.7714 -19.0730 -18.6733 -18.5470 -18.2863 -18.1133
   -17.9813 -17.7287 -17.7082 -17.5160 -17.4269 -17.3575 -17.2714 -17.2242
   -17.0769 -17.0238 -16.9504 -16.8773 -16.8260 -16.7550 -16.7248 -16.6954
   -16.6780 -16.6661 -16.6394 -16.6157 -16.5952 -16.4812 -16.4196 -16.3774
   -16.3518 -16.3337 -16.3288 -16.3165 -16.3032 -16.3010 -16.2872 -16.2731
   -16.2613 -16.2438 -16.2239 -16.2084 -16.1969 -16.1836 -16.1663 -16.1580
   -16.1353 -16.1269 -16.1203 -16.1037 -16.0752 -16.0462 -16.0395 -16.0336
   -16.0279 -16.0199 -15.9807 -15.9428 -15.9342 -15.8803 -15.8582 -15.8308
   -15.8251 -15.7900 -15.7333 -15.7160 -15.6775 -15.6440 -15.6056 -15.5673
   -15.5500 -15.5353 -15.5150 -15.4595 -15.4511 -15.4383 -15.4313 -15.4188
   -15.4147 -15.4072 -15.3973 -15.3897 -15.3874 -15.3763 -15.3699 -15.3603
   -15.3519 -15.3457 -15.3398 -15.3372 -15.3256 -15.3218 -15.3103 -15.3005
   -15.2987 -15.2921 -15.2876 -15.2782 -15.2749 -15.2667 -15.2567 -15.2416
   -15.2111 -15.2054 -15.1978 -15.1859 -15.1826 -15.1669 -15.1442 -15.1417
   -15.1332 -15.1274 -15.1040 -15.0771 -15.0308 -15.0219 -14.9883 -14.9735
   -14.9489 -14.9401 -14.9321 -14.9225 -14.9111 -14.8647 -14.8434 -14.8419
   -14.8281 -14.8211 -14.8201 -14.8065 -14.7920 -14.7896 -14.7836 -14.7740
   -14.7688 -14.7479 -14.7390 -14.7349 -14.7300 -14.7087 -14.6954 -14.6833
   -14.6779 -14.6381 -14.6253 -14.6110 -14.5821 -14.5742 -14.5712 -14.5623
   -14.5534 -14.5404 -14.5375 -14.5323 -14.5248 -14.5174 -14.5066 -14.5026
   -14.4956 -14.4858 -14.4765 -14.4656 -14.4604 -14.4412 -14.4310 -14.3919
   -14.3740 -14.3714 -14.3452 -14.3378 -14.3232 -14.3155 -14.3096 -14.2863
   -14.2830 -14.2651 -14.2470 -14.2328 -14.2041 -14.1868 -14.1682 -14.1355
   -14.1346 -14.1053 -14.0795 -14.0723 -14.0583 -14.0046 -13.9015 -13.8724
   -13.8640 -13.8634 -13.8219 -13.8070 -13.7968 -13.7854 -13.7533 -13.7470
   -13.7219 -13.7199 -13.7170 -13.7050 -13.6898 -13.6852 -13.6793 -13.6727
   -13.6594 -13.6381 -13.6293 -13.6279 -13.6033 -13.5856 -13.5621 -13.5444
   -13.5410 -13.5342 -13.5280 -13.5237 -13.5202 -13.5110 -13.5043 -13.4968
   -13.4945 -13.4860 -13.4769 -13.4700 -13.4421 -13.4249 -13.4201 -13.4185
   -13.4110 -13.4061 -13.3955 -13.3921 -13.3860 -13.3795 -13.3715 -13.3704
   -13.3610 -13.3581 -13.3520 -13.3435 -13.3389 -13.3325 -13.3253 -13.3184
   -13.3141 -13.2984 -13.2966 -13.2933 -13.2831 -13.2781 -13.2721 -13.2687
   -13.2652 -13.2631 -13.2589 -13.2496 -13.2442 -13.2416 -13.2399 -13.2264
   -13.2228 -13.2177 -13.2049 -13.2031 -13.2001 -13.1946 -13.1930 -13.1905
   -13.1828 -13.1782 -13.1559 -13.1549 -13.1517 -13.1424 -13.1301 -13.1241
   -13.1191 -13.0979 -13.0840 -13.0638 -13.0585 -13.0519 -13.0445 -13.0412
   -13.0300 -13.0257 -13.0122 -13.0026 -12.9966 -12.9926 -12.9886 -12.9721
   -12.9590 -12.9497 -12.9267 -12.9242 -12.9193 -12.9125 -12.8991 -12.8930
   -12.8811 -12.8741 -12.8740 -12.8583 -12.8492 -12.8288 -12.7809 -12.7526
   -12.7391 -12.7296 -12.6458 -12.6151 -12.5795 -12.4972 -12.4820 -12.4580
   -12.4548 -12.4243 -12.4183 -12.4150 -12.3927 -12.3618 -12.3373 -12.3318
   -12.3133 -12.3058 -12.2917 -12.2806 -12.2671 -12.2497 -12.2426 -12.2155
   -12.2073 -12.1935 -12.1353 -12.1188 -12.0902 -12.0427 -12.0326 -11.8923
   -11.8476 -11.6301 -11.4830 -11.4541 -11.3813 -11.2675 -11.2500 -11.1590
   -11.0551 -10.9504 -10.9080 -10.8421 -10.7956 -10.7314 -10.5653 -10.5220
   -10.4475 -10.3117

          k = 0.0000-0.5303 0.0000 (128388 PWs)   bands (ev):

  -100.3766-100.3746-100.3243-100.3237-100.3163-100.3162-100.3108-100.3080
  -100.2951-100.2949-100.2946-100.2897-100.2889-100.2869-100.2843-100.2815
  -100.2758-100.2756-100.2705-100.2695-100.2684-100.2681-100.2681-100.2670
  -100.2657-100.2647-100.2625-100.2564-100.2562-100.2554-100.2242-100.2227
  -100.1994-100.1798-100.1761-100.1680-100.1630-100.1582-100.1566-100.1523
  -100.1487-100.1472-100.1466-100.1440-100.1418-100.1396-100.1393-100.1381
  -100.1354-100.1338-100.1338-100.1303-100.1283-100.1274-100.1246-100.1227
  -100.1217-100.1151-100.1148-100.1117-100.1048-100.1009-100.0931-100.0885
   -66.5611 -66.5531 -66.5210 -66.5194 -66.5120 -66.5104 -66.5090 -66.5049
   -66.4975 -66.4919 -66.4865 -66.4830 -66.4795 -66.4794 -66.4745 -66.4728
   -66.4726 -66.4698 -66.4695 -66.4665 -66.4658 -66.4645 -66.4627 -66.4608
   -66.4603 -66.4581 -66.4548 -66.4546 -66.4512 -66.4509 -66.4487 -66.4393
   -66.4383 -66.4375 -66.4202 -66.4193 -66.4146 -66.4144 -66.4128 -66.4106
   -66.4097 -66.4020 -66.3925 -66.3891 -66.3810 -66.3768 -66.3742 -66.3721
   -66.3616 -66.3614 -66.3603 -66.3562 -66.3561 -66.3495 -66.3479 -66.3454
   -66.3435 -66.3300 -66.3296 -66.3222 -66.3213 -66.3179 -66.3176 -66.3137
   -66.3135 -66.3097 -66.3065 -66.3055 -66.3042 -66.3039 -66.2994 -66.2994
   -66.2974 -66.2963 -66.2947 -66.2916 -66.2915 -66.2886 -66.2841 -66.2800
   -66.2789 -66.2788 -66.2754 -66.2727 -66.2716 -66.2705 -66.2691 -66.2667
   -66.2628 -66.2569 -66.2524 -66.2464 -66.2439 -66.2418 -66.2392 -66.2389
   -66.2352 -66.2344 -66.2301 -66.2258 -66.2246 -66.2220 -66.2217 -66.2193
   -66.2106 -66.2093 -66.2066 -66.2040 -66.2037 -66.2026 -66.2019 -66.2012
   -66.2000 -66.1999 -66.1973 -66.1966 -66.1929 -66.1911 -66.1903 -66.1897
   -66.1859 -66.1850 -66.1816 -66.1812 -66.1808 -66.1775 -66.1748 -66.1736
   -66.1682 -66.1660 -66.1636 -66.1636 -66.1596 -66.1551 -66.1546 -66.1516
   -66.1507 -66.1482 -66.1476 -66.1400 -66.1374 -66.1351 -66.1345 -66.1336
   -66.1296 -66.1293 -66.1276 -66.1261 -66.1239 -66.1237 -66.1233 -66.1206
   -66.1133 -66.1128 -66.1083 -66.1039 -66.1021 -66.0967 -66.0960 -66.0957
   -66.0902 -66.0866 -66.0791 -66.0780 -66.0775 -66.0774 -66.0751 -66.0749
   -66.0733 -66.0700 -66.0687 -66.0649 -66.0639 -66.0621 -66.0616 -66.0598
   -66.0596 -66.0563 -66.0559 -66.0547 -66.0530 -66.0524 -66.0522 -66.0495
   -66.0492 -66.0477 -66.0456 -66.0422 -66.0380 -66.0326 -66.0312 -66.0253
   -28.2091 -20.0235 -19.6382 -19.4810 -18.5397 -18.4981 -18.4630 -18.2688
   -17.7834 -17.6507 -17.6077 -17.5038 -17.4139 -17.2297 -17.1049 -17.0912
   -17.0367 -16.9993 -16.9487 -16.9336 -16.8368 -16.7826 -16.7606 -16.7210
   -16.6634 -16.6363 -16.5724 -16.5552 -16.5484 -16.5348 -16.5282 -16.5162
   -16.5107 -16.4978 -16.4840 -16.4740 -16.4049 -16.3960 -16.3442 -16.2947
   -16.2820 -16.2071 -16.1884 -16.1802 -16.1770 -16.1682 -16.1042 -16.0972
   -16.0935 -16.0825 -16.0818 -16.0722 -16.0615 -16.0604 -16.0519 -16.0478
   -15.9973 -15.9883 -15.9401 -15.9290 -15.9196 -15.9014 -15.8895 -15.8778
   -15.8150 -15.8094 -15.7769 -15.7541 -15.7160 -15.7144 -15.7041 -15.6519
   -15.6218 -15.5499 -15.4839 -15.4678 -15.4399 -15.4356 -15.4252 -15.4125
   -15.4072 -15.3914 -15.3873 -15.3745 -15.3742 -15.3670 -15.3611 -15.3598
   -15.3489 -15.3343 -15.3262 -15.3252 -15.3232 -15.3187 -15.2959 -15.2955
   -15.2833 -15.2781 -15.2257 -15.2245 -15.2069 -15.1943 -15.1908 -15.1761
   -15.1652 -15.1516 -15.1511 -15.1433 -15.1363 -15.1289 -15.1269 -15.1261
   -15.1115 -15.1095 -15.1039 -15.0814 -15.0709 -15.0611 -15.0569 -15.0300
   -15.0208 -14.9581 -14.9220 -14.9072 -14.8504 -14.8479 -14.8314 -14.8196
   -14.8090 -14.8065 -14.8002 -14.7973 -14.7899 -14.7885 -14.7825 -14.7787
   -14.7689 -14.7651 -14.7642 -14.7494 -14.7443 -14.7349 -14.7264 -14.7194
   -14.7069 -14.7027 -14.6965 -14.6907 -14.6583 -14.6511 -14.6323 -14.6232
   -14.6091 -14.6023 -14.5877 -14.5833 -14.5697 -14.5651 -14.5505 -14.5419
   -14.5145 -14.5121 -14.4834 -14.4754 -14.4378 -14.4370 -14.4070 -14.3874
   -14.3516 -14.3241 -14.3115 -14.2982 -14.2908 -14.2870 -14.2769 -14.2654
   -14.2521 -14.2457 -14.1789 -14.1640 -14.1049 -14.0146 -14.0060 -13.9961
   -13.9946 -13.9842 -13.9499 -13.9448 -13.9331 -13.9298 -13.9106 -13.8917
   -13.8593 -13.8559 -13.8417 -13.8411 -13.8312 -13.8259 -13.8024 -13.7992
   -13.7907 -13.7824 -13.7775 -13.7683 -13.7295 -13.7133 -13.6910 -13.6702
   -13.6550 -13.6480 -13.6446 -13.6350 -13.6158 -13.6123 -13.6084 -13.6027
   -13.5630 -13.5600 -13.5354 -13.5232 -13.5074 -13.5036 -13.4994 -13.4983
   -13.4955 -13.4933 -13.4840 -13.4814 -13.4795 -13.4700 -13.4644 -13.4630
   -13.4613 -13.4501 -13.4486 -13.4358 -13.4256 -13.4237 -13.3647 -13.3606
   -13.3482 -13.3470 -13.3387 -13.3300 -13.3265 -13.3224 -13.3209 -13.3032
   -13.3021 -13.2911 -13.2899 -13.2791 -13.2782 -13.2772 -13.2669 -13.2657
   -13.2605 -13.2585 -13.2494 -13.2386 -13.2347 -13.2279 -13.2149 -13.2133
   -13.2051 -13.2002 -13.1800 -13.1762 -13.1607 -13.1553 -13.1418 -13.1388
   -13.1312 -13.1246 -13.1146 -13.0974 -13.0966 -13.0949 -13.0651 -13.0556
   -13.0508 -13.0506 -13.0477 -13.0434 -13.0430 -13.0363 -13.0304 -13.0298
   -13.0230 -13.0182 -13.0120 -13.0112 -13.0060 -13.0046 -12.9957 -12.9944
   -12.9915 -12.9520 -12.9353 -12.9302 -12.9144 -12.8500 -12.8465 -12.8158
   -12.8063 -12.7703 -12.7682 -12.7554 -12.7403 -12.7162 -12.6413 -12.6377
   -12.6191 -12.6132 -12.6002 -12.5790 -12.5713 -12.5623 -12.5377 -12.5252
   -12.5092 -12.5042 -12.4913 -12.4862 -12.4728 -12.4671 -12.4503 -12.3914
   -12.3683 -12.3665 -12.3335 -12.3234 -12.2999 -12.2994 -12.2976 -12.2785
   -12.2569 -12.2542 -12.2375 -12.2231 -12.2113 -12.1971 -12.1936 -12.0297
   -11.9272 -11.8994 -11.7329 -11.6013 -11.5233 -11.4530 -11.1907 -11.1304
   -10.9285 -10.9272 -10.8476 -10.8278 -10.5280 -10.5020 -10.4501 -10.4052
   -10.3842 -10.3740

          k = 0.2500-0.0884 0.0000 (128371 PWs)   bands (ev):

  -100.3766-100.3746-100.3253-100.3222-100.3179-100.3150-100.3133-100.3039
  -100.2971-100.2946-100.2934-100.2906-100.2881-100.2872-100.2842-100.2809
  -100.2776-100.2740-100.2720-100.2713-100.2695-100.2677-100.2667-100.2655
  -100.2651-100.2645-100.2630-100.2588-100.2561-100.2535-100.2242-100.2228
  -100.1997-100.1806-100.1735-100.1679-100.1639-100.1608-100.1563-100.1510
  -100.1496-100.1464-100.1454-100.1447-100.1406-100.1401-100.1391-100.1382
  -100.1363-100.1346-100.1341-100.1302-100.1279-100.1269-100.1253-100.1221
  -100.1219-100.1162-100.1131-100.1114-100.1054-100.1010-100.0944-100.0874
   -66.5621 -66.5528 -66.5223 -66.5171 -66.5128 -66.5111 -66.5100 -66.5036
   -66.5001 -66.4884 -66.4878 -66.4814 -66.4800 -66.4780 -66.4757 -66.4740
   -66.4735 -66.4701 -66.4689 -66.4667 -66.4664 -66.4654 -66.4635 -66.4626
   -66.4593 -66.4590 -66.4577 -66.4551 -66.4539 -66.4504 -66.4497 -66.4423
   -66.4361 -66.4302 -66.4292 -66.4279 -66.4224 -66.4158 -66.4136 -66.4075
   -66.4064 -66.4020 -66.3998 -66.3970 -66.3939 -66.3857 -66.3667 -66.3646
   -66.3613 -66.3525 -66.3476 -66.3467 -66.3445 -66.3437 -66.3419 -66.3350
   -66.3327 -66.3285 -66.3265 -66.3231 -66.3209 -66.3191 -66.3161 -66.3154
   -66.3145 -66.3139 -66.3130 -66.3105 -66.3094 -66.3065 -66.3021 -66.2988
   -66.2980 -66.2947 -66.2921 -66.2913 -66.2883 -66.2854 -66.2795 -66.2791
   -66.2746 -66.2718 -66.2699 -66.2667 -66.2657 -66.2642 -66.2582 -66.2580
   -66.2568 -66.2504 -66.2478 -66.2468 -66.2461 -66.2410 -66.2402 -66.2391
   -66.2383 -66.2338 -66.2331 -66.2299 -66.2293 -66.2259 -66.2229 -66.2199
   -66.2177 -66.2166 -66.2131 -66.2113 -66.2093 -66.2089 -66.2065 -66.2040
   -66.2028 -66.2012 -66.1993 -66.1973 -66.1960 -66.1922 -66.1899 -66.1875
   -66.1863 -66.1847 -66.1835 -66.1804 -66.1775 -66.1737 -66.1714 -66.1709
   -66.1700 -66.1668 -66.1643 -66.1638 -66.1615 -66.1590 -66.1563 -66.1548
   -66.1543 -66.1488 -66.1481 -66.1453 -66.1434 -66.1420 -66.1378 -66.1356
   -66.1334 -66.1299 -66.1287 -66.1283 -66.1266 -66.1205 -66.1162 -66.1157
   -66.1139 -66.1090 -66.1078 -66.1057 -66.1017 -66.1009 -66.0987 -66.0966
   -66.0920 -66.0914 -66.0882 -66.0859 -66.0818 -66.0806 -66.0774 -66.0751
   -66.0736 -66.0733 -66.0711 -66.0699 -66.0675 -66.0639 -66.0600 -66.0582
   -66.0574 -66.0545 -66.0525 -66.0507 -66.0475 -66.0466 -66.0443 -66.0431
   -66.0422 -66.0409 -66.0387 -66.0379 -66.0344 -66.0323 -66.0300 -66.0246
   -28.2091 -20.1143 -19.7714 -19.0730 -18.6733 -18.5470 -18.2863 -18.1133
   -17.9813 -17.7287 -17.7082 -17.5160 -17.4269 -17.3575 -17.2714 -17.2242
   -17.0769 -17.0238 -16.9504 -16.8773 -16.8260 -16.7550 -16.7248 -16.6954
   -16.6780 -16.6662 -16.6394 -16.6157 -16.5952 -16.4812 -16.4196 -16.3774
   -16.3518 -16.3337 -16.3288 -16.3165 -16.3032 -16.3010 -16.2872 -16.2731
   -16.2613 -16.2438 -16.2239 -16.2084 -16.1969 -16.1835 -16.1663 -16.1580
   -16.1353 -16.1269 -16.1203 -16.1037 -16.0752 -16.0462 -16.0395 -16.0336
   -16.0279 -16.0199 -15.9807 -15.9428 -15.9342 -15.8803 -15.8582 -15.8308
   -15.8251 -15.7901 -15.7333 -15.7160 -15.6775 -15.6440 -15.6055 -15.5672
   -15.5500 -15.5353 -15.5150 -15.4595 -15.4511 -15.4383 -15.4313 -15.4188
   -15.4147 -15.4072 -15.3973 -15.3897 -15.3874 -15.3763 -15.3699 -15.3603
   -15.3519 -15.3457 -15.3398 -15.3372 -15.3256 -15.3218 -15.3103 -15.3005
   -15.2987 -15.2921 -15.2876 -15.2782 -15.2749 -15.2667 -15.2567 -15.2416
   -15.2111 -15.2054 -15.1978 -15.1859 -15.1826 -15.1669 -15.1442 -15.1417
   -15.1332 -15.1274 -15.1040 -15.0771 -15.0308 -15.0219 -14.9883 -14.9736
   -14.9489 -14.9401 -14.9321 -14.9225 -14.9111 -14.8647 -14.8434 -14.8419
   -14.8281 -14.8211 -14.8201 -14.8065 -14.7920 -14.7896 -14.7836 -14.7740
   -14.7688 -14.7479 -14.7390 -14.7349 -14.7300 -14.7087 -14.6954 -14.6833
   -14.6779 -14.6381 -14.6253 -14.6110 -14.5821 -14.5742 -14.5711 -14.5623
   -14.5534 -14.5404 -14.5375 -14.5324 -14.5248 -14.5174 -14.5066 -14.5026
   -14.4956 -14.4858 -14.4765 -14.4656 -14.4604 -14.4412 -14.4310 -14.3919
   -14.3740 -14.3714 -14.3452 -14.3378 -14.3232 -14.3155 -14.3096 -14.2863
   -14.2830 -14.2651 -14.2470 -14.2328 -14.2041 -14.1868 -14.1682 -14.1355
   -14.1345 -14.1052 -14.0795 -14.0723 -14.0583 -14.0046 -13.9015 -13.8724
   -13.8639 -13.8634 -13.8219 -13.8070 -13.7968 -13.7854 -13.7533 -13.7470
   -13.7219 -13.7199 -13.7170 -13.7050 -13.6898 -13.6852 -13.6793 -13.6727
   -13.6594 -13.6381 -13.6293 -13.6279 -13.6033 -13.5856 -13.5621 -13.5444
   -13.5410 -13.5342 -13.5280 -13.5237 -13.5202 -13.5110 -13.5043 -13.4968
   -13.4945 -13.4860 -13.4769 -13.4700 -13.4422 -13.4249 -13.4201 -13.4185
   -13.4110 -13.4061 -13.3954 -13.3921 -13.3860 -13.3795 -13.3715 -13.3704
   -13.3610 -13.3581 -13.3520 -13.3435 -13.3389 -13.3325 -13.3253 -13.3184
   -13.3141 -13.2984 -13.2966 -13.2933 -13.2831 -13.2782 -13.2721 -13.2687
   -13.2652 -13.2631 -13.2589 -13.2496 -13.2442 -13.2416 -13.2399 -13.2264
   -13.2228 -13.2178 -13.2049 -13.2031 -13.2001 -13.1946 -13.1929 -13.1905
   -13.1828 -13.1782 -13.1559 -13.1549 -13.1517 -13.1424 -13.1301 -13.1241
   -13.1191 -13.0979 -13.0840 -13.0638 -13.0585 -13.0519 -13.0445 -13.0412
   -13.0300 -13.0257 -13.0122 -13.0026 -12.9966 -12.9926 -12.9886 -12.9721
   -12.9590 -12.9497 -12.9267 -12.9242 -12.9193 -12.9125 -12.8991 -12.8930
   -12.8811 -12.8741 -12.8740 -12.8583 -12.8492 -12.8288 -12.7809 -12.7526
   -12.7391 -12.7296 -12.6458 -12.6151 -12.5795 -12.4972 -12.4820 -12.4580
   -12.4548 -12.4243 -12.4183 -12.4150 -12.3927 -12.3618 -12.3373 -12.3318
   -12.3133 -12.3058 -12.2917 -12.2806 -12.2671 -12.2497 -12.2426 -12.2155
   -12.2073 -12.1935 -12.1353 -12.1188 -12.0902 -12.0427 -12.0326 -11.8924
   -11.8476 -11.6301 -11.4830 -11.4541 -11.3813 -11.2675 -11.2499 -11.1590
   -11.0551 -10.9504 -10.9080 -10.8421 -10.7956 -10.7315 -10.5653 -10.5220
   -10.4474 -10.3114

          k = 0.2500 0.1768 0.0000 (128340 PWs)   bands (ev):

  -100.3766-100.3746-100.3254-100.3210-100.3195-100.3146-100.3125-100.3037
  -100.2978-100.2960-100.2951-100.2924-100.2868-100.2865-100.2808-100.2775
  -100.2773-100.2772-100.2747-100.2698-100.2692-100.2691-100.2665-100.2663
  -100.2648-100.2636-100.2624-100.2574-100.2564-100.2549-100.2242-100.2227
  -100.1995-100.1802-100.1732-100.1684-100.1659-100.1617-100.1563-100.1480
  -100.1469-100.1462-100.1449-100.1431-100.1427-100.1405-100.1398-100.1389
  -100.1377-100.1347-100.1338-100.1310-100.1281-100.1262-100.1238-100.1235
  -100.1223-100.1158-100.1144-100.1109-100.1042-100.1009-100.0942-100.0880
   -66.5615 -66.5530 -66.5222 -66.5171 -66.5134 -66.5105 -66.5096 -66.5007
   -66.5006 -66.4904 -66.4872 -66.4814 -66.4797 -66.4776 -66.4768 -66.4731
   -66.4718 -66.4714 -66.4686 -66.4673 -66.4672 -66.4658 -66.4612 -66.4610
   -66.4590 -66.4586 -66.4579 -66.4549 -66.4536 -66.4528 -66.4465 -66.4398
   -66.4378 -66.4322 -66.4244 -66.4228 -66.4161 -66.4152 -66.4078 -66.4029
   -66.4013 -66.3963 -66.3931 -66.3923 -66.3919 -66.3903 -66.3678 -66.3672
   -66.3621 -66.3585 -66.3542 -66.3520 -66.3514 -66.3490 -66.3464 -66.3450
   -66.3384 -66.3348 -66.3332 -66.3320 -66.3281 -66.3224 -66.3196 -66.3163
   -66.3147 -66.3140 -66.3124 -66.3117 -66.3097 -66.3062 -66.3034 -66.3008
   -66.2995 -66.2952 -66.2917 -66.2911 -66.2844 -66.2840 -66.2827 -66.2797
   -66.2763 -66.2743 -66.2728 -66.2704 -66.2664 -66.2633 -66.2608 -66.2567
   -66.2536 -66.2521 -66.2499 -66.2469 -66.2445 -66.2434 -66.2414 -66.2382
   -66.2353 -66.2326 -66.2285 -66.2269 -66.2258 -66.2244 -66.2198 -66.2192
   -66.2177 -66.2161 -66.2156 -66.2132 -66.2120 -66.2100 -66.2088 -66.2074
   -66.2055 -66.2028 -66.2005 -66.1944 -66.1896 -66.1874 -66.1874 -66.1863
   -66.1843 -66.1835 -66.1804 -66.1764 -66.1744 -66.1731 -66.1720 -66.1711
   -66.1697 -66.1669 -66.1629 -66.1604 -66.1589 -66.1572 -66.1539 -66.1487
   -66.1480 -66.1465 -66.1455 -66.1399 -66.1396 -66.1376 -66.1355 -66.1342
   -66.1318 -66.1311 -66.1281 -66.1251 -66.1249 -66.1222 -66.1217 -66.1215
   -66.1130 -66.1085 -66.1072 -66.0995 -66.0972 -66.0966 -66.0927 -66.0908
   -66.0904 -66.0878 -66.0877 -66.0841 -66.0815 -66.0795 -66.0793 -66.0760
   -66.0754 -66.0736 -66.0732 -66.0716 -66.0658 -66.0628 -66.0602 -66.0581
   -66.0580 -66.0554 -66.0552 -66.0523 -66.0512 -66.0485 -66.0471 -66.0461
   -66.0441 -66.0431 -66.0422 -66.0411 -66.0399 -66.0378 -66.0342 -66.0282
   -28.2091 -20.0936 -19.7507 -18.8073 -18.7787 -18.7658 -18.5798 -17.9305
   -17.9076 -17.7524 -17.7021 -17.6542 -17.4056 -17.3299 -17.2701 -17.1810
   -16.9816 -16.9616 -16.8660 -16.7503 -16.7451 -16.7426 -16.6925 -16.6800
   -16.6334 -16.6187 -16.6163 -16.5967 -16.5210 -16.5060 -16.4921 -16.4753
   -16.3911 -16.3841 -16.3724 -16.3505 -16.2980 -16.2943 -16.2849 -16.2592
   -16.2525 -16.2469 -16.2410 -16.2279 -16.2243 -16.2165 -16.2163 -16.2138
   -16.1719 -16.1634 -16.1395 -16.1365 -16.1174 -16.1008 -16.0740 -16.0428
   -16.0068 -15.9933 -15.9757 -15.8879 -15.8803 -15.8487 -15.8366 -15.8307
   -15.7622 -15.7607 -15.7407 -15.7405 -15.7113 -15.6826 -15.6541 -15.5741
   -15.5734 -15.5429 -15.4950 -15.4721 -15.4659 -15.4610 -15.4458 -15.4443
   -15.4375 -15.4368 -15.4296 -15.4240 -15.4229 -15.4145 -15.4094 -15.4081
   -15.3994 -15.3750 -15.3685 -15.3598 -15.3190 -15.3071 -15.2978 -15.2833
   -15.2666 -15.2528 -15.2353 -15.2344 -15.2272 -15.2220 -15.2203 -15.2139
   -15.2017 -15.1800 -15.1784 -15.1470 -15.1357 -15.1099 -15.0977 -15.0900
   -15.0777 -15.0639 -15.0434 -15.0338 -15.0296 -15.0247 -15.0201 -15.0131
   -15.0104 -15.0025 -14.9975 -14.9746 -14.9535 -14.9278 -14.9218 -14.9065
   -14.8891 -14.8474 -14.8293 -14.8255 -14.8185 -14.8171 -14.8033 -14.7887
   -14.7723 -14.7596 -14.7374 -14.7291 -14.7249 -14.7206 -14.7073 -14.7006
   -14.6774 -14.6724 -14.6557 -14.6501 -14.6289 -14.6222 -14.5949 -14.5742
   -14.5600 -14.5487 -14.5272 -14.5260 -14.5243 -14.5202 -14.4987 -14.4986
   -14.4793 -14.4498 -14.4309 -14.4266 -14.4213 -14.4199 -14.4113 -14.4043
   -14.3937 -14.3923 -14.3835 -14.3779 -14.3710 -14.3659 -14.3567 -14.3487
   -14.3319 -14.3082 -14.2771 -14.2607 -14.2504 -14.1184 -14.0968 -14.0788
   -14.0699 -14.0524 -14.0415 -13.9669 -13.9552 -13.9362 -13.9012 -13.8862
   -13.8595 -13.8367 -13.8178 -13.8164 -13.8140 -13.7881 -13.7550 -13.7389
   -13.7369 -13.7219 -13.7181 -13.7027 -13.7017 -13.6868 -13.6811 -13.6551
   -13.6430 -13.6384 -13.6348 -13.6237 -13.6176 -13.5951 -13.5937 -13.5872
   -13.5844 -13.5697 -13.5431 -13.5416 -13.5104 -13.4948 -13.4782 -13.4763
   -13.4699 -13.4675 -13.4671 -13.4525 -13.4488 -13.4460 -13.4387 -13.4336
   -13.4221 -13.4171 -13.3933 -13.3918 -13.3807 -13.3773 -13.3752 -13.3665
   -13.3586 -13.3577 -13.3484 -13.3411 -13.3360 -13.3283 -13.3079 -13.3001
   -13.2905 -13.2867 -13.2831 -13.2750 -13.2688 -13.2622 -13.2476 -13.2407
   -13.2222 -13.2198 -13.2174 -13.2155 -13.2091 -13.1986 -13.1962 -13.1774
   -13.1743 -13.1683 -13.1560 -13.1557 -13.1478 -13.1436 -13.1426 -13.1359
   -13.1353 -13.1294 -13.1292 -13.1260 -13.1127 -13.1123 -13.0980 -13.0963
   -13.0896 -13.0663 -13.0606 -13.0577 -13.0515 -13.0504 -13.0496 -13.0471
   -13.0312 -13.0286 -13.0174 -13.0159 -13.0052 -12.9952 -12.9778 -12.9769
   -12.9666 -12.9479 -12.9428 -12.9407 -12.8977 -12.8966 -12.8786 -12.8700
   -12.8542 -12.8416 -12.8383 -12.8244 -12.8191 -12.7659 -12.7442 -12.7283
   -12.7080 -12.7056 -12.6710 -12.6341 -12.5432 -12.5355 -12.5211 -12.4628
   -12.4624 -12.4333 -12.4092 -12.3633 -12.3481 -12.3218 -12.3099 -12.3093
   -12.3007 -12.2887 -12.2863 -12.2715 -12.2673 -12.2329 -12.2316 -12.1869
   -12.1761 -12.1142 -12.0883 -12.0695 -11.9760 -11.9604 -11.9569 -11.8683
   -11.8435 -11.6375 -11.6354 -11.4321 -11.3933 -11.2999 -11.2863 -11.2695
   -11.2137 -11.1708 -11.1685 -11.1636 -11.1181 -11.0258 -10.9514 -10.8910
   -10.6750 -10.5559

          k = 0.2500-0.6187 0.0000 (128424 PWs)   bands (ev):

  -100.3765-100.3746-100.3248-100.3226-100.3181-100.3150-100.3099-100.3067
  -100.3005-100.2957-100.2955-100.2895-100.2864-100.2836-100.2833-100.2801
  -100.2783-100.2754-100.2734-100.2721-100.2683-100.2678-100.2663-100.2658
  -100.2645-100.2635-100.2622-100.2576-100.2568-100.2555-100.2243-100.2227
  -100.1992-100.1790-100.1761-100.1703-100.1641-100.1595-100.1540-100.1500
  -100.1485-100.1467-100.1458-100.1447-100.1418-100.1408-100.1387-100.1382
  -100.1369-100.1342-100.1332-100.1308-100.1289-100.1264-100.1250-100.1224
  -100.1215-100.1165-100.1150-100.1113-100.1042-100.0999-100.0932-100.0891
   -66.5605 -66.5533 -66.5212 -66.5191 -66.5129 -66.5095 -66.5089 -66.5028
   -66.4972 -66.4905 -66.4891 -66.4849 -66.4792 -66.4768 -66.4744 -66.4735
   -66.4722 -66.4704 -66.4676 -66.4671 -66.4657 -66.4634 -66.4619 -66.4614
   -66.4605 -66.4583 -66.4575 -66.4563 -66.4503 -66.4481 -66.4455 -66.4407
   -66.4376 -66.4357 -66.4158 -66.4117 -66.4088 -66.4077 -66.4064 -66.4051
   -66.4003 -66.3985 -66.3928 -66.3866 -66.3830 -66.3817 -66.3749 -66.3717
   -66.3689 -66.3673 -66.3655 -66.3622 -66.3607 -66.3589 -66.3514 -66.3470
   -66.3425 -66.3406 -66.3364 -66.3293 -66.3269 -66.3254 -66.3223 -66.3190
   -66.3148 -66.3138 -66.3105 -66.3077 -66.3045 -66.3019 -66.2988 -66.2968
   -66.2957 -66.2949 -66.2928 -66.2923 -66.2913 -66.2893 -66.2879 -66.2825
   -66.2811 -66.2787 -66.2752 -66.2745 -66.2696 -66.2668 -66.2653 -66.2629
   -66.2596 -66.2584 -66.2567 -66.2524 -66.2510 -66.2444 -66.2411 -66.2390
   -66.2369 -66.2323 -66.2317 -66.2275 -66.2224 -66.2207 -66.2181 -66.2174
   -66.2103 -66.2097 -66.2084 -66.2065 -66.2037 -66.2026 -66.2017 -66.2002
   -66.1988 -66.1962 -66.1939 -66.1931 -66.1918 -66.1890 -66.1879 -66.1859
   -66.1836 -66.1819 -66.1801 -66.1790 -66.1760 -66.1750 -66.1723 -66.1713
   -66.1706 -66.1687 -66.1646 -66.1604 -66.1586 -66.1526 -66.1511 -66.1484
   -66.1460 -66.1434 -66.1401 -66.1385 -66.1373 -66.1357 -66.1348 -66.1339
   -66.1334 -66.1327 -66.1319 -66.1257 -66.1210 -66.1184 -66.1162 -66.1151
   -66.1127 -66.1080 -66.1059 -66.1038 -66.1026 -66.0925 -66.0896 -66.0884
   -66.0851 -66.0814 -66.0810 -66.0793 -66.0779 -66.0767 -66.0763 -66.0752
   -66.0726 -66.0704 -66.0702 -66.0677 -66.0642 -66.0634 -66.0622 -66.0614
   -66.0602 -66.0590 -66.0581 -66.0559 -66.0542 -66.0536 -66.0529 -66.0517
   -66.0507 -66.0489 -66.0472 -66.0462 -66.0427 -66.0399 -66.0384 -66.0311
   -28.2091 -20.0143 -19.5980 -19.3274 -19.0488 -18.4281 -18.3169 -18.1391
   -17.9583 -17.8241 -17.5718 -17.5120 -17.1847 -17.1449 -17.0509 -17.0226
   -17.0111 -16.9229 -16.9185 -16.8933 -16.7912 -16.7814 -16.7179 -16.7071
   -16.6828 -16.6443 -16.6178 -16.5896 -16.5642 -16.5532 -16.5244 -16.5157
   -16.5057 -16.4937 -16.4579 -16.4084 -16.3997 -16.3921 -16.3803 -16.3616
   -16.3341 -16.3055 -16.2883 -16.2831 -16.2653 -16.2109 -16.1691 -16.1614
   -16.1375 -16.1044 -16.0870 -16.0762 -16.0351 -16.0207 -15.9901 -15.9678
   -15.9441 -15.9331 -15.9142 -15.9033 -15.8813 -15.8662 -15.8566 -15.8416
   -15.8096 -15.7960 -15.7699 -15.7534 -15.7420 -15.7346 -15.6786 -15.6534
   -15.6304 -15.6240 -15.5764 -15.5179 -15.4871 -15.4717 -15.4591 -15.4533
   -15.4459 -15.4325 -15.4284 -15.4173 -15.4043 -15.3932 -15.3512 -15.3388
   -15.3188 -15.3063 -15.2988 -15.2891 -15.2754 -15.2648 -15.2533 -15.2409
   -15.2345 -15.2301 -15.2251 -15.2162 -15.2050 -15.2029 -15.1917 -15.1858
   -15.1669 -15.1573 -15.1464 -15.1414 -15.1188 -15.1120 -15.1034 -15.0925
   -15.0883 -15.0789 -15.0619 -15.0451 -15.0396 -15.0150 -15.0054 -14.9967
   -14.9909 -14.9777 -14.9719 -14.9682 -14.9566 -14.9488 -14.9421 -14.9287
   -14.9228 -14.9171 -14.9082 -14.8991 -14.8920 -14.8851 -14.8677 -14.8467
   -14.8285 -14.8062 -14.7883 -14.7659 -14.7175 -14.6947 -14.6826 -14.6676
   -14.6664 -14.6563 -14.6522 -14.6350 -14.6276 -14.6191 -14.6101 -14.6008
   -14.5886 -14.5864 -14.5796 -14.5764 -14.5621 -14.5590 -14.5473 -14.5265
   -14.5173 -14.5086 -14.5030 -14.4986 -14.4624 -14.4452 -14.3930 -14.3804
   -14.3614 -14.3508 -14.3228 -14.3121 -14.2852 -14.2647 -14.2525 -14.2244
   -14.2005 -14.1606 -14.1396 -14.1048 -14.0946 -14.0796 -14.0721 -14.0407
   -14.0016 -13.9817 -13.9759 -13.9450 -13.9215 -13.9145 -13.9087 -13.8971
   -13.8820 -13.8699 -13.8678 -13.8564 -13.8465 -13.8297 -13.7950 -13.7746
[...]
   -10.9809 -10.9685 -10.9555 -10.9550 -10.9489 -10.9314 -10.9277 -10.9173
   -10.9057 -10.8953 -10.8792 -10.8468 -10.8268 -10.8106 -10.7791 -10.7718
   -10.7472 -10.7385 -10.7198 -10.7093 -10.7006 -10.6883 -10.6800 -10.6671
   -10.6533 -10.6476 -10.6319 -10.6246 -10.6217 -10.6085 -10.5984 -10.5787
   -10.5758 -10.5658 -10.5545 -10.5419 -10.5363 -10.5186 -10.5080 -10.4945
   -10.4840 -10.4554 -10.4526 -10.4418 -10.4384 -10.4282 -10.4251 -10.4203
   -10.4114 -10.4050 -10.4036 -10.3890 -10.3766 -10.3630 -10.3561 -10.3521
   -10.3438 -10.3282 -10.3246 -10.3129 -10.3112 -10.2927 -10.2880 -10.2741
   -10.2700 -10.2491 -10.2385 -10.2286 -10.2205 -10.2100 -10.2075 -10.2008
   -10.1957 -10.1866 -10.1854 -10.1796 -10.1709 -10.1669 -10.1602 -10.1446
   -10.1308 -10.1269 -10.1232 -10.1047 -10.0929 -10.0882 -10.0812 -10.0802
   -10.0748 -10.0676 -10.0633 -10.0623 -10.0542 -10.0502 -10.0410 -10.0270
   -10.0240 -10.0204 -10.0072 -10.0041  -9.9917  -9.9873  -9.9842  -9.9698
    -9.9535  -9.9428  -9.9318  -9.9081  -9.8957  -9.8922  -9.8755  -9.8668
    -9.8599  -9.8493  -9.8436  -9.8352  -9.8259  -9.8187  -9.8006  -9.7885
    -9.7697  -9.7599  -9.7464  -9.7333  -9.7220  -9.7144  -9.6995  -9.6762
    -9.6063  -9.5708  -9.5240  -9.4817  -9.4573  -9.4265  -9.3527  -9.3051
    -9.2480  -9.2320

          k =-0.5000-0.3536 0.0000 (128560 PWs)   bands (ev):

   -97.7699 -97.7682 -97.4113 -97.4098 -97.3349 -97.3327 -97.3052 -97.3007
   -97.2889 -97.2837 -97.2778 -97.2766 -97.2719 -97.2677 -97.2674 -97.2667
   -97.2630 -97.2605 -97.2596 -97.2568 -97.2566 -97.2487 -97.2476 -97.2464
   -97.2449 -97.2433 -97.2428 -97.2413 -97.2407 -97.2403 -97.2391 -97.2373
   -97.2242 -97.2193 -97.2187 -97.2184 -97.2179 -97.2163 -97.2155 -97.2054
   -97.2031 -97.2024 -97.2024 -97.2020 -97.2020 -97.1992 -97.1991 -97.1923
   -97.1919 -97.1819 -97.1817 -97.1806 -97.1805 -97.1801 -97.1795 -97.1787
   -97.1781 -97.1781 -97.1754 -97.1704 -97.1584 -97.1576 -97.1575 -97.1573
   -64.2097 -64.1933 -63.8637 -63.8581 -63.7030 -63.6848 -63.6420 -63.6389
   -63.5658 -63.5647 -63.5642 -63.5621 -63.5568 -63.5564 -63.5543 -63.5489
   -63.5469 -63.5454 -63.5442 -63.5404 -63.5402 -63.5376 -63.5351 -63.5349
   -63.5342 -63.5293 -63.5259 -63.5242 -63.5221 -63.5176 -63.5142 -63.5125
   -63.5104 -63.5021 -63.5017 -63.5014 -63.4984 -63.4954 -63.4942 -63.4922
   -63.4845 -63.4780 -63.4759 -63.4748 -63.4706 -63.4697 -63.4648 -63.4641
   -63.4632 -63.4619 -63.4609 -63.4578 -63.4566 -63.4562 -63.4549 -63.4525
   -63.4498 -63.4495 -63.4492 -63.4475 -63.4457 -63.4454 -63.4450 -63.4419
   -63.4352 -63.4327 -63.4304 -63.4281 -63.4243 -63.4181 -63.4180 -63.4133
   -63.4045 -63.4016 -63.3980 -63.3895 -63.3836 -63.3815 -63.3798 -63.3797
   -63.3783 -63.3702 -63.3697 -63.3665 -63.3599 -63.3540 -63.3539 -63.3492
   -63.3479 -63.3473 -63.3455 -63.3450 -63.3417 -63.3391 -63.3381 -63.3365
   -63.3350 -63.3348 -63.3319 -63.3311 -63.3200 -63.3191 -63.3171 -63.3131
   -63.3127 -63.3081 -63.3061 -63.3050 -63.3043 -63.3035 -63.3014 -63.2998
   -63.2991 -63.2983 -63.2948 -63.2941 -63.2935 -63.2913 -63.2904 -63.2868
   -63.2861 -63.2767 -63.2764 -63.2746 -63.2739 -63.2699 -63.2683 -63.2679
   -63.2652 -63.2641 -63.2617 -63.2612 -63.2604 -63.2535 -63.2533 -63.2514
   -63.2508 -63.2481 -63.2467 -63.2456 -63.2450 -63.2439 -63.2419 -63.2408
   -63.2402 -63.2401 -63.2379 -63.2362 -63.2349 -63.2338 -63.2334 -63.2314
   -63.2270 -63.2269 -63.2267 -63.2238 -63.2238 -63.2207 -63.2178 -63.2166
   -63.2157 -63.2146 -63.2135 -63.2133 -63.2126 -63.2125 -63.2125 -63.2123
   -63.2113 -63.2112 -63.2099 -63.2091 -63.2059 -63.2058 -63.2042 -63.2026
   -63.2023 -63.1992 -63.1989 -63.1986 -63.1985 -63.1931 -63.1909 -63.1907
   -63.1895 -63.1879 -63.1863 -63.1850 -63.1833 -63.1829 -63.1797 -63.1783
   -28.2572 -19.7761 -19.2476 -19.1444 -18.6911 -18.6065 -18.0033 -17.8446
   -17.5641 -17.3040 -17.1419 -17.0037 -16.6630 -16.6456 -16.5943 -16.5350
   -16.1960 -16.1726 -15.8326 -15.8280 -15.8073 -15.7965 -15.7721 -15.7370
   -15.7147 -15.6961 -15.6763 -15.6348 -15.6259 -15.5795 -15.2770 -15.2538
   -15.2453 -15.2434 -15.2117 -15.1983 -15.0573 -15.0122 -14.7944 -14.7765
   -14.7720 -14.7470 -14.7359 -14.7182 -14.7079 -14.6840 -14.6469 -14.6365
   -14.6185 -14.5354 -14.4965 -14.4894 -14.4770 -14.4705 -14.4429 -14.3805
   -14.2290 -14.2230 -14.2092 -14.1940 -14.1810 -14.1743 -13.9755 -13.9577
   -13.9455 -13.9129 -13.9068 -13.8829 -13.7966 -13.7720 -13.7508 -13.7189
   -13.7159 -13.6869 -13.6785 -13.6754 -13.6716 -13.6608 -13.6479 -13.6445
   -13.6227 -13.6092 -13.5739 -13.5679 -13.5602 -13.5588 -13.5506 -13.5466
   -13.5420 -13.5282 -13.5039 -13.4391 -13.4247 -13.3478 -13.3338 -13.3260
   -13.2670 -13.2226 -13.2029 -13.2027 -13.1991 -13.1940 -13.1883 -13.1759
   -13.1672 -13.1550 -13.1505 -13.1254 -13.1244 -13.1220 -13.1187 -13.1122
   -13.0993 -13.0989 -13.0807 -13.0771 -13.0746 -13.0614 -13.0576 -13.0575
   -13.0561 -13.0514 -13.0456 -13.0424 -13.0310 -13.0233 -13.0191 -12.9948
   -12.9784 -12.9721 -12.9713 -12.9689 -12.9607 -12.9494 -12.9404 -12.9399
   -12.9365 -12.9116 -12.9053 -12.9046 -12.8493 -12.8428 -12.7625 -12.7374
   -12.7080 -12.6962 -12.6826 -12.6826 -12.6733 -12.6699 -12.6370 -12.6283
   -12.6213 -12.5776 -12.5456 -12.5307 -12.5180 -12.5076 -12.4884 -12.4758
   -12.4644 -12.4627 -12.4506 -12.4269 -12.4229 -12.4174 -12.3844 -12.3166
   -12.2849 -12.2646 -12.2342 -12.2115 -12.1780 -12.1725 -12.1656 -12.1597
   -12.1506 -12.1475 -12.1288 -12.1107 -12.0842 -12.0809 -12.0621 -12.0588
   -12.0482 -12.0282 -12.0129 -11.9944 -11.9699 -11.9057 -11.9037 -11.7658
   -11.7632 -11.7405 -11.6921 -11.6673 -11.6606 -11.6124 -11.4973 -11.4459
   -11.3889 -11.3807 -11.3594 -11.3349 -11.3304 -11.3160 -11.3060 -11.2847
   -11.2603 -11.2511 -11.2358 -11.2170 -11.2073 -11.2062 -11.1946 -11.1677
   -11.1037 -11.1016 -11.0906 -11.0893 -11.0687 -11.0456 -11.0334 -11.0261
   -11.0070 -11.0060 -10.9774 -10.9299 -10.9298 -10.9142 -10.9053 -10.8940
   -10.8908 -10.8844 -10.8843 -10.8690 -10.8629 -10.8578 -10.8069 -10.8015
   -10.7989 -10.7870 -10.7420 -10.7319 -10.7170 -10.7087 -10.7010 -10.6933
   -10.6827 -10.6690 -10.6083 -10.5933 -10.5836 -10.5661 -10.5390 -10.5249
   -10.5011 -10.4888 -10.4699 -10.4633 -10.4594 -10.4535 -10.4527 -10.4468
   -10.4320 -10.4238 -10.4106 -10.4008 -10.3939 -10.3848 -10.3833 -10.3821
   -10.3817 -10.3713 -10.3685 -10.3460 -10.3405 -10.3382 -10.3339 -10.3259
   -10.3162 -10.3104 -10.2995 -10.2942 -10.2903 -10.2886 -10.2823 -10.2796
   -10.2793 -10.2635 -10.2545 -10.2533 -10.2342 -10.2196 -10.2189 -10.2169
   -10.2161 -10.2031 -10.2015 -10.1942 -10.1833 -10.1679 -10.1669 -10.1511
   -10.1209 -10.1021 -10.0979 -10.0947 -10.0905 -10.0827 -10.0810 -10.0668
   -10.0536 -10.0524 -10.0337 -10.0264 -10.0261 -10.0246 -10.0155 -10.0119
   -10.0049 -10.0043 -10.0015  -9.9933  -9.9909  -9.9901  -9.9898  -9.9635
    -9.9571  -9.9540  -9.9507  -9.9447  -9.9397  -9.9358  -9.9264  -9.9263
    -9.9200  -9.9144  -9.9108  -9.8927  -9.8618  -9.8466  -9.8402  -9.8199
    -9.8185  -9.8005  -9.7265  -9.6904  -9.6172  -9.6062  -9.6051  -9.5854
    -9.5256  -9.5126  -9.3995  -9.3903  -9.3867  -9.3846  -9.3251  -9.3127
    -9.3070  -9.3051

     the Fermi energy is   -12.1495 ev

!    total energy              =  -21093.93501587 Ry
     Harris-Foulkes estimate   =  -21093.93501468 Ry
     estimated scf accuracy    <          5.6E-11 Ry

     The total energy is the sum of the following terms:

     one-electron contribution = -743273.56047378 Ry
     hartree contribution      =  371172.22784845 Ry
     xc contribution           =   -2234.14128835 Ry
     ewald contribution        =  358116.36295040 Ry
     Dispersion Correction     =      -1.39096757 Ry
     one-center paw contrib.   =   -4873.43497039 Ry
     smearing contrib. (-TS)   =       0.00188538 Ry

     total magnetization       =   161.11 Bohr mag/cell
     absolute magnetization    =   168.88 Bohr mag/cell

     convergence has been achieved in  23 iterations

     negative rho (up, down):  1.125E-02 1.223E-01

     Forces acting on atoms (cartesian axes, Ry/au):

     atom    1 type  1   force =     0.00049721   -0.00035225    0.00893289
     atom    2 type  1   force =     0.00181645   -0.00254337   -0.01231001
     atom    3 type  1   force =    -0.00043369   -0.00036963    0.00853966
     atom    4 type  1   force =     0.00054390    0.00036514   -0.00609137
     atom    5 type  1   force =    -0.00001907   -0.00001022   -0.00000002
     atom    6 type  1   force =     0.00000727   -0.00001413    0.00001247
     atom    7 type  1   force =     0.00001230   -0.00000598    0.00005318
     atom    8 type  1   force =    -0.00000806   -0.00001612   -0.00005101
     atom    9 type  1   force =    -0.00001173    0.00001135    0.00905625
     atom   10 type  1   force =    -0.00021144   -0.00015367    0.00864711
     atom   11 type  1   force =    -0.00044076    0.00138341   -0.00538349
     atom   12 type  1   force =     0.00094318    0.00077187   -0.00965500
     atom   13 type  1   force =    -0.00000288   -0.00000349   -0.00000224
     atom   14 type  1   force =     0.00000526   -0.00000089   -0.00000091
     atom   15 type  1   force =     0.00000396   -0.00004058    0.00002382
     atom   16 type  1   force =     0.00001412    0.00001637   -0.00001899
     atom   17 type  1   force =    -0.00048657   -0.00027616    0.00854770
     atom   18 type  1   force =     0.00055976    0.00039344   -0.00614184
     atom   19 type  1   force =     0.00044120    0.00035871    0.00853798
     atom   20 type  1   force =     0.00061300   -0.00082653   -0.01083809
     atom   21 type  1   force =     0.00000488    0.00000835    0.00005641
     atom   22 type  1   force =    -0.00001204   -0.00001706   -0.00005711
     atom   23 type  1   force =    -0.00001810   -0.00000613    0.00005536
     atom   24 type  1   force =     0.00008425   -0.00013023    0.00000492
     atom   25 type  1   force =     0.00001209    0.00000740    0.00768356
     atom   26 type  1   force =    -0.00067632    0.00093976    0.00961956
     atom   27 type  1   force =    -0.00007964   -0.00012969   -0.00504101
     atom   28 type  1   force =    -0.00113013    0.00091424   -0.00537960
     atom   29 type  1   force =    -0.00000373   -0.00000163    0.00002465
     atom   30 type  1   force =    -0.00000111   -0.00000357    0.00001683
     atom   31 type  1   force =     0.00003371    0.00000585    0.00005417
     atom   32 type  1   force =     0.00003223   -0.00002705    0.00002703
     atom   33 type  1   force =    -0.00048595    0.00033853    0.00889373
     atom   34 type  1   force =    -0.00053055   -0.00039061   -0.00613291
     atom   35 type  1   force =    -0.00018099    0.00056202    0.00891694
     atom   36 type  1   force =    -0.00194197    0.00272519   -0.01224491
     atom   37 type  1   force =     0.00000410    0.00001553   -0.00000023
     atom   38 type  1   force =     0.00000970    0.00000406   -0.00005532
     atom   39 type  1   force =    -0.00001874   -0.00000241    0.00000069
     atom   40 type  1   force =    -0.00002403    0.00002841    0.00004997
     atom   41 type  1   force =     0.00002219   -0.00003416    0.00794404
     atom   42 type  1   force =     0.00069125   -0.00093434    0.00971916
     atom   43 type  1   force =    -0.00104348   -0.00060770   -0.00964947
     atom   44 type  1   force =     0.00046561   -0.00138676   -0.00536340
     atom   45 type  1   force =    -0.00000451    0.00000254    0.00001389
     atom   46 type  1   force =    -0.00001049    0.00001056    0.00003151
     atom   47 type  1   force =    -0.00002467   -0.00000843   -0.00001833
     atom   48 type  1   force =    -0.00001196    0.00003727   -0.00002137
     atom   49 type  1   force =     0.00048866    0.00027564    0.00855735
     atom   50 type  1   force =    -0.00047094    0.00067973   -0.01089800
     atom   51 type  1   force =     0.00018221   -0.00059934    0.00892910
     atom   52 type  1   force =    -0.00052991   -0.00034796   -0.00610513
     atom   53 type  1   force =    -0.00000371   -0.00001970    0.00005444
     atom   54 type  1   force =    -0.00009109    0.00011867    0.00001178
     atom   55 type  1   force =     0.00001124    0.00001122   -0.00000030
     atom   56 type  1   force =     0.00001240   -0.00000565   -0.00004712
     atom   57 type  1   force =    -0.00003067   -0.00000100    0.00907566
     atom   58 type  1   force =     0.00020908    0.00015944    0.00863724
     atom   59 type  1   force =     0.00116082   -0.00087105   -0.00537346
     atom   60 type  1   force =     0.00016218    0.00005871   -0.00504936
     atom   61 type  1   force =    -0.00000013   -0.00000582   -0.00000155
     atom   62 type  1   force =    -0.00000773   -0.00000797   -0.00000066
     atom   63 type  1   force =    -0.00003709    0.00001650   -0.00001518
     atom   64 type  1   force =    -0.00002942   -0.00003963    0.00005153
     atom   65 type  2   force =    -0.00001335   -0.00001588    0.00008002
     atom   66 type  3   force =    -0.00001757   -0.00001314   -0.00001069

     Total force =     0.000327     Total SCF correction =     0.000037
     SCF correction compared to forces is large: reduce conv_thr to get better values

     bfgs converged in  17 scf cycles and  15 bfgs steps
     (criteria: energy <  7.3E-07 Ry, force <  3.9E-04 Ry/Bohr)

     End of BFGS Geometry Optimization

     Final energy   =  -21093.9350158695 Ry
Begin final coordinates

ATOMIC_POSITIONS (angstrom)
Fe       1.654912953   1.170200133   0.000000000    0   0   0
Fe       0.000000000   0.000000000   2.026984232    0   0   0
Fe       4.964738858   3.510600399   0.000000000    0   0   0
Fe       3.309825906   2.340400266   2.026984232    0   0   0
Fe       1.674033109   1.170165877   4.032809704
Fe       3.316146075   9.353255880   6.006522981
Fe       4.974650395   3.521771853   4.047923062
Fe       3.364293418   2.334855882   6.032893442
Fe       2.482363858   3.510600399   0.000000000    0   0   0
Fe       4.137287953   1.170200133   0.000000000    0   0   0
Fe       0.827450906   2.340400266   2.026984232    0   0   0
Fe       2.482375000   0.000000000   2.026984232    0   0   0
Fe       2.482556981   3.510839719   4.050525278
Fe       4.160384069   1.186698942   4.041969174
Fe       0.853368432   2.323652091   6.013711628
Fe       2.493218806   0.007520268   6.025983971
Fe       6.619662953   1.170200133   0.000000000    0   0   0
Fe       4.964750000   0.000000000   2.026984232    0   0   0
Fe       9.929488858   3.510600399   0.000000000    0   0   0
Fe       8.274575906   2.340400266   2.026984232    0   0   0
Fe       6.633585887   1.175933267   4.047851946
Fe       4.977837653   0.053329313   6.033371576
Fe       9.919990694   3.499703578   4.047824565
Fe       8.357433030   2.224141738   5.988767375
Fe       7.447113858   3.510600399   0.000000000    0   0   0
Fe       9.102037953   1.170200133   0.000000000    0   0   0
Fe       5.792200906   2.340400266   2.026984232    0   0   0
Fe       7.447125000   0.000000000   2.026984232    0   0   0
Fe       7.447402227   3.510708157   4.003175830
Fe       9.118997233   1.146715395   4.010769998
Fe       5.882606448   2.404446608   6.065721708
Fe      10.764767561   9.332261554   6.013679172
Fe       3.309814764   5.851000664   0.000000000    0   0   0
Fe       1.654901811   4.680800531   2.026984232    0   0   0
Fe       6.619640670   8.191400930   0.000000000    0   0   0
Fe       4.964727717   7.021200797   2.026984232    0   0   0
Fe       3.291038884   5.851391926   4.032671424
Fe      11.530656653   4.686648549   6.033338894
Fe       6.625966854   8.209536536   4.032612878
Fe       4.959110304   7.029764874   6.004187683
Fe       4.137265670   8.191400930   0.000000000    0   0   0
Fe       5.792189764   5.851000664   0.000000000    0   0   0
Fe      12.411852717   7.021200797   2.026984232    0   0   0
Fe       4.137276811   4.680800531   2.026984232    0   0   0
Fe       4.137250448   8.191880403   4.027403562
Fe       5.775894591   5.874451038   4.010232603
Fe      12.401736079   7.013909556   6.026028494
Fe       4.112068613   4.698221130   6.014151435
Fe       8.274564764   5.851000664   0.000000000    0   0   0
Fe       6.619651811   4.680800531   2.026984232    0   0   0
Fe      11.584390670   8.191400930   0.000000000    0   0   0
Fe       9.929477717   7.021200797   2.026984232    0   0   0
Fe       8.261245269   5.845763743   4.047890771
Fe       6.537499307   4.797979894   5.988641005
Fe      11.578475426   8.173728932   4.032811278
Fe       9.917202316   6.968698072   6.032670010
Fe       9.102015670   8.191400930   0.000000000    0   0   0
Fe      10.756939764   5.851000664   0.000000000    0   0   0
Fe       7.447102717   7.021200797   2.026984232    0   0   0
Fe       9.102026811   4.680800531   2.026984232    0   0   0
Fe       9.102162640   8.191728110   4.050471491
Fe      10.734223015   5.835061644   4.041946714
Fe       7.439742500   7.051507847   6.014091830
Fe       9.012692608   4.617612110   6.065553614
N        7.448355726   3.511745238   7.010114226
H        7.448546819   3.511837570   8.044000572
End final coordinates



     Writing output data file Fe_NH_paper_480c_ESM_pn5.save/

     init_run     :     86.44s CPU     88.58s WALL (       1 calls)
     electrons    : 185879.34s CPU 187292.11s WALL (      17 calls)
     update_pot   :    316.90s CPU    317.31s WALL (      16 calls)
     forces       :    762.55s CPU    769.81s WALL (      17 calls)

     Called by init_run:
     wfcinit      :     60.66s CPU     62.61s WALL (       1 calls)
     potinit      :      8.19s CPU      8.23s WALL (       1 calls)
     hinit0       :     14.74s CPU     14.77s WALL (       1 calls)

     Called by electrons:
     c_bands      : 169481.25s CPU 170676.08s WALL (     590 calls)
     sum_band     :   9388.35s CPU   9536.46s WALL (     590 calls)
     v_of_rho     :    968.65s CPU    972.77s WALL (     593 calls)
     newd         :    173.16s CPU    177.23s WALL (     593 calls)
     PAW_pot      :    294.77s CPU    296.03s WALL (     609 calls)
     mix_rho      :   5281.11s CPU   5333.79s WALL (     590 calls)

     Called by c_bands:
     init_us_2    :    269.94s CPU    273.31s WALL (    3642 calls)
     cegterg      : 107828.84s CPU 108575.72s WALL (    1776 calls)

     Called by sum_band:
     sum_band:bec :     17.20s CPU     17.29s WALL (    1818 calls)
     addusdens    :    217.10s CPU    225.04s WALL (     590 calls)

     Called by *egterg:
     h_psi        :  38666.47s CPU  39002.81s WALL (    9661 calls)
     s_psi        :   7913.92s CPU   7930.92s WALL (    9661 calls)
     g_psi        :    101.25s CPU    101.65s WALL (    7882 calls)
     cdiaghg      :  33475.23s CPU  33613.75s WALL (    9568 calls)

     Called by h_psi:
     h_psi:pot    :  38476.32s CPU  38686.33s WALL (    9661 calls)
     h_psi:calbec :   8017.89s CPU   8033.06s WALL (    9661 calls)
     vloc_psi     :  22517.88s CPU  22697.66s WALL (    9661 calls)
     add_vuspsi   :   7940.42s CPU   7955.54s WALL (    9661 calls)

     General routines
     calbec       :  11665.92s CPU  11689.25s WALL (   11683 calls)
     fft          :    600.54s CPU    604.07s WALL (   15090 calls)
     ffts         :   2689.84s CPU   2709.70s WALL (  322831 calls)
     fftw         :  21969.13s CPU  22150.94s WALL ( 6412262 calls)
     interpolate  :     59.30s CPU     59.68s WALL (    1186 calls)
     davcio       :      3.22s CPU    363.66s WALL (   16927 calls)

     Parallel routines
     fft_scatt_xy :   4408.23s CPU   4430.86s WALL ( 6750183 calls)
     fft_scatt_yz :   6266.01s CPU   6356.78s WALL ( 6750183 calls)

     PWSCF        :   2d 4h 0m CPU   2d 4h24m WALL


   This run was terminated on:  19:32: 4  17Jun2022            

=------------------------------------------------------------------------------=
   JOB DONE.
=------------------------------------------------------------------------------=
