     Message from routine get_command_line:
     unexpected argument # 4     :-in

     Program PWSCF v.6.7MaX starts on  4Jul2022 at  0: 1:47 

     This program is part of the open-source Quantum ESPRESSO suite
     for quantum simulation of materials; please cite
         "P. Giannozzi et al., J. Phys.:Condens. Matter 21 395502 (2009);
         "P. Giannozzi et al., J. Phys.:Condens. Matter 29 465901 (2017);
          URL http://www.quantum-espresso.org", 
     in publications or presentations arising from this work. More details at
     http://www.quantum-espresso.org/quote

     Parallel version (MPI), running on   120 processors

     MPI processes distributed on     1 nodes
     K-points division:     npool     =       8
     R & G space division:  proc/nbgrp/npool/nimage =      15
     Waiting for input...
     Reading input from standard input
Warning: card &CELL ignored
Warning: card / ignored

     Current dimensions of program PWSCF are:
     Max number of different atomic species (ntypx) = 10
     Max number of k-points (npk) =  40000
     Max angular momentum in pseudopotentials (lmaxx) =  3

     IMPORTANT: XC functional enforced from input :
     Exchange-correlation= PBE
                           (   1   4   3   4   0   0   0)
     Any further DFT definition will be discarded
     Please, verify this is what you really want


     -------------------------------------------------
     Parameters for Dispersion (Grimme-D2) Correction:
     -------------------------------------------------
       atom      VdW radius       C_6     

        N          2.640         42.670
        H          1.892          4.857

     Subspace diagonalization in iterative solution of the eigenvalue problem:
     one sub-group per band group will be used
     scalapack distributed-memory algorithm (size of sub-group:  3*  3 procs)


     Parallelization info
     --------------------
     sticks:   dense  smooth     PW     G-vecs:    dense   smooth      PW
     Min        3636    1818    468               639190   225950   29545
     Max        3637    1819    470               639197   225953   29547
     Sum       54553   27281   7033              9587919  3389267  443191



     bravais-lattice index     =            0
     lattice parameter (alat)  =      37.7945  a.u.
     unit-cell volume          =   53986.6760 (a.u.)^3
     number of atoms/cell      =            2
     number of atomic types    =            2
     number of electrons       =         6.00
     number of Kohn-Sham states=            7
     kinetic-energy cutoff     =      60.0000  Ry
     charge density cutoff     =     480.0000  Ry
     scf convergence threshold =      1.0E-08
     mixing beta               =       0.7000
     number of iterations used =           10  plain     mixing
     energy convergence thresh.=      7.3E-07
     force convergence thresh. =      3.9E-04
     Exchange-correlation= PBE
                           (   1   4   3   4   0   0   0)
     nstep                     =           50


     Effective Screening Medium Method
     =================================
     Boundary Conditions: Metal-Slab-Metal
     field strength                   =    -0.02 Ry/a.u.
     grid points for fit at edges     =        4 


     celldm(1)=  37.794522  celldm(2)=   0.000000  celldm(3)=   0.000000
     celldm(4)=   0.000000  celldm(5)=   0.000000  celldm(6)=   0.000000

     crystal axes: (cart. coord. in units of alat)
               a(1) = (   1.000000   0.000000   0.000000 )  
               a(2) = (   0.000000   1.000000   0.000000 )  
               a(3) = (   0.000000   0.000000   1.000000 )  

     reciprocal axes: (cart. coord. in units 2 pi/alat)
               b(1) = (  1.000000  0.000000  0.000000 )  
               b(2) = (  0.000000  1.000000  0.000000 )  
               b(3) = (  0.000000  0.000000  1.000000 )  


     PseudoPot. # 1 for N  read from file:
     ../../SSSP/N.pbe-n-radius_5.UPF
     MD5 check sum: 16739722b17309cd8fe442a2ace49922
     Pseudo is Ultrasoft + core correction, Zval =  5.0
     Generated using "atomic" code by A. Dal Corso  v.5.1
     Using radial grid of 1085 points,  4 beta functions with: 
                l(1) =   0
                l(2) =   0
                l(3) =   1
                l(4) =   1
     Q(r) pseudized with 0 coefficients 


     PseudoPot. # 2 for H  read from file:
     ../../SSSP/H.pbe-rrkjus_psl.1.0.0.UPF
     MD5 check sum: f52b6d4d1c606e5624b1dc7b2218f220
     Pseudo is Ultrasoft, Zval =  1.0
     Generated using "atomic" code by A. Dal Corso  v.5.1
     Using radial grid of  929 points,  2 beta functions with: 
                l(1) =   0
                l(2) =   0
     Q(r) pseudized with 0 coefficients 


     atomic species   valence    mass     pseudopotential
        N              5.00    14.00700     N ( 1.00)
        H              1.00     1.00800     H ( 1.00)

     Starting magnetic structure 
     atomic species   magnetization
        N            0.100
        H            0.100

     No symmetry found



   Cartesian axes

     site n.     atom                  positions (alat units)
         1           N   tau(   1) = (   0.5000000   0.5000000   0.0000000  )
         2           H   tau(   2) = (   0.5001513   0.4999379   0.0524424  )

     number of k points=    10  Methfessel-Paxton smearing, width (Ry)=  0.0100
                       cart. coord. in units 2pi/alat
        k(    1) = (   0.0000000   0.0000000   0.0000000), wk =   0.0625000
        k(    2) = (   0.0000000   0.2500000   0.0000000), wk =   0.1250000
        k(    3) = (   0.0000000  -0.5000000   0.0000000), wk =   0.0625000
        k(    4) = (   0.2500000   0.0000000   0.0000000), wk =   0.1250000
        k(    5) = (   0.2500000   0.2500000   0.0000000), wk =   0.1250000
        k(    6) = (   0.2500000  -0.5000000   0.0000000), wk =   0.1250000
        k(    7) = (   0.2500000  -0.2500000   0.0000000), wk =   0.1250000
        k(    8) = (  -0.5000000   0.0000000   0.0000000), wk =   0.0625000
        k(    9) = (  -0.5000000   0.2500000   0.0000000), wk =   0.1250000
        k(   10) = (  -0.5000000  -0.5000000   0.0000000), wk =   0.0625000

     Dense  grid:  9587919 G-vectors     FFT dimensions: ( 270, 270, 270)

     Smooth grid:  3389267 G-vectors     FFT dimensions: ( 192, 192, 192)

     Estimated max dynamical RAM per process >     385.51 MB

     Estimated total dynamical RAM >      45.18 GB
     Generating pointlists ...
     new r_m :   0.0216 (alat units)  0.8176 (a.u.) for type    1
     new r_m :   0.0216 (alat units)  0.8176 (a.u.) for type    2

     Initial potential from superposition of free atoms

     starting charge    5.99998, renormalised to    6.00000

     negative rho (up, down):  9.688E-05 7.927E-05
     Starting wfcs are    5 randomized atomic wfcs +    2 random wfcs

     total cpu time spent up to now is       21.7 secs

     Self-consistent Calculation

     iteration #  1     ecut=    60.00 Ry     beta= 0.70
     CG style diagonalization
     c_bands:  1 eigenvalues not converged
     c_bands:  1 eigenvalues not converged
     c_bands:  3 eigenvalues not converged
     ethr =  1.00E-04,  avg # of iterations = 11.0

     negative rho (up, down):  2.336E-04 9.350E-05

     total cpu time spent up to now is       51.7 secs

     total energy              =     -21.06862982 Ry
     estimated scf accuracy    <       0.14526826 Ry

     total magnetization       =     2.00 Bohr mag/cell
     absolute magnetization    =     2.00 Bohr mag/cell

     iteration #  2     ecut=    60.00 Ry     beta= 0.70
     CG style diagonalization
     ethr =  2.42E-03,  avg # of iterations =  3.2

     negative rho (up, down):  2.471E-04 1.176E-04

     total cpu time spent up to now is       68.8 secs

     total energy              =     -21.09346410 Ry
     estimated scf accuracy    <       0.01451026 Ry

     total magnetization       =     2.00 Bohr mag/cell
     absolute magnetization    =     2.02 Bohr mag/cell

     iteration #  3     ecut=    60.00 Ry     beta= 0.70
     CG style diagonalization
     ethr =  2.42E-04,  avg # of iterations =  3.8

     negative rho (up, down):  2.705E-04 1.230E-04

     total cpu time spent up to now is       87.1 secs

     total energy              =     -21.10471061 Ry
     estimated scf accuracy    <       0.00130149 Ry

     total magnetization       =     2.00 Bohr mag/cell
     absolute magnetization    =     2.03 Bohr mag/cell

     iteration #  4     ecut=    60.00 Ry     beta= 0.70
     CG style diagonalization
     ethr =  2.17E-05,  avg # of iterations =  5.3

     negative rho (up, down):  2.758E-04 1.237E-04

     total cpu time spent up to now is      107.8 secs

     total energy              =     -21.10525799 Ry
     estimated scf accuracy    <       0.00004684 Ry

     total magnetization       =     2.00 Bohr mag/cell
     absolute magnetization    =     2.04 Bohr mag/cell

     iteration #  5     ecut=    60.00 Ry     beta= 0.70
     CG style diagonalization
     ethr =  7.81E-07,  avg # of iterations =  7.0

     negative rho (up, down):  2.781E-04 1.238E-04

     total cpu time spent up to now is      131.6 secs

     total energy              =     -21.10533961 Ry
     estimated scf accuracy    <       0.00000648 Ry

     total magnetization       =     2.00 Bohr mag/cell
     absolute magnetization    =     2.04 Bohr mag/cell

     iteration #  6     ecut=    60.00 Ry     beta= 0.70
     CG style diagonalization
     ethr =  1.08E-07,  avg # of iterations =  4.8

     negative rho (up, down):  2.787E-04 1.234E-04

     total cpu time spent up to now is      151.8 secs

     total energy              =     -21.10535032 Ry
     estimated scf accuracy    <       0.00000091 Ry

     total magnetization       =     2.00 Bohr mag/cell
     absolute magnetization    =     2.05 Bohr mag/cell

     iteration #  7     ecut=    60.00 Ry     beta= 0.70
     CG style diagonalization
     ethr =  1.52E-08,  avg # of iterations =  3.9

     negative rho (up, down):  2.790E-04 1.232E-04

     total cpu time spent up to now is      170.5 secs

     total energy              =     -21.10535074 Ry
     estimated scf accuracy    <       0.00000013 Ry

     total magnetization       =     2.00 Bohr mag/cell
     absolute magnetization    =     2.05 Bohr mag/cell

     iteration #  8     ecut=    60.00 Ry     beta= 0.70
     CG style diagonalization
     ethr =  2.16E-09,  avg # of iterations =  3.8

     negative rho (up, down):  2.790E-04 1.232E-04

     total cpu time spent up to now is      189.1 secs

     total energy              =     -21.10535084 Ry
     estimated scf accuracy    <       0.00000001 Ry

     total magnetization       =     2.00 Bohr mag/cell
     absolute magnetization    =     2.05 Bohr mag/cell

     iteration #  9     ecut=    60.00 Ry     beta= 0.70
     CG style diagonalization
     ethr =  2.46E-10,  avg # of iterations =  3.7

     negative rho (up, down):  2.790E-04 1.232E-04

     Magnetic moment per site:
     atom:    1    charge:    1.3459    magn:    0.5550    constr:    0.0000
     atom:    2    charge:    0.4574    magn:   -0.0089    constr:    0.0000

     total cpu time spent up to now is      205.4 secs

     End of self-consistent calculation

 ------ SPIN UP ------------


          k = 0.0000 0.0000 0.0000 (423701 PWs)   bands (ev):

   -24.8518 -13.7213 -11.9726 -11.9726  -6.5637  -6.1879  -6.1866

          k = 0.0000 0.2500 0.0000 (423725 PWs)   bands (ev):

   -24.8518 -13.7213 -11.9726 -11.9726  -6.5399  -6.3523  -6.1634

          k = 0.0000-0.5000 0.0000 (423542 PWs)   bands (ev):

   -24.8518 -13.7213 -11.9726 -11.9726  -6.4694  -6.4683  -6.0934

          k = 0.2500 0.0000 0.0000 (423725 PWs)   bands (ev):

   -24.8518 -13.7213 -11.9726 -11.9726  -6.5403  -6.3520  -6.1604

          k = 0.2500 0.2500 0.0000 (423766 PWs)   bands (ev):

   -24.8518 -13.7213 -11.9726 -11.9726  -6.5165  -6.3287  -6.3264

          k = 0.2500-0.5000 0.0000 (423782 PWs)   bands (ev):

   -24.8518 -13.7213 -11.9726 -11.9726  -6.4460  -6.4446  -6.2567

          k = 0.2500-0.2500 0.0000 (423766 PWs)   bands (ev):

   -24.8518 -13.7213 -11.9726 -11.9726  -6.5163  -6.3279  -6.3272

          k =-0.5000 0.0000 0.0000 (423542 PWs)   bands (ev):

   -24.8518 -13.7213 -11.9726 -11.9726  -6.4699  -6.4695  -6.0931

          k =-0.5000 0.2500 0.0000 (423782 PWs)   bands (ev):

   -24.8518 -13.7213 -11.9726 -11.9726  -6.4462  -6.4446  -6.2583

          k =-0.5000-0.5000 0.0000 (423708 PWs)   bands (ev):

   -24.8518 -13.7213 -11.9726 -11.9726  -6.3760  -6.3756  -6.3754

 ------ SPIN DOWN ----------


          k = 0.0000 0.0000 0.0000 (423701 PWs)   bands (ev):

   -22.1494 -12.6396  -8.1205  -8.1205  -6.5572  -6.1821  -6.1806

          k = 0.0000 0.2500 0.0000 (423725 PWs)   bands (ev):

   -22.1494 -12.6396  -8.1205  -8.1205  -6.5345  -6.3461  -6.1571

          k = 0.0000-0.5000 0.0000 (423542 PWs)   bands (ev):

   -22.1494 -12.6396  -8.1205  -8.1205  -6.4647  -6.4628  -6.0872

          k = 0.2500 0.0000 0.0000 (423725 PWs)   bands (ev):

   -22.1494 -12.6396  -8.1205  -8.1205  -6.5349  -6.3463  -6.1586

          k = 0.2500 0.2500 0.0000 (423766 PWs)   bands (ev):

   -22.1494 -12.6396  -8.1205  -8.1205  -6.5110  -6.3231  -6.3228

          k = 0.2500-0.5000 0.0000 (423782 PWs)   bands (ev):

   -22.1494 -12.6396  -8.1205  -8.1205  -6.4414  -6.4395  -6.2531

          k = 0.2500-0.2500 0.0000 (423766 PWs)   bands (ev):

   -22.1494 -12.6396  -8.1205  -8.1205  -6.5111  -6.3230  -6.3228

          k =-0.5000 0.0000 0.0000 (423542 PWs)   bands (ev):

   -22.1494 -12.6396  -8.1205  -8.1205  -6.4648  -6.4627  -6.0889

          k =-0.5000 0.2500 0.0000 (423782 PWs)   bands (ev):

   -22.1494 -12.6396  -8.1205  -8.1205  -6.4399  -6.4386  -6.2510

          k =-0.5000-0.5000 0.0000 (423708 PWs)   bands (ev):

   -22.1494 -12.6396  -8.1205  -8.1205  -6.3720  -6.3699  -6.3695

     the Fermi energy is   -10.6423 ev

!    total energy              =     -21.10535086 Ry
     estimated scf accuracy    <          1.5E-09 Ry
     smearing contrib. (-TS)   =       0.00000000 Ry
     internal energy E=F+TS    =     -21.10535086 Ry

     The total energy is F=E-TS. E is the sum of the following terms:
     one-electron contribution =     -42.65753407 Ry
     hartree contribution      =      21.38341926 Ry
     xc contribution           =      -5.90051259 Ry
     ewald contribution        =       6.06927894 Ry
     Dispersion Correction     =      -0.00000239 Ry

     total magnetization       =     2.00 Bohr mag/cell
     absolute magnetization    =     2.05 Bohr mag/cell

     convergence has been achieved in   9 iterations

     negative rho (up, down):  2.790E-04 1.232E-04

     Forces acting on atoms (cartesian axes, Ry/au):

     atom    1 type  1   force =     0.00001441   -0.00000592    0.00016152
     atom    2 type  2   force =    -0.00001441    0.00000592   -0.00015293

     Total force =     0.000154     Total SCF correction =     0.000005

     BFGS Geometry Optimization
     Energy error            =      0.0E+00
     Gradient error          =      1.5E-04

     bfgs converged in   1 scf cycles and   0 bfgs steps
     (criteria: energy <  7.3E-07 Ry, force <  3.9E-04 Ry/Bohr)

     End of BFGS Geometry Optimization

     Final energy   =     -21.1053508558 Ry
Begin final coordinates

ATOMIC_POSITIONS (angstrom)
N            10.0000000000       10.0000000000        0.0000000000    0   0   0
H            10.0030266619        9.9987573283        1.0488478969
End final coordinates



     Writing output data file ./NH_ESM_pn25.save/

     init_run     :     19.96s CPU     21.13s WALL (       1 calls)
     electrons    :    174.03s CPU    185.70s WALL (       1 calls)
     forces       :      8.29s CPU      8.87s WALL (       1 calls)

     Called by init_run:
     wfcinit      :      1.07s CPU      1.12s WALL (       1 calls)
     potinit      :      7.51s CPU      8.18s WALL (       1 calls)
     hinit0       :      1.58s CPU      1.76s WALL (       1 calls)

     Called by electrons:
     c_bands      :     74.68s CPU     75.66s WALL (       9 calls)
     sum_band     :     19.28s CPU     19.94s WALL (       9 calls)
     v_of_rho     :     58.10s CPU     63.24s WALL (      10 calls)
     newd         :      6.86s CPU      7.31s WALL (      10 calls)
     mix_rho      :     11.68s CPU     14.16s WALL (       9 calls)

     Called by c_bands:
     init_us_2    :      0.32s CPU      0.34s WALL (      60 calls)
     ccgdiagg     :     57.23s CPU     57.84s WALL (      27 calls)
     wfcrot       :     12.46s CPU     12.61s WALL (      27 calls)

     Called by *cgdiagg:
     h_psi        :     61.92s CPU     62.59s WALL (     812 calls)
     s_psi        :      2.39s CPU      2.41s WALL (    1597 calls)

     Called by h_psi:
     h_psi:calbec :      2.19s CPU      2.23s WALL (     812 calls)
     vloc_psi     :     57.11s CPU     57.72s WALL (     812 calls)
     add_vuspsi   :      2.32s CPU      2.35s WALL (     812 calls)
     hs_1psi      :     51.63s CPU     52.18s WALL (     785 calls)
     s_1psi       :      2.82s CPU      2.85s WALL (     785 calls)

     General routines
     calbec       :      3.96s CPU      4.02s WALL (    1636 calls)
     fft          :     60.65s CPU     62.29s WALL (     263 calls)
     ffts         :      2.99s CPU      3.03s WALL (      38 calls)
     fftw         :     52.30s CPU     52.84s WALL (    2137 calls)
     interpolate  :      6.77s CPU      7.38s WALL (      20 calls)
     davcio       :      0.03s CPU      1.42s WALL (     176 calls)

     Parallel routines
     fft_scatt_xy :     18.25s CPU     18.45s WALL (    2438 calls)
     fft_scatt_yz :     40.32s CPU     40.74s WALL (    2438 calls)

     PWSCF        :   3m23.45s CPU   3m37.76s WALL


   This run was terminated on:   0: 5:25   4Jul2022            

=------------------------------------------------------------------------------=
   JOB DONE.
=------------------------------------------------------------------------------=
