
     Program PHONON v.6.7MaX starts on 20Sep2022 at 22:52:37 

     This program is part of the open-source Quantum ESPRESSO suite
     for quantum simulation of materials; please cite
         "P. Giannozzi et al., J. Phys.:Condens. Matter 21 395502 (2009);
         "P. Giannozzi et al., J. Phys.:Condens. Matter 29 465901 (2017);
          URL http://www.quantum-espresso.org", 
     in publications or presentations arising from this work. More details at
     http://www.quantum-espresso.org/quote

     Parallel version (MPI), running on   120 processors

     MPI processes distributed on     1 nodes
     K-points division:     npool     =       8
     R & G space division:  proc/nbgrp/npool/nimage =      15
     Waiting for input...
     Reading input from standard input

     Reading xml data from directory:

     ./NH_ESM_pn25.save/

     IMPORTANT: XC functional enforced from input :
     Exchange-correlation= PBE
                           (   1   4   3   4   0   0   0)
     Any further DFT definition will be discarded
     Please, verify this is what you really want


     Parallelization info
     --------------------
     sticks:   dense  smooth     PW     G-vecs:    dense   smooth      PW
     Min        3636    1818    468               639190   225950   29545
     Max        3637    1819    470               639197   225953   29547
     Sum       54553   27281   7033              9587919  3389267  443191


     negative rho (up, down):  2.790E-04 1.232E-04
     Reading collected, re-writing distributed wavefunctions

     Calculation of q =    0.0000000   0.0000000   0.0000000

     phonons (vibrational modes) for NH                                         

     bravais-lattice index     =            0
     lattice parameter (alat)  =      37.7945  a.u.
     unit-cell volume          =   53986.6760 (a.u.)^3
     number of atoms/cell      =            2
     number of atomic types    =            2
     kinetic-energy cut-off    =      60.0000  Ry
     charge density cut-off    =     480.0000  Ry
     convergence threshold     =      1.0E-12
     beta                      =       0.7000
     number of iterations used =            4
     Exchange-correlation= PBE
                           (   1   4   3   4   0   0   0)


     celldm(1)=   37.79452  celldm(2)=    0.00000  celldm(3)=    0.00000
     celldm(4)=    0.00000  celldm(5)=    0.00000  celldm(6)=    0.00000

     crystal axes: (cart. coord. in units of alat)
               a(1) = (  1.0000  0.0000  0.0000 )  
               a(2) = (  0.0000  1.0000  0.0000 )  
               a(3) = (  0.0000  0.0000  1.0000 )  

     reciprocal axes: (cart. coord. in units 2 pi/alat)
               b(1) = (  1.0000  0.0000  0.0000 )  
               b(2) = (  0.0000  1.0000  0.0000 )  
               b(3) = (  0.0000  0.0000  1.0000 )  


     Atoms inside the unit cell: 

     Cartesian axes

     site n.  atom      mass           positions (alat units)
        1     N   14.0067   tau(    1) = (    0.50000    0.50000    0.00000  )
        2     H    1.0078   tau(    2) = (    0.50015    0.49994    0.05244  )

     Computing dynamical matrix for 
                    q = (   0.0000000   0.0000000   0.0000000 )

      2 Sym.Ops. (with q -> -q+G )


     G cutoff =17367.5767  ( 639197 G-vectors)     FFT grid: (270,270,270)
     G cutoff = 8683.7884  ( 225950 G-vectors)  smooth grid: (192,192,192)

     number of k points=    20  Methfessel-Paxton smearing, width (Ry)=  0.0100
                       cart. coord. in units 2pi/alat
        k(    1) = (   0.0000000   0.0000000   0.0000000), wk =   0.0625000
        k(    2) = (   0.0000000   0.2500000   0.0000000), wk =   0.1250000
        k(    3) = (   0.0000000  -0.5000000   0.0000000), wk =   0.0625000
        k(    4) = (   0.2500000   0.0000000   0.0000000), wk =   0.1250000
        k(    5) = (   0.2500000   0.2500000   0.0000000), wk =   0.1250000
        k(    6) = (   0.2500000  -0.5000000   0.0000000), wk =   0.1250000
        k(    7) = (   0.2500000  -0.2500000   0.0000000), wk =   0.1250000
        k(    8) = (  -0.5000000   0.0000000   0.0000000), wk =   0.0625000
        k(    9) = (  -0.5000000   0.2500000   0.0000000), wk =   0.1250000
        k(   10) = (  -0.5000000  -0.5000000   0.0000000), wk =   0.0625000
        k(   11) = (   0.0000000   0.0000000   0.0000000), wk =   0.0625000
        k(   12) = (   0.0000000   0.2500000   0.0000000), wk =   0.1250000
        k(   13) = (   0.0000000  -0.5000000   0.0000000), wk =   0.0625000
        k(   14) = (   0.2500000   0.0000000   0.0000000), wk =   0.1250000
        k(   15) = (   0.2500000   0.2500000   0.0000000), wk =   0.1250000
        k(   16) = (   0.2500000  -0.5000000   0.0000000), wk =   0.1250000
        k(   17) = (   0.2500000  -0.2500000   0.0000000), wk =   0.1250000
        k(   18) = (  -0.5000000   0.0000000   0.0000000), wk =   0.0625000
        k(   19) = (  -0.5000000   0.2500000   0.0000000), wk =   0.1250000
        k(   20) = (  -0.5000000  -0.5000000   0.0000000), wk =   0.0625000

     PseudoPot. # 1 for N  read from file:
     ../../SSSP/N.pbe-n-radius_5.UPF
     MD5 check sum: 16739722b17309cd8fe442a2ace49922
     Pseudo is Ultrasoft + core correction, Zval =  5.0
     Generated using "atomic" code by A. Dal Corso  v.5.1
     Using radial grid of 1085 points,  4 beta functions with: 
                l(1) =   0
                l(2) =   0
                l(3) =   1
                l(4) =   1
     Q(r) pseudized with 0 coefficients 


     PseudoPot. # 2 for H  read from file:
     ../../SSSP/H.pbe-rrkjus_psl.1.0.0.UPF
     MD5 check sum: f52b6d4d1c606e5624b1dc7b2218f220
     Pseudo is Ultrasoft, Zval =  1.0
     Generated using "atomic" code by A. Dal Corso  v.5.1
     Using radial grid of  929 points,  2 beta functions with: 
                l(1) =   0
                l(2) =   0
     Q(r) pseudized with 0 coefficients 


     Mode symmetry, C_1 (1)     point group:


     Atomic displacements:
     There are    6 irreducible representations

     Representation     1      1 modes -  To be done

     Representation     2      1 modes -  To be done

     Representation     3      1 modes -  To be done

     Representation     4      1 modes -  To be done

     Representation     5      1 modes -  To be done

     Representation     6      1 modes -  To be done



     Alpha used in Ewald sum =   2.8000

     -------------------------------------------------
     Parameters for Dispersion (Grimme-D2) Correction:
     -------------------------------------------------
       atom      VdW radius       C_6     

        N          2.640         42.670
        H          1.892          4.857

     Calculating the D2 contribution to the dynamical matrix.
     D2 energy =       -0.00000239 Ry
     Done.


     negative rho (up, down):  2.790E-04 1.232E-04
     PHONON       :   2m29.14s CPU   2m36.48s WALL



     Representation #   1 mode #   1

     Self-consistent Calculation

     Pert. #  1: Fermi energy shift (Ry) =     0.0000E+00     0.0000E+00

      iter #   1 total cpu time :   192.6 secs   av.it.:   6.8
      thresh= 1.000E-02 alpha_mix =  0.700 |ddv_scf|^2 =  2.942E-09

     Pert. #  1: Fermi energy shift (Ry) =     0.0000E+00     0.0000E+00

      iter #   2 total cpu time :   231.7 secs   av.it.:  13.6
      thresh= 5.424E-06 alpha_mix =  0.700 |ddv_scf|^2 =  4.955E-10

     Pert. #  1: Fermi energy shift (Ry) =     0.0000E+00     0.0000E+00

      iter #   3 total cpu time :   270.1 secs   av.it.:  12.7
      thresh= 2.226E-06 alpha_mix =  0.700 |ddv_scf|^2 =  1.347E-12

     Pert. #  1: Fermi energy shift (Ry) =     0.0000E+00     0.0000E+00

      iter #   4 total cpu time :   309.2 secs   av.it.:  15.6
      thresh= 1.160E-07 alpha_mix =  0.700 |ddv_scf|^2 =  1.543E-13

     End of self-consistent calculation

     Convergence has been achieved 


     Representation #   2 mode #   2

     Self-consistent Calculation

     Pert. #  1: Fermi energy shift (Ry) =     0.0000E+00     0.0000E+00

      iter #   1 total cpu time :   359.9 secs   av.it.:   6.8
      thresh= 1.000E-02 alpha_mix =  0.700 |ddv_scf|^2 =  2.972E-09

     Pert. #  1: Fermi energy shift (Ry) =     0.0000E+00     0.0000E+00

      iter #   2 total cpu time :   398.0 secs   av.it.:  13.6
      thresh= 5.451E-06 alpha_mix =  0.700 |ddv_scf|^2 =  5.012E-10

     Pert. #  1: Fermi energy shift (Ry) =     0.0000E+00     0.0000E+00

      iter #   3 total cpu time :   436.3 secs   av.it.:  12.7
      thresh= 2.239E-06 alpha_mix =  0.700 |ddv_scf|^2 =  1.061E-12

     Pert. #  1: Fermi energy shift (Ry) =     0.0000E+00     0.0000E+00

      iter #   4 total cpu time :   478.5 secs   av.it.:  15.0
      thresh= 1.030E-07 alpha_mix =  0.700 |ddv_scf|^2 =  1.711E-13

     End of self-consistent calculation

     Convergence has been achieved 


     Representation #   3 mode #   3

     Self-consistent Calculation

     Pert. #  1: Fermi energy shift (Ry) =     0.0000E+00     0.0000E+00

      iter #   1 total cpu time :   529.6 secs   av.it.:   7.0
      thresh= 1.000E-02 alpha_mix =  0.700 |ddv_scf|^2 =  4.660E-09

     Pert. #  1: Fermi energy shift (Ry) =     0.0000E+00     0.0000E+00

      iter #   2 total cpu time :   568.3 secs   av.it.:  14.0
      thresh= 6.826E-06 alpha_mix =  0.700 |ddv_scf|^2 =  5.982E-10

     Pert. #  1: Fermi energy shift (Ry) =     0.0000E+00     0.0000E+00

      iter #   3 total cpu time :   606.7 secs   av.it.:  13.8
      thresh= 2.446E-06 alpha_mix =  0.700 |ddv_scf|^2 =  7.925E-11

     Pert. #  1: Fermi energy shift (Ry) =     0.0000E+00     0.0000E+00

      iter #   4 total cpu time :   649.0 secs   av.it.:  14.0
      thresh= 8.902E-07 alpha_mix =  0.700 |ddv_scf|^2 =  1.724E-12

     Pert. #  1: Fermi energy shift (Ry) =     0.0000E+00     0.0000E+00

      iter #   5 total cpu time :   688.5 secs   av.it.:  14.3
      thresh= 1.313E-07 alpha_mix =  0.700 |ddv_scf|^2 =  4.326E-13

     End of self-consistent calculation

     Convergence has been achieved 


     Representation #   4 mode #   4

     Self-consistent Calculation

     Pert. #  1: Fermi energy shift (Ry) =     0.0000E+00     0.0000E+00

      iter #   1 total cpu time :   737.8 secs   av.it.:   5.0
      thresh= 1.000E-02 alpha_mix =  0.700 |ddv_scf|^2 =  9.422E-11

     Pert. #  1: Fermi energy shift (Ry) =     0.0000E+00     0.0000E+00

      iter #   2 total cpu time :   776.5 secs   av.it.:  13.5
      thresh= 9.707E-07 alpha_mix =  0.700 |ddv_scf|^2 =  1.009E-11

     Pert. #  1: Fermi energy shift (Ry) =     0.0000E+00     0.0000E+00

      iter #   3 total cpu time :   812.8 secs   av.it.:  13.4
      thresh= 3.176E-07 alpha_mix =  0.700 |ddv_scf|^2 =  5.618E-14

     End of self-consistent calculation

     Convergence has been achieved 


     Representation #   5 mode #   5

     Self-consistent Calculation

     Pert. #  1: Fermi energy shift (Ry) =     0.0000E+00     0.0000E+00

      iter #   1 total cpu time :   863.3 secs   av.it.:   5.0
      thresh= 1.000E-02 alpha_mix =  0.700 |ddv_scf|^2 =  1.035E-10

     Pert. #  1: Fermi energy shift (Ry) =     0.0000E+00     0.0000E+00

      iter #   2 total cpu time :   900.4 secs   av.it.:  13.5
      thresh= 1.017E-06 alpha_mix =  0.700 |ddv_scf|^2 =  1.170E-11

     Pert. #  1: Fermi energy shift (Ry) =     0.0000E+00     0.0000E+00

      iter #   3 total cpu time :   936.3 secs   av.it.:  12.7
      thresh= 3.421E-07 alpha_mix =  0.700 |ddv_scf|^2 =  5.970E-14

     End of self-consistent calculation

     Convergence has been achieved 


     Representation #   6 mode #   6

     Self-consistent Calculation

     Pert. #  1: Fermi energy shift (Ry) =     0.0000E+00     0.0000E+00

      iter #   1 total cpu time :   985.7 secs   av.it.:   5.5
      thresh= 1.000E-02 alpha_mix =  0.700 |ddv_scf|^2 =  2.971E-10

     Pert. #  1: Fermi energy shift (Ry) =     0.0000E+00     0.0000E+00

      iter #   2 total cpu time :  1025.0 secs   av.it.:  14.0
      thresh= 1.724E-06 alpha_mix =  0.700 |ddv_scf|^2 =  7.569E-11

     Pert. #  1: Fermi energy shift (Ry) =     0.0000E+00     0.0000E+00

      iter #   3 total cpu time :  1063.2 secs   av.it.:  13.6
      thresh= 8.700E-07 alpha_mix =  0.700 |ddv_scf|^2 =  3.462E-12

     Pert. #  1: Fermi energy shift (Ry) =     0.0000E+00     0.0000E+00

      iter #   4 total cpu time :  1101.7 secs   av.it.:  13.0
      thresh= 1.861E-07 alpha_mix =  0.700 |ddv_scf|^2 =  2.416E-13

     End of self-consistent calculation

     Convergence has been achieved 

     Number of q in the star =    1
     List of q in the star:
          1   0.000000000   0.000000000   0.000000000

     Diagonalizing the dynamical matrix

     q = (    0.000000000   0.000000000   0.000000000 ) 

 **************************************************************************
     freq (    1) =      32.639806 [THz] =    1088.746729 [cm-1]
     freq (    2) =      34.002257 [THz] =    1134.193201 [cm-1]
     freq (    3) =      34.018907 [THz] =    1134.748604 [cm-1]
     freq (    4) =      44.728499 [THz] =    1491.982141 [cm-1]
     freq (    5) =      44.750200 [THz] =    1492.705989 [cm-1]
     freq (    6) =     105.631779 [THz] =    3523.496880 [cm-1]
 **************************************************************************

     Mode symmetry, C_1 (1)     point group:

     freq (   1-   1) =       1088.7  [cm-1]   --> A               I+R
     freq (   2-   2) =       1134.2  [cm-1]   --> A               I+R
     freq (   3-   3) =       1134.7  [cm-1]   --> A               I+R
     freq (   4-   4) =       1492.0  [cm-1]   --> A               I+R
     freq (   5-   5) =       1492.7  [cm-1]   --> A               I+R
     freq (   6-   6) =       3523.5  [cm-1]   --> A               I+R

     PHONON       :  16m24.08s CPU  18m42.08s WALL

     INITIALIZATION: 
     phq_setup    :     13.00s CPU     14.44s WALL (       1 calls)
     phq_init     :    118.22s CPU    121.45s WALL (       1 calls)

     phq_init     :    118.22s CPU    121.45s WALL (       1 calls)
     set_drhoc    :     24.34s CPU     24.45s WALL (       3 calls)
     init_vloc    :      0.32s CPU      0.33s WALL (       1 calls)
     init_us_1    :      0.03s CPU      0.03s WALL (       1 calls)
     newd         :      0.82s CPU      0.87s WALL (       1 calls)
     dvanqq       :     43.07s CPU     43.65s WALL (       1 calls)
     drho         :     29.00s CPU     30.73s WALL (       1 calls)

     DYNAMICAL MATRIX:
     dynmat0      :     23.26s CPU     24.05s WALL (       1 calls)
     phqscf       :    834.93s CPU    960.09s WALL (       1 calls)
     dynmatrix    :      0.01s CPU      0.05s WALL (       1 calls)

     phqscf       :    834.93s CPU    960.09s WALL (       1 calls)
     solve_linter :    830.49s CPU    940.76s WALL (       6 calls)
     drhodv       :      4.44s CPU      4.57s WALL (       6 calls)

     dynmat0      :     23.26s CPU     24.05s WALL (       1 calls)
     dynmat_us    :      0.88s CPU      0.93s WALL (       1 calls)
     d2ionq       :      0.20s CPU      0.20s WALL (       1 calls)
     dynmatcc     :     22.07s CPU     22.68s WALL (       1 calls)

     dynmat_us    :      0.88s CPU      0.93s WALL (       1 calls)
     addusdynmat  :      0.00s CPU      0.00s WALL (       1 calls)

     phqscf       :    834.93s CPU    960.09s WALL (       1 calls)
     solve_linter :    830.49s CPU    940.76s WALL (       6 calls)

     solve_linter :    830.49s CPU    940.76s WALL (       6 calls)
     dvqpsi_us    :     10.87s CPU     11.09s WALL (      18 calls)
     ortho        :      1.26s CPU      1.29s WALL (      69 calls)
     cgsolve      :    230.16s CPU    233.02s WALL (      69 calls)
     incdrhoscf   :     16.50s CPU     16.72s WALL (      69 calls)
     addusddens   :     50.12s CPU     53.29s WALL (      29 calls)
     vpsifft      :     12.63s CPU     12.90s WALL (      51 calls)
     dv_of_drho   :    153.24s CPU    159.23s WALL (      23 calls)
     mix_pot      :      9.89s CPU     23.40s WALL (      23 calls)
     ef_shift     :     21.37s CPU     21.71s WALL (      29 calls)
     localdos     :     29.00s CPU     30.28s WALL (       6 calls)
     psymdvscf    :    105.54s CPU    150.95s WALL (      23 calls)
     newdq        :     68.62s CPU     71.94s WALL (      23 calls)
     adddvscf     :      0.36s CPU      0.36s WALL (      51 calls)
     drhodvus     :      4.12s CPU     14.50s WALL (       6 calls)

     dvqpsi_us    :     10.87s CPU     11.09s WALL (      18 calls)
     dvqpsi_us_on :      0.17s CPU      0.18s WALL (      18 calls)

     cgsolve      :    230.16s CPU    233.02s WALL (      69 calls)
     ch_psi       :    222.86s CPU    225.63s WALL (     965 calls)

     ch_psi       :    222.86s CPU    225.63s WALL (     965 calls)
     h_psi        :    204.90s CPU    207.46s WALL (     965 calls)
     last         :     12.60s CPU     12.75s WALL (     965 calls)

     h_psi        :    204.90s CPU    207.46s WALL (     965 calls)
     add_vuspsi   :      3.01s CPU      3.05s WALL (     965 calls)

     incdrhoscf   :     16.50s CPU     16.72s WALL (      69 calls)
     addusdbec    :      0.49s CPU      0.50s WALL (      87 calls)

     drhodvus     :      4.12s CPU     14.50s WALL (       6 calls)

      General routines
     calbec       :      8.01s CPU      8.19s WALL (    2206 calls)
     fft          :    268.27s CPU    273.10s WALL (    1015 calls)
     ffts         :     17.84s CPU     18.33s WALL (     250 calls)
     fftw         :    198.35s CPU    200.83s WALL (    8021 calls)
     davcio       :      0.11s CPU     25.08s WALL (     515 calls)
     write_rec    :      0.00s CPU     30.78s WALL (      29 calls)


     PHONON       :  16m24.08s CPU  18m42.08s WALL


   This run was terminated on:  23:11:19  20Sep2022            

=------------------------------------------------------------------------------=
   JOB DONE.
=------------------------------------------------------------------------------=
