
     Program PWSCF v.6.7MaX starts on  8Jul2022 at 17:28:49 

     This program is part of the open-source Quantum ESPRESSO suite
     for quantum simulation of materials; please cite
         "P. Giannozzi et al., J. Phys.:Condens. Matter 21 395502 (2009);
         "P. Giannozzi et al., J. Phys.:Condens. Matter 29 465901 (2017);
          URL http://www.quantum-espresso.org", 
     in publications or presentations arising from this work. More details at
     http://www.quantum-espresso.org/quote

     Parallel version (MPI), running on   256 processors

     MPI processes distributed on     2 nodes
     K-points division:     npool     =       8
     R & G space division:  proc/nbgrp/npool/nimage =      32
     Waiting for input...
     Reading input from standard input
Warning: card &CELL ignored
Warning: card / ignored

     Current dimensions of program PWSCF are:
     Max number of different atomic species (ntypx) = 10
     Max number of k-points (npk) =  40000
     Max angular momentum in pseudopotentials (lmaxx) =  3
     file Fe.pbe-spn-kjpaw_psl.0.2.1.UPF: wavefunction(s)  3D renormalized

     IMPORTANT: XC functional enforced from input :
     Exchange-correlation= PBE
                           (   1   4   3   4   0   0   0)
     Any further DFT definition will be discarded
     Please, verify this is what you really want


     -------------------------------------------------
     Parameters for Dispersion (Grimme-D2) Correction:
     -------------------------------------------------
       atom      VdW radius       C_6     

        Fe         2.952        374.666
        N          2.640         42.670

     Subspace diagonalization in iterative solution of the eigenvalue problem:
     one sub-group per band group will be used
     scalapack distributed-memory algorithm (size of sub-group:  5*  5 procs)


     Parallelization info
     --------------------
     sticks:   dense  smooth     PW     G-vecs:    dense   smooth      PW
     Min         396     198     52                90796    32100    4368
     Max         397     199     53                90807    32109    4377
     Sum       12685    6351   1677              2905599  1027285  139897



     bravais-lattice index     =            0
     lattice parameter (alat)  =      18.7640  a.u.
     unit-cell volume          =   16360.3161 (a.u.)^3
     number of atoms/cell      =           65
     number of atomic types    =            2
     number of electrons       =      1029.00
     number of Kohn-Sham states=          618
     kinetic-energy cutoff     =      60.0000  Ry
     charge density cutoff     =     480.0000  Ry
     scf convergence threshold =      1.0E-08
     mixing beta               =       0.2000
     number of iterations used =           10  local-TF  mixing
     energy convergence thresh.=      7.3E-07
     force convergence thresh. =      3.9E-04
     Exchange-correlation= PBE
                           (   1   4   3   4   0   0   0)
     nstep                     =           50


     Effective Screening Medium Method
     =================================
     Boundary Conditions: Metal-Slab-Metal
     field strength                   =     0.00 Ry/a.u.
     grid points for fit at edges     =        4 


     celldm(1)=  18.764036  celldm(2)=   0.000000  celldm(3)=   0.000000
     celldm(4)=   0.000000  celldm(5)=   0.000000  celldm(6)=   0.000000

     crystal axes: (cart. coord. in units of alat)
               a(1) = (   1.000000   0.000000   0.000000 )  
               a(2) = (   0.333330   0.942807   0.000000 )  
               a(3) = (   0.000000   0.000000   2.626577 )  

     reciprocal axes: (cart. coord. in units 2 pi/alat)
               b(1) = (  1.000000 -0.353551  0.000000 )  
               b(2) = (  0.000000  1.060663  0.000000 )  
               b(3) = (  0.000000  0.000000  0.380724 )  


     PseudoPot. # 1 for Fe read from file:
     ../../SSSP/Fe.pbe-spn-kjpaw_psl.0.2.1.UPF
     MD5 check sum: e86618425769142926afa95317d90200
     Pseudo is Projector augmented-wave + core cor, Zval = 16.0
     Generated using "atomic" code by A. Dal Corso  v.5.0.99 svn rev. 10869
     Shape of augmentation charge: PSQ
     Using radial grid of 1191 points,  6 beta functions with: 
                l(1) =   0
                l(2) =   0
                l(3) =   1
                l(4) =   1
                l(5) =   2
                l(6) =   2
     Q(r) pseudized with 0 coefficients 


     PseudoPot. # 2 for N  read from file:
     ../../SSSP/N.pbe-n-radius_5.UPF
     MD5 check sum: 16739722b17309cd8fe442a2ace49922
     Pseudo is Ultrasoft + core correction, Zval =  5.0
     Generated using "atomic" code by A. Dal Corso  v.5.1
     Using radial grid of 1085 points,  4 beta functions with: 
                l(1) =   0
                l(2) =   0
                l(3) =   1
                l(4) =   1
     Q(r) pseudized with 0 coefficients 


     atomic species   valence    mass     pseudopotential
        Fe            16.00    55.84500     Fe( 1.00)
        N              5.00    14.00700     N ( 1.00)

     Starting magnetic structure 
     atomic species   magnetization
        Fe           0.100
        N            0.100

     No symmetry found



   Cartesian axes

     site n.     atom                  positions (alat units)
         1           Fe  tau(   1) = (   0.1666663   0.1178509   0.0000000  )
         2           Fe  tau(   2) = (   0.0000000   0.0000000   0.2041376  )
         3           Fe  tau(   3) = (   0.4999989   0.3535526   0.0000000  )
         4           Fe  tau(   4) = (   0.3333326   0.2357017   0.2041376  )
         5           Fe  tau(   5) = (   0.1691509   0.1175918   0.4057210  )
         6           Fe  tau(   6) = (   0.3359522   0.9391646   0.6061093  )
         7           Fe  tau(   7) = (   0.4995928   0.3558378   0.4072377  )
         8           Fe  tau(   8) = (   0.3413025   0.2357524   0.6068274  )
         9           Fe  tau(   9) = (   0.2499989   0.3535526   0.0000000  )
        10           Fe  tau(  10) = (   0.4166663   0.1178509   0.0000000  )
        11           Fe  tau(  11) = (   0.0833326   0.2357017   0.2041376  )
        12           Fe  tau(  12) = (   0.2500000   0.0000000   0.2041376  )
        13           Fe  tau(  13) = (   0.2500221   0.3535767   0.4075582  )
        14           Fe  tau(  14) = (   0.4191385   0.1196340   0.4060773  )
        15           Fe  tau(  15) = (   0.0917092   0.2321912   0.6073070  )
        16           Fe  tau(  16) = (   0.2530842   0.0022036   0.6068541  )
        17           Fe  tau(  17) = (   0.6666663   0.1178509   0.0000000  )
        18           Fe  tau(  18) = (   0.5000000   0.0000000   0.2041376  )
        19           Fe  tau(  19) = (   0.9999989   0.3535526   0.0000000  )
        20           Fe  tau(  20) = (   0.8333326   0.2357017   0.2041376  )
        21           Fe  tau(  21) = (   0.6686442   0.1166971   0.4072016  )
        22           Fe  tau(  22) = (   0.5026806   0.0075466   0.6068559  )
        23           Fe  tau(  23) = (   1.0004742   0.3513324   0.4072043  )
        24           Fe  tau(  24) = (   0.8513514   0.2102900   0.6025819  )
        25           Fe  tau(  25) = (   0.7499989   0.3535526   0.0000000  )
        26           Fe  tau(  26) = (   0.9166663   0.1178509   0.0000000  )
        27           Fe  tau(  27) = (   0.5833326   0.2357017   0.2041376  )
        28           Fe  tau(  28) = (   0.7500000   0.0000000   0.2041376  )
        29           Fe  tau(  29) = (   0.7500396   0.3535476   0.4085199  )
        30           Fe  tau(  30) = (   0.9195929   0.1137564   0.4028232  )
        31           Fe  tau(  31) = (   0.5921731   0.2419271   0.6056380  )
        32           Fe  tau(  32) = (   1.0839170   0.9337880   0.6073025  )
        33           Fe  tau(  33) = (   0.3333315   0.5892543   0.0000000  )
        34           Fe  tau(  34) = (   0.1666652   0.4714034   0.2041376  )
        35           Fe  tau(  35) = (   0.6666640   0.8249560   0.0000000  )
        36           Fe  tau(  36) = (   0.4999978   0.7071052   0.2041376  )
        37           Fe  tau(  37) = (   0.3308852   0.5895436   0.4057372  )
        38           Fe  tau(  38) = (   1.1587370   0.4714367   0.6068584  )
        39           Fe  tau(  39) = (   0.6672467   0.8273890   0.4057381  )
        40           Fe  tau(  40) = (   0.4974095   0.7108217   0.6061843  )
        41           Fe  tau(  41) = (   0.4166640   0.8249560   0.0000000  )
        42           Fe  tau(  42) = (   0.5833315   0.5892543   0.0000000  )
        43           Fe  tau(  43) = (   0.2499978   0.7071052   0.2041376  )
        44           Fe  tau(  44) = (   0.4166652   0.4714034   0.2041376  )
        45           Fe  tau(  45) = (   0.4166815   0.8249743   0.4045874  )
        46           Fe  tau(  46) = (   0.5804294   0.5934022   0.4028539  )
        47           Fe  tau(  47) = (   1.2469491   0.7049804   0.6068441  )
        48           Fe  tau(  48) = (   0.4083601   0.4750129   0.6073567  )
        49           Fe  tau(  49) = (   0.8333315   0.5892543   0.0000000  )
        50           Fe  tau(  50) = (   0.6666652   0.4714034   0.2041376  )
        51           Fe  tau(  51) = (   1.1666640   0.8249560   0.0000000  )
        52           Fe  tau(  52) = (   0.9999978   0.7071052   0.2041376  )
        53           Fe  tau(  53) = (   0.8313559   0.5904323   0.4072444  )
        54           Fe  tau(  54) = (   0.6487279   0.4968482   0.6025772  )
        55           Fe  tau(  55) = (   1.1661202   0.8225591   0.4057152  )
        56           Fe  tau(  56) = (   0.9973563   0.6996610   0.6068236  )
        57           Fe  tau(  57) = (   0.9166640   0.8249560   0.0000000  )
        58           Fe  tau(  58) = (   1.0833315   0.5892543   0.0000000  )
        59           Fe  tau(  59) = (   0.7499978   0.7071052   0.2041376  )
        60           Fe  tau(  60) = (   0.9166652   0.4714034   0.2041376  )
        61           Fe  tau(  61) = (   0.9166742   0.8249767   0.4075569  )
        62           Fe  tau(  62) = (   1.0808694   0.5875468   0.4060803  )
        63           Fe  tau(  63) = (   0.7494236   0.7161996   0.6073634  )
        64           Fe  tau(  64) = (   0.9079309   0.4651926   0.6056468  )
        65           N   tau(  65) = (   0.7500415   0.3535723   0.6407974  )

     number of k points=    10  Methfessel-Paxton smearing, width (Ry)=  0.0100
                       cart. coord. in units 2pi/alat
        k(    1) = (   0.0000000   0.0000000   0.0000000), wk =   0.0625000
        k(    2) = (   0.0000000   0.2651656   0.0000000), wk =   0.1250000
        k(    3) = (   0.0000000  -0.5303313   0.0000000), wk =   0.0625000
        k(    4) = (   0.2500000  -0.0883878   0.0000000), wk =   0.1250000
        k(    5) = (   0.2500000   0.1767779   0.0000000), wk =   0.1250000
        k(    6) = (   0.2500000  -0.6187190   0.0000000), wk =   0.1250000
        k(    7) = (   0.2500000  -0.3535534   0.0000000), wk =   0.1250000
        k(    8) = (  -0.5000000   0.1767755   0.0000000), wk =   0.0625000
        k(    9) = (  -0.5000000   0.4419412   0.0000000), wk =   0.1250000
        k(   10) = (  -0.5000000  -0.3535558   0.0000000), wk =   0.0625000

     Dense  grid:  2905599 G-vectors     FFT dimensions: ( 135, 135, 360)

     Smooth grid:  1027285 G-vectors     FFT dimensions: (  96,  96, 243)

     Estimated max dynamical RAM per process >     635.28 MB

     Estimated total dynamical RAM >     158.82 GB

     Check: negative core charge=   -0.000039
     Generating pointlists ...
     new r_m :   0.0741 (alat units)  1.3901 (a.u.) for type    1
     new r_m :   0.0741 (alat units)  1.3901 (a.u.) for type    2

     Initial potential from superposition of free atoms

     starting charge 1028.97194, renormalised to 1029.00000

     negative rho (up, down):  1.365E-02 1.117E-02
     Starting wfcs are  836 randomized atomic wfcs
     Checking if some PAW data can be deallocated... 

     total cpu time spent up to now is       30.7 secs

     Self-consistent Calculation

     iteration #  1     ecut=    60.00 Ry     beta= 0.20
     Davidson diagonalization with overlap
     c_bands:  1 eigenvalues not converged
     ethr =  1.00E-04,  avg # of iterations = 18.1

     negative rho (up, down):  7.022E-03 5.636E-03

     total cpu time spent up to now is      329.5 secs

     total energy              =  -21092.15978571 Ry
     estimated scf accuracy    <      44.38628884 Ry

     total magnetization       =   132.88 Bohr mag/cell
     absolute magnetization    =   133.22 Bohr mag/cell

     iteration #  2     ecut=    60.00 Ry     beta= 0.20
     Davidson diagonalization with overlap
     ethr =  4.31E-03,  avg # of iterations =  1.0

     negative rho (up, down):  4.264E-03 3.634E-03

     total cpu time spent up to now is      376.2 secs

     total energy              =  -21092.56466514 Ry
     estimated scf accuracy    <       9.32570462 Ry

     total magnetization       =   135.23 Bohr mag/cell
     absolute magnetization    =   135.56 Bohr mag/cell

     iteration #  3     ecut=    60.00 Ry     beta= 0.20
     Davidson diagonalization with overlap
     ethr =  9.06E-04,  avg # of iterations =  1.0

     negative rho (up, down):  1.773E-02 5.288E-02

     total cpu time spent up to now is      422.3 secs

     total energy              =  -21091.84981930 Ry
     estimated scf accuracy    <       9.87498409 Ry

     total magnetization       =   140.70 Bohr mag/cell
     absolute magnetization    =   141.08 Bohr mag/cell

     iteration #  4     ecut=    60.00 Ry     beta= 0.20
     Davidson diagonalization with overlap
     ethr =  9.06E-04,  avg # of iterations =  2.2

     negative rho (up, down):  2.854E-02 9.543E-02

     total cpu time spent up to now is      473.6 secs

     total energy              =  -21091.22509208 Ry
     estimated scf accuracy    <       8.34005825 Ry

     total magnetization       =   154.11 Bohr mag/cell
     absolute magnetization    =   155.17 Bohr mag/cell

     iteration #  5     ecut=    60.00 Ry     beta= 0.20
     Davidson diagonalization with overlap
     ethr =  8.11E-04,  avg # of iterations =  5.4

     negative rho (up, down):  4.009E-03 3.322E-02

     total cpu time spent up to now is      537.5 secs

     total energy              =  -21091.77922589 Ry
     estimated scf accuracy    <       3.77434663 Ry

     total magnetization       =   159.18 Bohr mag/cell
     absolute magnetization    =   161.24 Bohr mag/cell

     iteration #  6     ecut=    60.00 Ry     beta= 0.20
     Davidson diagonalization with overlap
     ethr =  3.67E-04,  avg # of iterations =  6.3

     negative rho (up, down):  7.011E-05 9.677E-03

     total cpu time spent up to now is      607.0 secs

     total energy              =  -21092.09910272 Ry
     estimated scf accuracy    <       0.90867792 Ry

     total magnetization       =   152.97 Bohr mag/cell
     absolute magnetization    =   156.17 Bohr mag/cell

     iteration #  7     ecut=    60.00 Ry     beta= 0.20
     Davidson diagonalization with overlap
     c_bands:  1 eigenvalues not converged
     c_bands:  1 eigenvalues not converged
     ethr =  8.83E-05,  avg # of iterations = 16.3

     negative rho (up, down):  8.365E-05 4.573E-03

     total cpu time spent up to now is      822.4 secs

     total energy              =  -21092.54016217 Ry
     estimated scf accuracy    <       2.64107906 Ry

     total magnetization       =   150.37 Bohr mag/cell
     absolute magnetization    =   156.07 Bohr mag/cell

     iteration #  8     ecut=    60.00 Ry     beta= 0.20
     Davidson diagonalization with overlap
     c_bands:  1 eigenvalues not converged
     ethr =  8.83E-05,  avg # of iterations =  3.8

     negative rho (up, down):  1.937E-05 1.915E-03

     total cpu time spent up to now is      894.2 secs

     total energy              =  -21092.57956715 Ry
     estimated scf accuracy    <       0.37187212 Ry

     total magnetization       =   152.13 Bohr mag/cell
     absolute magnetization    =   157.07 Bohr mag/cell

     iteration #  9     ecut=    60.00 Ry     beta= 0.20
     Davidson diagonalization with overlap
     c_bands:  1 eigenvalues not converged
     ethr =  3.61E-05,  avg # of iterations =  5.7

     negative rho (up, down):  2.107E-04 1.285E-03

     total cpu time spent up to now is      965.1 secs

     total energy              =  -21092.56549518 Ry
     estimated scf accuracy    <       0.30985346 Ry

     total magnetization       =   152.82 Bohr mag/cell
     absolute magnetization    =   157.63 Bohr mag/cell

     iteration # 10     ecut=    60.00 Ry     beta= 0.20
     Davidson diagonalization with overlap
     ethr =  3.01E-05,  avg # of iterations =  8.4

     negative rho (up, down):  9.961E-05 1.498E-03

     total cpu time spent up to now is     1079.2 secs

     total energy              =  -21092.60780157 Ry
     estimated scf accuracy    <       0.41765317 Ry

     total magnetization       =   157.62 Bohr mag/cell
     absolute magnetization    =   162.76 Bohr mag/cell

     iteration # 11     ecut=    60.00 Ry     beta= 0.20
     Davidson diagonalization with overlap
     ethr =  3.01E-05,  avg # of iterations =  2.8

     negative rho (up, down):  1.089E-04 1.356E-03

     total cpu time spent up to now is     1142.2 secs

     total energy              =  -21092.60232664 Ry
     estimated scf accuracy    <       0.26874865 Ry

     total magnetization       =   158.70 Bohr mag/cell
     absolute magnetization    =   163.90 Bohr mag/cell

     iteration # 12     ecut=    60.00 Ry     beta= 0.20
     Davidson diagonalization with overlap
     ethr =  2.61E-05,  avg # of iterations =  1.6

     negative rho (up, down):  2.214E-04 1.346E-03

     total cpu time spent up to now is     1196.3 secs

     total energy              =  -21092.58813843 Ry
     estimated scf accuracy    <       0.17223525 Ry

     total magnetization       =   159.08 Bohr mag/cell
     absolute magnetization    =   164.37 Bohr mag/cell

     iteration # 13     ecut=    60.00 Ry     beta= 0.20
     Davidson diagonalization with overlap
     ethr =  1.67E-05,  avg # of iterations =  7.2

     negative rho (up, down):  1.566E-03 1.767E-03

     total cpu time spent up to now is     1274.4 secs

     total energy              =  -21092.59213777 Ry
     estimated scf accuracy    <       0.34062585 Ry

     total magnetization       =   160.31 Bohr mag/cell
     absolute magnetization    =   165.68 Bohr mag/cell

     iteration # 14     ecut=    60.00 Ry     beta= 0.20
     Davidson diagonalization with overlap
     ethr =  1.67E-05,  avg # of iterations =  3.4

     negative rho (up, down):  2.573E-02 1.953E-02

     total cpu time spent up to now is     1344.2 secs

     total energy              =  -21092.58552670 Ry
     estimated scf accuracy    <       0.15968504 Ry

     total magnetization       =   160.84 Bohr mag/cell
     absolute magnetization    =   166.27 Bohr mag/cell

     iteration # 15     ecut=    60.00 Ry     beta= 0.20
     Davidson diagonalization with overlap
     ethr =  1.55E-05,  avg # of iterations =  1.9

     negative rho (up, down):  7.546E-02 6.808E-02

     total cpu time spent up to now is     1401.1 secs

     total energy              =  -21092.57984008 Ry
     estimated scf accuracy    <       0.09565621 Ry

     total magnetization       =   160.94 Bohr mag/cell
     absolute magnetization    =   166.43 Bohr mag/cell

     iteration # 16     ecut=    60.00 Ry     beta= 0.20
     Davidson diagonalization with overlap
     ethr =  9.30E-06,  avg # of iterations = 11.2

     negative rho (up, down):  9.771E-02 9.255E-02

     total cpu time spent up to now is     1485.0 secs

     total energy              =  -21092.56777824 Ry
     estimated scf accuracy    <       0.09788071 Ry

     total magnetization       =   160.76 Bohr mag/cell
     absolute magnetization    =   166.35 Bohr mag/cell

     iteration # 17     ecut=    60.00 Ry     beta= 0.20
     Davidson diagonalization with overlap
     c_bands:  1 eigenvalues not converged
     c_bands:  5 eigenvalues not converged
     ethr =  9.30E-06,  avg # of iterations = 12.7

     negative rho (up, down):  1.116E-01 1.061E-01

     total cpu time spent up to now is     1583.3 secs

     total energy              =  -21092.56312595 Ry
     estimated scf accuracy    <       0.03024470 Ry

     total magnetization       =   160.09 Bohr mag/cell
     absolute magnetization    =   165.79 Bohr mag/cell

     iteration # 18     ecut=    60.00 Ry     beta= 0.20
     Davidson diagonalization with overlap
     c_bands:  3 eigenvalues not converged
     c_bands:  3 eigenvalues not converged
     c_bands:  5 eigenvalues not converged
     ethr =  2.94E-06,  avg # of iterations = 21.4

     negative rho (up, down):  7.149E-02 6.829E-02

     total cpu time spent up to now is     1830.8 secs

     total energy              =  -21092.56647785 Ry
     estimated scf accuracy    <       0.02644221 Ry

     total magnetization       =   160.00 Bohr mag/cell
     absolute magnetization    =   166.29 Bohr mag/cell

     iteration # 19     ecut=    60.00 Ry     beta= 0.20
     Davidson diagonalization with overlap
     c_bands:  1 eigenvalues not converged
     c_bands:  1 eigenvalues not converged
     ethr =  2.57E-06,  avg # of iterations = 15.3

     negative rho (up, down):  6.081E-02 6.143E-02

     total cpu time spent up to now is     1919.6 secs

     total energy              =  -21092.53494180 Ry
     estimated scf accuracy    <       0.01742252 Ry

     total magnetization       =   159.89 Bohr mag/cell
     absolute magnetization    =   166.13 Bohr mag/cell

     iteration # 20     ecut=    60.00 Ry     beta= 0.20
     Davidson diagonalization with overlap
     c_bands:  1 eigenvalues not converged
     ethr =  1.69E-06,  avg # of iterations = 13.8

     negative rho (up, down):  7.308E-02 7.339E-02

     total cpu time spent up to now is     2041.7 secs

     total energy              =  -21092.53421633 Ry
     estimated scf accuracy    <       0.00984933 Ry

     total magnetization       =   160.38 Bohr mag/cell
     absolute magnetization    =   166.92 Bohr mag/cell

     iteration # 21     ecut=    60.00 Ry     beta= 0.20
     Davidson diagonalization with overlap
     ethr =  9.57E-07,  avg # of iterations = 10.1

     negative rho (up, down):  7.363E-02 7.333E-02

     total cpu time spent up to now is     2133.7 secs

     total energy              =  -21092.53398547 Ry
     estimated scf accuracy    <       0.00709795 Ry

     total magnetization       =   160.41 Bohr mag/cell
     absolute magnetization    =   167.00 Bohr mag/cell

     iteration # 22     ecut=    60.00 Ry     beta= 0.20
     Davidson diagonalization with overlap
     ethr =  6.90E-07,  avg # of iterations =  8.3

     negative rho (up, down):  6.757E-02 6.731E-02

     total cpu time spent up to now is     2220.6 secs

     total energy              =  -21092.53519900 Ry
     estimated scf accuracy    <       0.00340471 Ry

     total magnetization       =   160.55 Bohr mag/cell
     absolute magnetization    =   167.17 Bohr mag/cell

     iteration # 23     ecut=    60.00 Ry     beta= 0.20
     Davidson diagonalization with overlap
     ethr =  3.31E-07,  avg # of iterations = 10.7

     negative rho (up, down):  2.541E-02 2.721E-02

     total cpu time spent up to now is     2320.1 secs

     total energy              =  -21092.53736083 Ry
     estimated scf accuracy    <       0.00179624 Ry

     total magnetization       =   160.59 Bohr mag/cell
     absolute magnetization    =   167.26 Bohr mag/cell

     iteration # 24     ecut=    60.00 Ry     beta= 0.20
     Davidson diagonalization with overlap
     ethr =  1.75E-07,  avg # of iterations = 10.2

     negative rho (up, down):  2.248E-02 2.484E-02

     total cpu time spent up to now is     2462.3 secs

     total energy              =  -21092.53825059 Ry
     estimated scf accuracy    <       0.00065099 Ry

     total magnetization       =   160.64 Bohr mag/cell
     absolute magnetization    =   167.31 Bohr mag/cell

     iteration # 25     ecut=    60.00 Ry     beta= 0.20
     Davidson diagonalization with overlap
     ethr =  6.33E-08,  avg # of iterations =  8.0

     negative rho (up, down):  1.464E-02 1.801E-02

     total cpu time spent up to now is     2592.2 secs

     total energy              =  -21092.53986664 Ry
     estimated scf accuracy    <       0.00045796 Ry

     total magnetization       =   160.63 Bohr mag/cell
     absolute magnetization    =   167.30 Bohr mag/cell

     iteration # 26     ecut=    60.00 Ry     beta= 0.20
     Davidson diagonalization with overlap
     ethr =  4.45E-08,  avg # of iterations =  5.8

     negative rho (up, down):  1.260E-02 1.620E-02

     total cpu time spent up to now is     2686.8 secs

     total energy              =  -21092.54027107 Ry
     estimated scf accuracy    <       0.00015672 Ry

     total magnetization       =   160.77 Bohr mag/cell
     absolute magnetization    =   167.48 Bohr mag/cell

     iteration # 27     ecut=    60.00 Ry     beta= 0.20
     Davidson diagonalization with overlap
     ethr =  1.52E-08,  avg # of iterations =  8.7

     negative rho (up, down):  1.169E-02 1.542E-02

     total cpu time spent up to now is     2837.5 secs

     total energy              =  -21092.54071184 Ry
     estimated scf accuracy    <       0.00008388 Ry

     total magnetization       =   160.82 Bohr mag/cell
     absolute magnetization    =   167.57 Bohr mag/cell

     iteration # 28     ecut=    60.00 Ry     beta= 0.20
     Davidson diagonalization with overlap
     ethr =  8.15E-09,  avg # of iterations =  6.0

     negative rho (up, down):  1.136E-02 1.520E-02

     total cpu time spent up to now is     2916.5 secs

     total energy              =  -21092.54116444 Ry
     estimated scf accuracy    <       0.00004150 Ry

     total magnetization       =   160.87 Bohr mag/cell
     absolute magnetization    =   167.64 Bohr mag/cell

     iteration # 29     ecut=    60.00 Ry     beta= 0.20
     Davidson diagonalization with overlap
     c_bands:  4 eigenvalues not converged
     ethr =  4.03E-09,  avg # of iterations =  9.2

     negative rho (up, down):  1.194E-02 1.579E-02

     total cpu time spent up to now is     3056.2 secs

     total energy              =  -21092.54135046 Ry
     estimated scf accuracy    <       0.00002140 Ry

     total magnetization       =   160.89 Bohr mag/cell
     absolute magnetization    =   167.67 Bohr mag/cell

     iteration # 30     ecut=    60.00 Ry     beta= 0.20
     Davidson diagonalization with overlap
     c_bands:  1 eigenvalues not converged
     ethr =  2.08E-09,  avg # of iterations =  9.4

     negative rho (up, down):  1.177E-02 1.562E-02

     total cpu time spent up to now is     3220.6 secs

     total energy              =  -21092.54141875 Ry
     estimated scf accuracy    <       0.00000514 Ry

     total magnetization       =   160.90 Bohr mag/cell
     absolute magnetization    =   167.69 Bohr mag/cell

     iteration # 31     ecut=    60.00 Ry     beta= 0.20
     Davidson diagonalization with overlap
     ethr =  4.99E-10,  avg # of iterations =  8.8

     negative rho (up, down):  1.165E-02 1.550E-02

     total cpu time spent up to now is     3374.2 secs

     total energy              =  -21092.54149093 Ry
     estimated scf accuracy    <       0.00000277 Ry

     total magnetization       =   160.90 Bohr mag/cell
     absolute magnetization    =   167.68 Bohr mag/cell

     iteration # 32     ecut=    60.00 Ry     beta= 0.20
     Davidson diagonalization with overlap
     ethr =  2.69E-10,  avg # of iterations =  5.7

     negative rho (up, down):  1.165E-02 1.551E-02

     total cpu time spent up to now is     3435.8 secs

     total energy              =  -21092.54145396 Ry
     estimated scf accuracy    <       0.00000177 Ry

     total magnetization       =   160.90 Bohr mag/cell
     absolute magnetization    =   167.68 Bohr mag/cell

     iteration # 33     ecut=    60.00 Ry     beta= 0.20
     Davidson diagonalization with overlap
     ethr =  1.72E-10,  avg # of iterations =  6.8

     negative rho (up, down):  1.176E-02 1.562E-02

     total cpu time spent up to now is     3505.3 secs

     total energy              =  -21092.54129017 Ry
     estimated scf accuracy    <       0.00000129 Ry

     total magnetization       =   160.90 Bohr mag/cell
     absolute magnetization    =   167.68 Bohr mag/cell

     iteration # 34     ecut=    60.00 Ry     beta= 0.20
     Davidson diagonalization with overlap
     ethr =  1.25E-10,  avg # of iterations =  9.2

     negative rho (up, down):  1.201E-02 1.587E-02

     total cpu time spent up to now is     3619.2 secs

     total energy              =  -21092.54110646 Ry
     estimated scf accuracy    <       0.00000081 Ry

     total magnetization       =   160.90 Bohr mag/cell
     absolute magnetization    =   167.68 Bohr mag/cell

     iteration # 35     ecut=    60.00 Ry     beta= 0.20
     Davidson diagonalization with overlap
     ethr =  7.87E-11,  avg # of iterations =  7.7

     negative rho (up, down):  1.206E-02 1.592E-02

     total cpu time spent up to now is     3757.5 secs

     total energy              =  -21092.54101991 Ry
     estimated scf accuracy    <       0.00000037 Ry

     total magnetization       =   160.90 Bohr mag/cell
     absolute magnetization    =   167.68 Bohr mag/cell

     iteration # 36     ecut=    60.00 Ry     beta= 0.20
     Davidson diagonalization with overlap
     ethr =  3.62E-11,  avg # of iterations =  6.7

     negative rho (up, down):  1.206E-02 1.591E-02

     total cpu time spent up to now is     3831.2 secs

     total energy              =  -21092.54097756 Ry
     estimated scf accuracy    <       0.00000024 Ry

     total magnetization       =   160.90 Bohr mag/cell
     absolute magnetization    =   167.68 Bohr mag/cell

     iteration # 37     ecut=    60.00 Ry     beta= 0.20
     Davidson diagonalization with overlap
     ethr =  2.33E-11,  avg # of iterations =  6.7

     negative rho (up, down):  1.207E-02 1.592E-02

     total cpu time spent up to now is     3936.1 secs

     total energy              =  -21092.54094834 Ry
     estimated scf accuracy    <       0.00000016 Ry

     total magnetization       =   160.90 Bohr mag/cell
     absolute magnetization    =   167.68 Bohr mag/cell

     iteration # 38     ecut=    60.00 Ry     beta= 0.20
     Davidson diagonalization with overlap
     ethr =  1.54E-11,  avg # of iterations =  8.4

     negative rho (up, down):  1.206E-02 1.591E-02

     total cpu time spent up to now is     4012.4 secs

     total energy              =  -21092.54091767 Ry
     estimated scf accuracy    <       0.00000008 Ry

     total magnetization       =   160.90 Bohr mag/cell
     absolute magnetization    =   167.69 Bohr mag/cell

     iteration # 39     ecut=    60.00 Ry     beta= 0.20
     Davidson diagonalization with overlap
     ethr =  7.52E-12,  avg # of iterations =  8.1

     negative rho (up, down):  1.203E-02 1.589E-02

     total cpu time spent up to now is     4150.5 secs

     total energy              =  -21092.54090561 Ry
     estimated scf accuracy    <       0.00000005 Ry

     total magnetization       =   160.90 Bohr mag/cell
     absolute magnetization    =   167.69 Bohr mag/cell

     iteration # 40     ecut=    60.00 Ry     beta= 0.20
     Davidson diagonalization with overlap
     ethr =  4.72E-12,  avg # of iterations =  7.7

     negative rho (up, down):  1.204E-02 1.590E-02

     total cpu time spent up to now is     4266.2 secs

     total energy              =  -21092.54089539 Ry
     estimated scf accuracy    <       0.00000002 Ry

     total magnetization       =   160.90 Bohr mag/cell
     absolute magnetization    =   167.69 Bohr mag/cell

     iteration # 41     ecut=    60.00 Ry     beta= 0.20
     Davidson diagonalization with overlap
     ethr =  2.21E-12,  avg # of iterations =  6.7

     negative rho (up, down):  1.204E-02 1.590E-02

     total cpu time spent up to now is     4358.9 secs

     total energy              =  -21092.54089360 Ry
     estimated scf accuracy    <       0.00000001 Ry

     total magnetization       =   160.90 Bohr mag/cell
     absolute magnetization    =   167.69 Bohr mag/cell

     iteration # 42     ecut=    60.00 Ry     beta= 0.20
     Davidson diagonalization with overlap
     ethr =  1.34E-12,  avg # of iterations =  6.3

     negative rho (up, down):  1.201E-02 1.587E-02

     Magnetic moment per site:
     atom:    1    charge:   12.6196    magn:    2.3629    constr:    0.0000
     atom:    2    charge:   12.6095    magn:    2.1743    constr:    0.0000
     atom:    3    charge:   12.6191    magn:    2.3656    constr:    0.0000
     atom:    4    charge:   12.6078    magn:    2.2088    constr:    0.0000
     atom:    5    charge:   12.6115    magn:    2.1987    constr:    0.0000
     atom:    6    charge:   12.6142    magn:    2.3591    constr:    0.0000
     atom:    7    charge:   12.6077    magn:    2.2641    constr:    0.0000
     atom:    8    charge:   12.6177    magn:    2.3557    constr:    0.0000
     atom:    9    charge:   12.6196    magn:    2.3590    constr:    0.0000
     atom:   10    charge:   12.6195    magn:    2.3614    constr:    0.0000
     atom:   11    charge:   12.6083    magn:    2.2120    constr:    0.0000
     atom:   12    charge:   12.6088    magn:    2.2015    constr:    0.0000
     atom:   13    charge:   12.6079    magn:    2.2111    constr:    0.0000
     atom:   14    charge:   12.6121    magn:    2.1933    constr:    0.0000
     atom:   15    charge:   12.6206    magn:    2.3341    constr:    0.0000
     atom:   16    charge:   12.6196    magn:    2.3280    constr:    0.0000
     atom:   17    charge:   12.6189    magn:    2.3655    constr:    0.0000
     atom:   18    charge:   12.6078    magn:    2.2088    constr:    0.0000
     atom:   19    charge:   12.6189    magn:    2.3656    constr:    0.0000
     atom:   20    charge:   12.6076    magn:    2.2226    constr:    0.0000
     atom:   21    charge:   12.6080    magn:    2.2639    constr:    0.0000
     atom:   22    charge:   12.6176    magn:    2.3558    constr:    0.0000
     atom:   23    charge:   12.6080    magn:    2.2639    constr:    0.0000
     atom:   24    charge:   12.6282    magn:    1.6220    constr:    0.0000
     atom:   25    charge:   12.6189    magn:    2.3655    constr:    0.0000
     atom:   26    charge:   12.6188    magn:    2.3683    constr:    0.0000
     atom:   27    charge:   12.6075    magn:    2.2335    constr:    0.0000
     atom:   28    charge:   12.6083    magn:    2.2119    constr:    0.0000
     atom:   29    charge:   12.6091    magn:    2.2901    constr:    0.0000
     atom:   30    charge:   12.6128    magn:    2.0885    constr:    0.0000
     atom:   31    charge:   12.6140    magn:    2.1479    constr:    0.0000
     atom:   32    charge:   12.6206    magn:    2.3340    constr:    0.0000
     atom:   33    charge:   12.6195    magn:    2.3629    constr:    0.0000
     atom:   34    charge:   12.6078    magn:    2.2089    constr:    0.0000
     atom:   35    charge:   12.6195    magn:    2.3629    constr:    0.0000
     atom:   36    charge:   12.6099    magn:    2.1744    constr:    0.0000
     atom:   37    charge:   12.6114    magn:    2.1987    constr:    0.0000
     atom:   38    charge:   12.6175    magn:    2.3557    constr:    0.0000
     atom:   39    charge:   12.6114    magn:    2.1988    constr:    0.0000
     atom:   40    charge:   12.6137    magn:    2.3594    constr:    0.0000
     atom:   41    charge:   12.6199    magn:    2.3660    constr:    0.0000
     atom:   42    charge:   12.6193    magn:    2.3684    constr:    0.0000
     atom:   43    charge:   12.6088    magn:    2.2015    constr:    0.0000
     atom:   44    charge:   12.6082    magn:    2.2120    constr:    0.0000
     atom:   45    charge:   12.6113    magn:    2.1474    constr:    0.0000
     atom:   46    charge:   12.6130    magn:    2.0884    constr:    0.0000
     atom:   47    charge:   12.6196    magn:    2.3279    constr:    0.0000
     atom:   48    charge:   12.6205    magn:    2.3343    constr:    0.0000
     atom:   49    charge:   12.6191    magn:    2.3656    constr:    0.0000
     atom:   50    charge:   12.6081    magn:    2.2229    constr:    0.0000
     atom:   51    charge:   12.6196    magn:    2.3629    constr:    0.0000
     atom:   52    charge:   12.6078    magn:    2.2088    constr:    0.0000
     atom:   53    charge:   12.6077    magn:    2.2642    constr:    0.0000
     atom:   54    charge:   12.6280    magn:    1.6220    constr:    0.0000
     atom:   55    charge:   12.6115    magn:    2.1986    constr:    0.0000
     atom:   56    charge:   12.6177    magn:    2.3556    constr:    0.0000
     atom:   57    charge:   12.6196    magn:    2.3590    constr:    0.0000
     atom:   58    charge:   12.6195    magn:    2.3614    constr:    0.0000
     atom:   59    charge:   12.6082    magn:    2.2121    constr:    0.0000
     atom:   60    charge:   12.6075    magn:    2.2335    constr:    0.0000
     atom:   61    charge:   12.6079    magn:    2.2111    constr:    0.0000
     atom:   62    charge:   12.6121    magn:    2.1933    constr:    0.0000
     atom:   63    charge:   12.6205    magn:    2.3344    constr:    0.0000
     atom:   64    charge:   12.6140    magn:    2.1480    constr:    0.0000
     atom:   65    charge:    3.7367    magn:   -0.1338    constr:    0.0000

     total cpu time spent up to now is     4430.2 secs

     End of self-consistent calculation

 ------ SPIN UP ------------


          k = 0.0000 0.0000 0.0000 (128403 PWs)   bands (ev):

   -92.7006 -92.6470 -92.6466 -92.6343 -92.6274 -92.6148 -92.6015 -92.5965
   -92.5963 -92.5945 -92.5941 -92.5919 -92.5866 -92.5853 -92.5822 -92.5808
   -92.5796 -92.5786 -92.5765 -92.5724 -92.5720 -92.5692 -92.5677 -92.5644
   -92.5634 -92.5617 -92.5608 -92.5585 -92.5501 -92.5425 -92.5407 -92.5320
   -92.5300 -92.5284 -92.5283 -92.4788 -92.4680 -92.4670 -92.4610 -92.4607
   -92.4580 -92.4521 -92.4499 -92.4470 -92.4434 -92.4434 -92.4415 -92.4401
   -92.4361 -92.4343 -92.4327 -92.4307 -92.4295 -92.4282 -92.4272 -92.4260
   -92.4222 -92.4182 -92.4156 -92.4096 -92.4071 -92.3910 -92.3862 -92.3849
   -58.8753 -58.8331 -58.8175 -58.8120 -58.8118 -58.8044 -58.7920 -58.7908
   -58.7886 -58.7880 -58.7857 -58.7830 -58.7805 -58.7804 -58.7793 -58.7747
   -58.7744 -58.7721 -58.7703 -58.7692 -58.7667 -58.7666 -58.7653 -58.7608
   -58.7573 -58.7570 -58.7566 -58.7526 -58.7502 -58.7459 -58.7458 -58.7413
   -58.7410 -58.7374 -58.7349 -58.7334 -58.7309 -58.7226 -58.7216 -58.7210
   -58.7194 -58.7090 -58.6983 -58.6977 -58.6951 -58.6940 -58.6888 -58.6852
   -58.6747 -58.6718 -58.6618 -58.6561 -58.6517 -58.6448 -58.6400 -58.6396
   -58.6367 -58.6353 -58.6318 -58.6314 -58.6270 -58.6256 -58.6236 -58.6205
   -58.6202 -58.6162 -58.6153 -58.6135 -58.6122 -58.6111 -58.6043 -58.6016
   -58.5978 -58.5968 -58.5946 -58.5911 -58.5855 -58.5831 -58.5812 -58.5782
   -58.5714 -58.5702 -58.5694 -58.5677 -58.5674 -58.5645 -58.5619 -58.5570
   -58.5564 -58.5556 -58.5539 -58.5535 -58.5530 -58.5505 -58.5484 -58.5482
   -58.5479 -58.5469 -58.5430 -58.5394 -58.5394 -58.5340 -58.5313 -58.5301
   -58.5283 -58.5265 -58.5218 -58.5191 -58.5180 -58.5154 -58.5132 -58.5110
   -58.5104 -58.5090 -58.5032 -58.5003 -58.4993 -58.4940 -58.4939 -58.4909
   -58.4907 -58.4894 -58.4891 -58.4849 -58.4834 -58.4812 -58.4805 -58.4782
   -58.4766 -58.4752 -58.4715 -58.4710 -58.4709 -58.4694 -58.4655 -58.4649
   -58.4522 -58.4513 -58.4508 -58.4497 -58.4463 -58.4431 -58.4430 -58.4406
   -58.4368 -58.4365 -58.4356 -58.4338 -58.4298 -58.4284 -58.4259 -58.4234
   -58.4228 -58.4225 -58.4223 -58.4212 -58.4165 -58.4121 -58.4113 -58.4099
   -58.4061 -58.4042 -58.4008 -58.4000 -58.4000 -58.3936 -58.3911 -58.3856
   -58.3840 -58.3825 -58.3745 -58.3720 -58.3719 -58.3693 -58.3673 -58.3623
   -58.3576 -58.3562 -58.3502 -58.3482 -58.3476 -58.3456 -58.3454 -58.3404
   -58.3379 -58.3346 -58.3316 -58.3300 -58.3260 -58.3256 -58.2585 -58.2576
   -20.0288 -12.3563 -11.0991 -11.0700 -11.0191 -10.7389 -10.6965 -10.5675
   -10.5040 -10.2883 -10.1862  -9.9500  -9.7372  -9.7206  -9.6161  -9.5566
    -9.5255  -9.2928  -9.2558  -9.2038  -9.0849  -9.0570  -9.0538  -9.0282
    -9.0102  -8.9839  -8.9757  -8.9034  -8.8213  -8.6771  -8.6271  -8.6249
    -8.5972  -8.5772  -8.5641  -8.5402  -8.5225  -8.5155  -8.5068  -8.4996
    -8.4904  -8.4899  -8.4871  -8.4826  -8.4765  -8.4678  -8.4545  -8.4518
    -8.4305  -8.4260  -8.4232  -8.4038  -8.4037  -8.3977  -8.3695  -8.3548
    -8.3301  -8.3081  -8.2946  -8.2416  -8.2370  -8.2262  -8.2205  -8.1560
    -8.0661  -7.9790  -7.9635  -7.9381  -7.9156  -7.9099  -7.9057  -7.9052
    -7.8700  -7.8308  -7.7892  -7.7632  -7.7510  -7.7479  -7.7408  -7.7306
    -7.7293  -7.7292  -7.7086  -7.7033  -7.6929  -7.6887  -7.6879  -7.6861
    -7.6830  -7.6682  -7.6602  -7.6577  -7.6485  -7.6445  -7.6281  -7.6196
    -7.6100  -7.5996  -7.5922  -7.5856  -7.5841  -7.5750  -7.5746  -7.5635
    -7.5590  -7.5465  -7.5388  -7.5379  -7.5268  -7.4576  -7.4465  -7.4457
    -7.3784  -7.3770  -7.3767  -7.3692  -7.3630  -7.3294  -7.2961  -7.2821
    -7.2522  -7.2121  -7.1882  -7.1754  -7.1617  -7.1611  -7.1507  -7.1471
    -7.1415  -7.1278  -7.1245  -7.0851  -7.0767  -7.0738  -7.0537  -7.0470
    -7.0406  -7.0314  -7.0258  -7.0181  -7.0134  -7.0114  -7.0030  -6.9876
    -6.9791  -6.9531  -6.9361  -6.8938  -6.8582  -6.8556  -6.8550  -6.8498
    -6.8493  -6.8317  -6.8263  -6.8049  -6.8032  -6.7843  -6.7747  -6.7438
    -6.7265  -6.7256  -6.7207  -6.7190  -6.7157  -6.7126  -6.7047  -6.7008
    -6.6995  -6.6516  -6.6301  -6.6201  -6.6190  -6.6019  -6.5980  -6.5953
    -6.5854  -6.5724  -6.5709  -6.5700  -6.5678  -6.5572  -6.5524  -6.5323
    -6.5210  -6.4800  -6.4675  -6.4454  -6.3320  -6.3194  -6.2103  -6.1836
    -6.0802  -6.0617  -6.0537  -6.0521  -6.0498  -6.0428  -6.0371  -6.0313
    -6.0225  -6.0161  -5.9992  -5.9960  -5.9888  -5.9832  -5.9543  -5.9339
    -5.9292  -5.9124  -5.8921  -5.8911  -5.8911  -5.8713  -5.8608  -5.8581
    -5.8510  -5.8438  -5.8417  -5.8411  -5.8182  -5.8175  -5.8004  -5.7990
    -5.7872  -5.7790  -5.7781  -5.7686  -5.7454  -5.7320  -5.7302  -5.7184
    -5.7083  -5.7056  -5.7026  -5.6998  -5.6977  -5.6786  -5.6750  -5.6695
    -5.6694  -5.6661  -5.6558  -5.6507  -5.6470  -5.6344  -5.6291  -5.6259
    -5.6223  -5.6223  -5.6160  -5.6119  -5.6114  -5.6101  -5.6007  -5.5975
    -5.5969  -5.5921  -5.5799  -5.5797  -5.5672  -5.5628  -5.5614  -5.5547
    -5.5504  -5.5307  -5.5306  -5.5167  -5.5144  -5.5123  -5.5105  -5.5001
    -5.4980  -5.4936  -5.4905  -5.4896  -5.4693  -5.4657  -5.4462  -5.4414
    -5.4285  -5.4122  -5.4012  -5.4010  -5.3904  -5.3867  -5.3801  -5.3762
    -5.3703  -5.3624  -5.3431  -5.3292  -5.2624  -5.2479  -5.2441  -5.2382
    -5.2363  -5.2337  -5.2311  -5.2269  -5.2256  -5.2113  -5.1980  -5.1958
    -5.1915  -5.1809  -5.1780  -5.1738  -5.1636  -5.1633  -5.1359  -5.1319
    -5.1257  -5.0708  -5.0626  -4.8804  -4.7962  -4.7736  -4.7554  -4.7431
    -4.7136  -4.6760  -4.6492  -4.6414  -4.6218  -4.5916  -4.5736  -4.5528
    -4.5521  -4.4988  -4.4970  -4.4965  -4.4636  -4.4361  -4.4339  -4.4235
    -4.3956  -4.3620  -4.3027  -4.2865  -4.2783  -4.2254  -4.2142  -4.1710
    -4.1445  -3.8839  -3.8184  -3.7346  -3.5181  -3.4279  -3.4139  -3.3991
    -3.3688  -3.0019  -2.8645  -2.7989  -2.6062  -2.5647  -2.5538  -2.5155
    -2.4587  -2.4510

          k = 0.0000 0.2652 0.0000 (128375 PWs)   bands (ev):

   -92.7006 -92.6469 -92.6466 -92.6342 -92.6274 -92.6137 -92.6040 -92.5964
   -92.5961 -92.5950 -92.5938 -92.5898 -92.5867 -92.5855 -92.5843 -92.5816
   -92.5785 -92.5766 -92.5760 -92.5723 -92.5720 -92.5701 -92.5681 -92.5650
   -92.5629 -92.5614 -92.5611 -92.5572 -92.5508 -92.5427 -92.5407 -92.5318
   -92.5304 -92.5287 -92.5278 -92.4779 -92.4713 -92.4640 -92.4632 -92.4594
   -92.4572 -92.4528 -92.4497 -92.4461 -92.4438 -92.4434 -92.4413 -92.4402
   -92.4371 -92.4358 -92.4308 -92.4300 -92.4298 -92.4278 -92.4269 -92.4259
   -92.4219 -92.4196 -92.4164 -92.4090 -92.4065 -92.3913 -92.3860 -92.3851
   -58.8751 -58.8310 -58.8200 -58.8122 -58.8106 -58.8034 -58.7951 -58.7920
   -58.7890 -58.7852 -58.7845 -58.7831 -58.7807 -58.7802 -58.7782 -58.7755
   -58.7738 -58.7714 -58.7683 -58.7672 -58.7664 -58.7654 -58.7638 -58.7600
   -58.7588 -58.7577 -58.7554 -58.7527 -58.7493 -58.7480 -58.7449 -58.7437
   -58.7404 -58.7376 -58.7334 -58.7290 -58.7275 -58.7207 -58.7189 -58.7166
   -58.7107 -58.7065 -58.7041 -58.6964 -58.6928 -58.6878 -58.6848 -58.6838
   -58.6819 -58.6678 -58.6660 -58.6583 -58.6551 -58.6488 -58.6469 -58.6446
   -58.6408 -58.6379 -58.6344 -58.6306 -58.6289 -58.6276 -58.6221 -58.6201
   -58.6180 -58.6178 -58.6159 -58.6136 -58.6124 -58.6113 -58.6092 -58.6080
   -58.6065 -58.6035 -58.6020 -58.5982 -58.5964 -58.5895 -58.5868 -58.5839
   -58.5834 -58.5793 -58.5762 -58.5723 -58.5688 -58.5657 -58.5642 -58.5626
   -58.5590 -58.5586 -58.5558 -58.5501 -58.5483 -58.5461 -58.5451 -58.5447
   -58.5409 -58.5366 -58.5359 -58.5343 -58.5307 -58.5275 -58.5256 -58.5241
   -58.5231 -58.5220 -58.5205 -58.5175 -58.5164 -58.5145 -58.5143 -58.5109
   -58.5098 -58.5074 -58.5059 -58.5032 -58.4997 -58.4988 -58.4972 -58.4941
   -58.4922 -58.4886 -58.4873 -58.4829 -58.4821 -58.4787 -58.4776 -58.4751
   -58.4742 -58.4716 -58.4702 -58.4666 -58.4641 -58.4633 -58.4579 -58.4574
   -58.4533 -58.4521 -58.4500 -58.4471 -58.4451 -58.4427 -58.4390 -58.4382
   -58.4375 -58.4360 -58.4336 -58.4314 -58.4298 -58.4286 -58.4259 -58.4238
   -58.4223 -58.4218 -58.4191 -58.4168 -58.4157 -58.4123 -58.4118 -58.4107
   -58.4092 -58.4057 -58.4017 -58.3991 -58.3975 -58.3920 -58.3899 -58.3861
   -58.3801 -58.3783 -58.3769 -58.3732 -58.3709 -58.3692 -58.3659 -58.3635
   -58.3597 -58.3580 -58.3545 -58.3529 -58.3507 -58.3482 -58.3464 -58.3428
   -58.3403 -58.3398 -58.3348 -58.3309 -58.3298 -58.3263 -58.2590 -58.2580
   -20.0288 -12.2456 -11.4279 -11.0665 -11.0199 -10.8226 -10.7496 -10.5416
   -10.3698 -10.1892 -10.0210  -9.8878  -9.7620  -9.6713  -9.5901  -9.5319
    -9.3710  -9.3316  -9.2569  -9.1687  -9.1005  -9.0630  -9.0037  -8.9995
    -8.9795  -8.9539  -8.9378  -8.9051  -8.8892  -8.7762  -8.7198  -8.6793
    -8.6607  -8.6341  -8.6254  -8.6156  -8.6086  -8.5954  -8.5802  -8.5656
    -8.5638  -8.5369  -8.5284  -8.5081  -8.5051  -8.4794  -8.4662  -8.4523
    -8.4273  -8.4234  -8.4039  -8.3954  -8.3777  -8.3477  -8.3334  -8.3318
    -8.3242  -8.3190  -8.2779  -8.2318  -8.2012  -8.1629  -8.1601  -8.1230
    -8.1006  -8.0573  -8.0373  -7.9976  -7.9706  -7.9376  -7.9107  -7.8765
    -7.8557  -7.8353  -7.8026  -7.7715  -7.7629  -7.7464  -7.7456  -7.7311
    -7.7218  -7.7173  -7.7049  -7.6994  -7.6928  -7.6835  -7.6725  -7.6636
    -7.6554  -7.6435  -7.6413  -7.6323  -7.6248  -7.6170  -7.6133  -7.6064
    -7.6008  -7.5937  -7.5873  -7.5824  -7.5715  -7.5554  -7.5531  -7.5191
    -7.5054  -7.4972  -7.4851  -7.4832  -7.4760  -7.4577  -7.4527  -7.4357
    -7.4273  -7.4212  -7.3659  -7.3394  -7.3285  -7.3155  -7.3029  -7.2754
    -7.2637  -7.2452  -7.2331  -7.2194  -7.1967  -7.1578  -7.1472  -7.1416
    -7.1323  -7.1202  -7.1133  -7.1117  -7.0980  -7.0887  -7.0834  -7.0775
    -7.0593  -7.0441  -7.0435  -7.0295  -7.0242  -7.0105  -7.0013  -6.9884
    -6.9644  -6.9370  -6.9175  -6.9107  -6.8759  -6.8724  -6.8662  -6.8641
    -6.8541  -6.8406  -6.8309  -6.8252  -6.8201  -6.8132  -6.8004  -6.7934
    -6.7839  -6.7823  -6.7740  -6.7603  -6.7424  -6.7258  -6.6864  -6.6743
    -6.6702  -6.6522  -6.6501  -6.6261  -6.6169  -6.5999  -6.5862  -6.5699
    -6.5641  -6.5495  -6.5412  -6.5114  -6.4985  -6.4791  -6.4496  -6.4372
    -6.4236  -6.3840  -6.3768  -6.3592  -6.3063  -6.2097  -6.1908  -6.1741
    -6.1601  -6.1486  -6.1224  -6.0940  -6.0869  -6.0749  -6.0481  -6.0352
    -6.0235  -6.0187  -6.0075  -5.9941  -5.9913  -5.9859  -5.9732  -5.9636
    -5.9567  -5.9357  -5.9353  -5.9170  -5.9078  -5.8990  -5.8862  -5.8605
    -5.8559  -5.8477  -5.8355  -5.8257  -5.8223  -5.8083  -5.8033  -5.8015
    -5.7946  -5.7886  -5.7731  -5.7484  -5.7401  -5.7370  -5.7286  -5.7167
    -5.7120  -5.7073  -5.7023  -5.6935  -5.6882  -5.6830  -5.6820  -5.6749
    -5.6674  -5.6605  -5.6504  -5.6465  -5.6379  -5.6286  -5.6239  -5.6164
    -5.6115  -5.6066  -5.5990  -5.5913  -5.5864  -5.5835  -5.5808  -5.5730
    -5.5659  -5.5630  -5.5532  -5.5504  -5.5374  -5.5314  -5.5275  -5.5240
    -5.5162  -5.5141  -5.5095  -5.5054  -5.5022  -5.4954  -5.4918  -5.4788
    -5.4762  -5.4718  -5.4622  -5.4519  -5.4401  -5.4360  -5.4223  -5.4149
    -5.4022  -5.3767  -5.3698  -5.3637  -5.3597  -5.3543  -5.3461  -5.3295
    -5.3263  -5.3171  -5.3088  -5.3031  -5.2968  -5.2930  -5.2744  -5.2604
    -5.2454  -5.2375  -5.2346  -5.2279  -5.2217  -5.2089  -5.2002  -5.1972
    -5.1856  -5.1794  -5.1559  -5.1457  -5.1289  -5.0906  -5.0599  -5.0520
    -5.0414  -5.0069  -4.8808  -4.8602  -4.8530  -4.8225  -4.7839  -4.7732
    -4.7598  -4.7446  -4.7243  -4.6987  -4.6799  -4.6544  -4.6443  -4.6343
    -4.6087  -4.6000  -4.5852  -4.5835  -4.5657  -4.5516  -4.5317  -4.5176
    -4.5006  -4.4333  -4.4292  -4.4072  -4.3694  -4.3222  -4.1945  -4.0326
    -3.9076  -3.8744  -3.7942  -3.7010  -3.6408  -3.5330  -3.3994  -3.3896
    -3.1739  -3.1452  -3.1245  -3.1021  -2.9900  -2.8245  -2.7854  -2.6758
    -2.6523  -2.5263

          k = 0.0000-0.5303 0.0000 (128388 PWs)   bands (ev):

   -92.7006 -92.6468 -92.6467 -92.6342 -92.6274 -92.6119 -92.6070 -92.5962
   -92.5958 -92.5953 -92.5923 -92.5914 -92.5870 -92.5844 -92.5834 -92.5834
   -92.5792 -92.5745 -92.5741 -92.5722 -92.5721 -92.5719 -92.5692 -92.5641
   -92.5624 -92.5620 -92.5617 -92.5553 -92.5520 -92.5428 -92.5406 -92.5313
   -92.5311 -92.5287 -92.5275 -92.4752 -92.4751 -92.4637 -92.4619 -92.4601
   -92.4563 -92.4551 -92.4475 -92.4453 -92.4440 -92.4436 -92.4417 -92.4403
   -92.4394 -92.4356 -92.4305 -92.4298 -92.4285 -92.4273 -92.4264 -92.4260
   -92.4219 -92.4212 -92.4169 -92.4088 -92.4056 -92.3915 -92.3858 -92.3854
   -58.8750 -58.8269 -58.8240 -58.8126 -58.8096 -58.8016 -58.7983 -58.7926
   -58.7897 -58.7838 -58.7826 -58.7820 -58.7820 -58.7803 -58.7789 -58.7734
   -58.7729 -58.7710 -58.7682 -58.7651 -58.7639 -58.7636 -58.7622 -58.7617
   -58.7593 -58.7572 -58.7560 -58.7515 -58.7509 -58.7503 -58.7440 -58.7433
   -58.7392 -58.7390 -58.7335 -58.7287 -58.7193 -58.7146 -58.7123 -58.7093
   -58.7088 -58.7055 -58.7049 -58.6981 -58.6929 -58.6858 -58.6806 -58.6768
   -58.6737 -58.6697 -58.6697 -58.6655 -58.6648 -58.6543 -58.6532 -58.6524
   -58.6488 -58.6448 -58.6395 -58.6320 -58.6298 -58.6283 -58.6277 -58.6254
   -58.6215 -58.6171 -58.6145 -58.6143 -58.6118 -58.6106 -58.6085 -58.6084
   -58.6062 -58.6002 -58.5995 -58.5957 -58.5954 -58.5938 -58.5935 -58.5906
   -58.5851 -58.5849 -58.5812 -58.5807 -58.5769 -58.5753 -58.5720 -58.5690
   -58.5662 -58.5660 -58.5558 -58.5521 -58.5493 -58.5492 -58.5436 -58.5385
   -58.5369 -58.5359 -58.5333 -58.5321 -58.5302 -58.5269 -58.5231 -58.5220
   -58.5213 -58.5167 -58.5159 -58.5154 -58.5131 -58.5119 -58.5080 -58.5075
   -58.5029 -58.4997 -58.4997 -58.4965 -58.4964 -58.4934 -58.4902 -58.4898
   -58.4886 -58.4880 -58.4856 -58.4842 -58.4839 -58.4805 -58.4774 -58.4739
   -58.4721 -58.4715 -58.4697 -58.4681 -58.4632 -58.4591 -58.4582 -58.4560
   -58.4553 -58.4547 -58.4489 -58.4476 -58.4453 -58.4452 -58.4411 -58.4367
   -58.4358 -58.4305 -58.4301 -58.4295 -58.4293 -58.4268 -58.4246 -58.4237
   -58.4232 -58.4201 -58.4201 -58.4181 -58.4174 -58.4160 -58.4103 -58.4083
   -58.4011 -58.3999 -58.3986 -58.3969 -58.3918 -58.3897 -58.3888 -58.3842
   -58.3793 -58.3789 -58.3751 -58.3708 -58.3698 -58.3686 -58.3663 -58.3654
   -58.3640 -58.3615 -58.3587 -58.3555 -58.3550 -58.3522 -58.3520 -58.3485
   -58.3443 -58.3434 -58.3401 -58.3313 -58.3312 -58.3266 -58.2595 -58.2584
   -20.0288 -11.9582 -11.8817 -11.0654 -10.9967 -10.8201 -10.6289 -10.6114
   -10.5161 -10.1534  -9.8885  -9.8335  -9.6492  -9.6357  -9.3970  -9.3493
    -9.3490  -9.2789  -9.2567  -9.2201  -9.1266  -9.0689  -9.0624  -9.0439
    -8.9590  -8.9185  -8.8671  -8.8624  -8.8538  -8.8514  -8.8276  -8.8181
    -8.8037  -8.7992  -8.7849  -8.7614  -8.7051  -8.6590  -8.6393  -8.5822
    -8.5578  -8.5241  -8.4930  -8.4845  -8.4576  -8.4540  -8.4020  -8.3996
    -8.3908  -8.3889  -8.3854  -8.3736  -8.3651  -8.3625  -8.3411  -8.3382
    -8.2845  -8.2678  -8.2564  -8.2303  -8.2130  -8.1982  -8.1680  -8.1498
    -8.1189  -8.1141  -8.0692  -8.0489  -8.0064  -8.0026  -7.9740  -7.9550
    -7.9072  -7.8360  -7.7902  -7.7715  -7.7463  -7.7423  -7.7375  -7.7320
    -7.7259  -7.6990  -7.6918  -7.6857  -7.6757  -7.6731  -7.6678  -7.6609
    -7.6554  -7.6422  -7.6329  -7.6310  -7.6217  -7.6118  -7.6097  -7.5789
    -7.5594  -7.5404  -7.5319  -7.5318  -7.5101  -7.4976  -7.4880  -7.4799
    -7.4621  -7.4581  -7.4480  -7.4472  -7.4391  -7.4342  -7.4293  -7.4130
    -7.4058  -7.4022  -7.3983  -7.3823  -7.3814  -7.3585  -7.3506  -7.3412
    -7.2616  -7.2582  -7.2205  -7.1725  -7.1510  -7.1389  -7.1370  -7.1225
    -7.1150  -7.1104  -7.1080  -7.1036  -7.0968  -7.0962  -7.0789  -7.0752
    -7.0693  -7.0677  -7.0639  -7.0609  -7.0552  -7.0405  -7.0253  -7.0188
    -7.0052  -6.9881  -6.9793  -6.9695  -6.9539  -6.9314  -6.9257  -6.9077
    -6.9067  -6.9019  -6.8837  -6.8743  -6.8652  -6.8499  -6.8450  -6.8325
    -6.8167  -6.7937  -6.7761  -6.7460  -6.7433  -6.6842  -6.6772  -6.6625
    -6.6204  -6.6195  -6.6112  -6.5990  -6.5912  -6.5851  -6.5825  -6.5608
    -6.5552  -6.4650  -6.3980  -6.3813  -6.3490  -6.3457  -6.3378  -6.3022
    -6.2932  -6.2801  -6.2663  -6.2511  -6.2356  -6.2195  -6.1861  -6.1805
    -6.1601  -6.1519  -6.1421  -6.1407  -6.1385  -6.1227  -6.0978  -6.0877
    -6.0855  -6.0781  -6.0716  -6.0541  -6.0132  -5.9860  -5.9832  -5.9725
    -5.9579  -5.9475  -5.9395  -5.9375  -5.9172  -5.9109  -5.8958  -5.8952
    -5.8827  -5.8562  -5.8392  -5.8281  -5.8243  -5.8153  -5.8090  -5.8029
    -5.7961  -5.7933  -5.7894  -5.7873  -5.7838  -5.7776  -5.7718  -5.7703
    -5.7662  -5.7592  -5.7430  -5.7278  -5.7158  -5.6826  -5.6701  -5.6471
    -5.6465  -5.6419  -5.6407  -5.6373  -5.6341  -5.6212  -5.6193  -5.6114
    -5.6110  -5.5913  -5.5883  -5.5832  -5.5810  -5.5715  -5.5701  -5.5665
    -5.5552  -5.5549  -5.5476  -5.5392  -5.5262  -5.5259  -5.5189  -5.5170
    -5.4990  -5.4798  -5.4747  -5.4654  -5.4645  -5.4555  -5.4351  -5.4327
    -5.4181  -5.4178  -5.4023  -5.3989  -5.3931  -5.3842  -5.3762  -5.3704
    -5.3552  -5.3547  -5.3508  -5.3507  -5.3412  -5.3410  -5.3316  -5.3311
    -5.3255  -5.3252  -5.3108  -5.2987  -5.2977  -5.2908  -5.2814  -5.2812
    -5.2568  -5.2394  -5.2224  -5.2152  -5.1437  -5.1429  -5.1364  -5.1131
    -5.1000  -5.0800  -5.0583  -5.0259  -5.0184  -4.9584  -4.9511  -4.9444
    -4.9296  -4.9185  -4.9126  -4.8907  -4.8650  -4.8513  -4.8505  -4.8403
    -4.8283  -4.8185  -4.7934  -4.7899  -4.7755  -4.7656  -4.7008  -4.6953
    -4.6577  -4.6552  -4.6529  -4.6237  -4.6032  -4.5923  -4.5771  -4.5678
    -4.5621  -4.5552  -4.5209  -4.5188  -4.5093  -4.4986  -4.3091  -4.2641
    -4.1967  -4.0876  -3.8021  -3.8013  -3.5638  -3.5526  -3.4699  -3.4528
    -3.1665  -3.1013  -2.8630  -2.8399  -2.7719  -2.7604  -2.6880  -2.6803
    -2.6728  -2.6189

          k = 0.2500-0.0884 0.0000 (128371 PWs)   bands (ev):

   -92.7006 -92.6469 -92.6466 -92.6342 -92.6274 -92.6137 -92.6040 -92.5964
   -92.5961 -92.5950 -92.5938 -92.5898 -92.5867 -92.5855 -92.5843 -92.5816
   -92.5785 -92.5766 -92.5760 -92.5723 -92.5720 -92.5701 -92.5680 -92.5650
   -92.5629 -92.5614 -92.5611 -92.5572 -92.5508 -92.5427 -92.5407 -92.5318
   -92.5304 -92.5287 -92.5278 -92.4779 -92.4713 -92.4640 -92.4632 -92.4594
   -92.4572 -92.4528 -92.4497 -92.4461 -92.4438 -92.4434 -92.4413 -92.4402
   -92.4371 -92.4358 -92.4308 -92.4300 -92.4298 -92.4278 -92.4269 -92.4259
   -92.4219 -92.4196 -92.4164 -92.4090 -92.4065 -92.3913 -92.3860 -92.3851
   -58.8751 -58.8310 -58.8200 -58.8122 -58.8106 -58.8034 -58.7951 -58.7920
   -58.7890 -58.7852 -58.7845 -58.7831 -58.7807 -58.7802 -58.7782 -58.7755
   -58.7738 -58.7714 -58.7683 -58.7672 -58.7664 -58.7654 -58.7638 -58.7600
   -58.7588 -58.7577 -58.7554 -58.7527 -58.7493 -58.7480 -58.7449 -58.7437
   -58.7404 -58.7376 -58.7334 -58.7290 -58.7275 -58.7207 -58.7189 -58.7166
   -58.7107 -58.7065 -58.7041 -58.6964 -58.6928 -58.6878 -58.6848 -58.6838
   -58.6819 -58.6678 -58.6660 -58.6583 -58.6551 -58.6488 -58.6469 -58.6446
   -58.6408 -58.6379 -58.6344 -58.6306 -58.6289 -58.6276 -58.6221 -58.6201
   -58.6180 -58.6178 -58.6159 -58.6136 -58.6124 -58.6113 -58.6092 -58.6080
   -58.6065 -58.6035 -58.6020 -58.5982 -58.5964 -58.5895 -58.5868 -58.5839
   -58.5834 -58.5793 -58.5762 -58.5723 -58.5688 -58.5657 -58.5642 -58.5626
   -58.5590 -58.5586 -58.5558 -58.5501 -58.5483 -58.5461 -58.5451 -58.5447
   -58.5409 -58.5366 -58.5359 -58.5343 -58.5306 -58.5275 -58.5256 -58.5241
   -58.5231 -58.5220 -58.5205 -58.5175 -58.5163 -58.5145 -58.5143 -58.5109
   -58.5098 -58.5074 -58.5059 -58.5032 -58.4997 -58.4988 -58.4972 -58.4941
   -58.4922 -58.4886 -58.4873 -58.4829 -58.4821 -58.4787 -58.4776 -58.4751
   -58.4742 -58.4716 -58.4702 -58.4666 -58.4641 -58.4633 -58.4579 -58.4574
   -58.4533 -58.4521 -58.4500 -58.4471 -58.4451 -58.4427 -58.4390 -58.4382
   -58.4375 -58.4360 -58.4336 -58.4314 -58.4297 -58.4286 -58.4259 -58.4238
   -58.4223 -58.4218 -58.4191 -58.4168 -58.4157 -58.4123 -58.4118 -58.4107
   -58.4092 -58.4057 -58.4017 -58.3991 -58.3975 -58.3920 -58.3899 -58.3861
   -58.3801 -58.3783 -58.3769 -58.3732 -58.3709 -58.3692 -58.3659 -58.3635
   -58.3597 -58.3580 -58.3545 -58.3529 -58.3507 -58.3482 -58.3464 -58.3428
   -58.3403 -58.3398 -58.3348 -58.3309 -58.3298 -58.3263 -58.2590 -58.2580
   -20.0288 -12.2456 -11.4279 -11.0665 -11.0199 -10.8226 -10.7496 -10.5415
   -10.3698 -10.1892 -10.0210  -9.8878  -9.7620  -9.6713  -9.5901  -9.5319
    -9.3710  -9.3316  -9.2569  -9.1687  -9.1005  -9.0630  -9.0037  -8.9995
    -8.9795  -8.9539  -8.9378  -8.9051  -8.8892  -8.7762  -8.7198  -8.6793
    -8.6607  -8.6341  -8.6254  -8.6156  -8.6086  -8.5954  -8.5802  -8.5656
    -8.5638  -8.5369  -8.5284  -8.5081  -8.5051  -8.4794  -8.4662  -8.4523
    -8.4273  -8.4234  -8.4039  -8.3954  -8.3777  -8.3477  -8.3334  -8.3318
    -8.3242  -8.3190  -8.2779  -8.2318  -8.2012  -8.1629  -8.1601  -8.1230
    -8.1006  -8.0573  -8.0373  -7.9976  -7.9706  -7.9376  -7.9107  -7.8765
    -7.8557  -7.8353  -7.8026  -7.7715  -7.7629  -7.7464  -7.7456  -7.7311
    -7.7218  -7.7173  -7.7049  -7.6994  -7.6928  -7.6835  -7.6725  -7.6636
    -7.6554  -7.6435  -7.6413  -7.6323  -7.6248  -7.6170  -7.6133  -7.6064
    -7.6008  -7.5937  -7.5873  -7.5824  -7.5715  -7.5554  -7.5531  -7.5191
    -7.5054  -7.4972  -7.4851  -7.4832  -7.4760  -7.4577  -7.4527  -7.4357
    -7.4273  -7.4212  -7.3659  -7.3394  -7.3285  -7.3155  -7.3030  -7.2754
    -7.2637  -7.2452  -7.2331  -7.2194  -7.1967  -7.1578  -7.1472  -7.1416
    -7.1323  -7.1202  -7.1133  -7.1117  -7.0980  -7.0887  -7.0834  -7.0775
    -7.0593  -7.0441  -7.0435  -7.0295  -7.0242  -7.0105  -7.0013  -6.9884
    -6.9644  -6.9370  -6.9175  -6.9107  -6.8759  -6.8724  -6.8662  -6.8641
    -6.8541  -6.8406  -6.8309  -6.8252  -6.8201  -6.8131  -6.8004  -6.7934
    -6.7839  -6.7823  -6.7740  -6.7603  -6.7424  -6.7258  -6.6864  -6.6743
    -6.6702  -6.6522  -6.6501  -6.6261  -6.6169  -6.5999  -6.5862  -6.5699
    -6.5642  -6.5496  -6.5413  -6.5114  -6.4985  -6.4791  -6.4496  -6.4372
    -6.4236  -6.3840  -6.3768  -6.3592  -6.3063  -6.2097  -6.1908  -6.1741
    -6.1601  -6.1486  -6.1224  -6.0940  -6.0869  -6.0749  -6.0481  -6.0352
    -6.0235  -6.0187  -6.0075  -5.9941  -5.9913  -5.9859  -5.9732  -5.9636
    -5.9567  -5.9357  -5.9353  -5.9170  -5.9078  -5.8990  -5.8862  -5.8605
    -5.8559  -5.8477  -5.8355  -5.8257  -5.8223  -5.8083  -5.8033  -5.8015
    -5.7946  -5.7886  -5.7731  -5.7484  -5.7401  -5.7370  -5.7286  -5.7167
    -5.7120  -5.7073  -5.7023  -5.6934  -5.6882  -5.6830  -5.6820  -5.6748
    -5.6673  -5.6605  -5.6504  -5.6465  -5.6379  -5.6286  -5.6239  -5.6164
    -5.6115  -5.6066  -5.5990  -5.5913  -5.5864  -5.5835  -5.5808  -5.5730
    -5.5659  -5.5630  -5.5532  -5.5504  -5.5374  -5.5314  -5.5275  -5.5240
    -5.5162  -5.5141  -5.5095  -5.5054  -5.5022  -5.4954  -5.4918  -5.4788
    -5.4762  -5.4718  -5.4622  -5.4519  -5.4401  -5.4360  -5.4223  -5.4148
    -5.4022  -5.3767  -5.3699  -5.3637  -5.3597  -5.3543  -5.3461  -5.3295
    -5.3263  -5.3171  -5.3087  -5.3031  -5.2968  -5.2930  -5.2744  -5.2604
    -5.2454  -5.2375  -5.2346  -5.2279  -5.2217  -5.2089  -5.2002  -5.1973
    -5.1856  -5.1794  -5.1559  -5.1456  -5.1289  -5.0906  -5.0599  -5.0520
    -5.0414  -5.0069  -4.8808  -4.8602  -4.8530  -4.8225  -4.7839  -4.7732
    -4.7598  -4.7446  -4.7243  -4.6987  -4.6799  -4.6544  -4.6443  -4.6343
    -4.6088  -4.6000  -4.5852  -4.5835  -4.5657  -4.5516  -4.5317  -4.5176
    -4.5006  -4.4333  -4.4292  -4.4072  -4.3694  -4.3222  -4.1946  -4.0326
    -3.9076  -3.8744  -3.7942  -3.7010  -3.6408  -3.5331  -3.3994  -3.3896
    -3.1739  -3.1452  -3.1245  -3.1021  -2.9900  -2.8245  -2.7853  -2.6755
    -2.6522  -2.5261

          k = 0.2500 0.1768 0.0000 (128340 PWs)   bands (ev):

   -92.7006 -92.6469 -92.6465 -92.6342 -92.6275 -92.6130 -92.6030 -92.5996
   -92.5971 -92.5942 -92.5942 -92.5885 -92.5878 -92.5864 -92.5819 -92.5808
   -92.5792 -92.5763 -92.5730 -92.5722 -92.5720 -92.5706 -92.5698 -92.5679
   -92.5630 -92.5609 -92.5584 -92.5570 -92.5519 -92.5428 -92.5406 -92.5318
   -92.5301 -92.5294 -92.5273 -92.4774 -92.4690 -92.4685 -92.4639 -92.4588
   -92.4575 -92.4500 -92.4482 -92.4465 -92.4436 -92.4435 -92.4422 -92.4404
   -92.4369 -92.4359 -92.4327 -92.4300 -92.4298 -92.4279 -92.4265 -92.4255
   -92.4214 -92.4213 -92.4135 -92.4112 -92.4054 -92.3914 -92.3861 -92.3851
   -58.8751 -58.8310 -58.8175 -58.8135 -58.8111 -58.8028 -58.7950 -58.7929
   -58.7876 -58.7869 -58.7836 -58.7824 -58.7804 -58.7787 -58.7777 -58.7758
   -58.7721 -58.7717 -58.7679 -58.7668 -58.7663 -58.7654 -58.7621 -58.7605
   -58.7600 -58.7580 -58.7552 -58.7548 -58.7481 -58.7460 -58.7423 -58.7407
   -58.7390 -58.7379 -58.7355 -58.7310 -58.7232 -58.7158 -58.7157 -58.7123
   -58.7104 -58.7035 -58.6918 -58.6916 -58.6892 -58.6875 -58.6861 -58.6832
   -58.6786 -58.6703 -58.6673 -58.6662 -58.6543 -58.6514 -58.6513 -58.6486
   -58.6439 -58.6437 -58.6365 -58.6345 -58.6330 -58.6312 -58.6309 -58.6276
   -58.6269 -58.6244 -58.6178 -58.6163 -58.6157 -58.6140 -58.6121 -58.6111
   -58.6084 -58.6044 -58.6042 -58.6027 -58.5997 -58.5906 -58.5899 -58.5842
   -58.5828 -58.5796 -58.5789 -58.5728 -58.5726 -58.5665 -58.5644 -58.5630
   -58.5605 -58.5597 -58.5575 -58.5525 -58.5505 -58.5489 -58.5445 -58.5428
   -58.5395 -58.5374 -58.5300 -58.5289 -58.5259 -58.5238 -58.5227 -58.5200
   -58.5193 -58.5185 -58.5173 -58.5169 -58.5158 -58.5150 -58.5128 -58.5100
   -58.5089 -58.5063 -58.5056 -58.5028 -58.4996 -58.4976 -58.4955 -58.4938
   -58.4915 -58.4864 -58.4861 -58.4830 -58.4817 -58.4808 -58.4790 -58.4755
   -58.4727 -58.4725 -58.4650 -58.4615 -58.4596 -58.4548 -58.4537 -58.4506
   -58.4498 -58.4474 -58.4467 -58.4443 -58.4416 -58.4413 -58.4403 -58.4368
   -58.4366 -58.4361 -58.4346 -58.4317 -58.4294 -58.4291 -58.4260 -58.4257
   -58.4196 -58.4191 -58.4182 -58.4170 -58.4166 -58.4145 -58.4118 -58.4096
   -58.4070 -58.4053 -58.4010 -58.3949 -58.3941 -58.3919 -58.3859 -58.3847
   -58.3844 -58.3753 -58.3749 -58.3739 -58.3731 -58.3703 -58.3663 -58.3641
   -58.3620 -58.3588 -58.3575 -58.3543 -58.3531 -58.3516 -58.3512 -58.3455
   -58.3448 -58.3433 -58.3352 -58.3345 -58.3322 -58.3297 -58.2595 -58.2584
   -20.0288 -12.2070 -11.2131 -11.1744 -11.0844 -10.9439 -10.7703 -10.7699
   -10.2371 -10.1027  -9.9807  -9.9259  -9.8576  -9.7074  -9.5701  -9.4701
    -9.3075  -9.2667  -9.1624  -9.0507  -9.0429  -9.0069  -9.0052  -8.9702
    -8.9356  -8.9257  -8.9174  -8.8821  -8.8217  -8.8131  -8.7844  -8.7264
    -8.6961  -8.6825  -8.6628  -8.6422  -8.6034  -8.6015  -8.5751  -8.5624
    -8.5516  -8.5477  -8.5334  -8.5314  -8.5270  -8.5185  -8.5140  -8.5093
    -8.4748  -8.4649  -8.4358  -8.4349  -8.4025  -8.3989  -8.3609  -8.3419
    -8.2958  -8.2781  -8.2222  -8.1812  -8.1723  -8.1514  -8.1487  -8.1069
    -8.0744  -8.0628  -8.0406  -8.0401  -7.9752  -7.9751  -7.9333  -7.8875
    -7.8711  -7.8230  -7.7996  -7.7941  -7.7767  -7.7714  -7.7592  -7.7514
    -7.7492  -7.7483  -7.7340  -7.7290  -7.7227  -7.7181  -7.7128  -7.7046
    -7.7035  -7.6815  -7.6694  -7.6335  -7.6094  -7.6081  -7.5986  -7.5809
    -7.5726  -7.5507  -7.5466  -7.5406  -7.5289  -7.5193  -7.5149  -7.4912
    -7.4892  -7.4667  -7.4610  -7.4407  -7.4225  -7.4133  -7.3952  -7.3876
    -7.3808  -7.3577  -7.3509  -7.3441  -7.3350  -7.3305  -7.3174  -7.3163
    -7.3073  -7.3065  -7.2927  -7.2712  -7.2403  -7.2240  -7.2117  -7.2092
    -7.1570  -7.1509  -7.1400  -7.1278  -7.1262  -7.1206  -7.0979  -7.0848
    -7.0541  -7.0380  -7.0317  -7.0186  -7.0184  -7.0120  -6.9944  -6.9918
    -6.9727  -6.9540  -6.9533  -6.9352  -6.9121  -6.8948  -6.8660  -6.8640
    -6.8446  -6.8430  -6.8389  -6.8165  -6.8116  -6.8006  -6.8005  -6.7716
    -6.7525  -6.7497  -6.7405  -6.7399  -6.7254  -6.7234  -6.7149  -6.7028
    -6.6989  -6.6869  -6.6821  -6.6763  -6.6686  -6.6599  -6.6591  -6.6209
    -6.6114  -6.6058  -6.5632  -6.5312  -6.4497  -6.4273  -6.3850  -6.3721
    -6.3446  -6.3313  -6.3030  -6.2586  -6.2344  -6.2022  -6.1979  -6.1960
    -6.1515  -6.1416  -6.1250  -6.1231  -6.1065  -6.0677  -6.0542  -6.0503
    -6.0340  -6.0298  -6.0128  -6.0047  -6.0000  -5.9978  -5.9810  -5.9600
    -5.9424  -5.9324  -5.9304  -5.9285  -5.9056  -5.8988  -5.8918  -5.8875
    -5.8816  -5.8551  -5.8536  -5.8437  -5.8132  -5.8085  -5.7956  -5.7812
    -5.7806  -5.7629  -5.7627  -5.7505  -5.7494  -5.7436  -5.7418  -5.7206
    -5.7103  -5.7012  -5.7004  -5.6991  -5.6800  -5.6718  -5.6705  -5.6638
    -5.6630  -5.6552  -5.6508  -5.6450  -5.6428  -5.6179  -5.6005  -5.5981
    -5.5910  -5.5803  -5.5795  -5.5715  -5.5704  -5.5536  -5.5521  -5.5348
    -5.5219  -5.5175  -5.5155  -5.5112  -5.5092  -5.4877  -5.4869  -5.4784
    -5.4783  -5.4737  -5.4697  -5.4570  -5.4538  -5.4530  -5.4409  -5.4351
    -5.4314  -5.4282  -5.4231  -5.4192  -5.4153  -5.4094  -5.4065  -5.3830
    -5.3798  -5.3735  -5.3677  -5.3625  -5.3555  -5.3487  -5.3431  -5.3356
    -5.3321  -5.3315  -5.3238  -5.3107  -5.3048  -5.2800  -5.2788  -5.2579
    -5.2441  -5.2389  -5.2272  -5.2063  -5.1943  -5.1886  -5.1822  -5.1606
    -5.1524  -5.1462  -5.1392  -5.1389  -5.0761  -5.0760  -5.0349  -5.0326
    -5.0275  -4.9997  -4.9168  -4.8896  -4.8230  -4.8158  -4.7673  -4.7510
    -4.7086  -4.6989  -4.6864  -4.6675  -4.6590  -4.6303  -4.6214  -4.6096
    -4.6004  -4.5973  -4.5892  -4.5765  -4.5642  -4.5336  -4.5211  -4.4850
    -4.4428  -4.4039  -4.3546  -4.3248  -4.2919  -4.2344  -4.1815  -4.1527
    -4.0168  -3.9451  -3.9383  -3.6960  -3.6554  -3.6078  -3.5672  -3.5205
    -3.4849  -3.4778  -3.4247  -3.3932  -3.2963  -3.0440  -3.0029  -2.9115
    -2.8189  -2.7426

          k = 0.2500-0.6187 0.0000 (128424 PWs)   bands (ev):

   -92.7006 -92.6469 -92.6466 -92.6342 -92.6275 -92.6112 -92.6058 -92.5993
   -92.5973 -92.5957 -92.5945 -92.5874 -92.5856 -92.5854 -92.5824 -92.5816
   -92.5795 -92.5759 -92.5742 -92.5733 -92.5722 -92.5720 -92.5679 -92.5664
   -92.5624 -92.5612 -92.5591 -92.5559 -92.5528 -92.5429 -92.5406 -92.5316
   -92.5307 -92.5292 -92.5271 -92.4755 -92.4733 -92.4667 -92.4646 -92.4584
   -92.4555 -92.4525 -92.4466 -92.4454 -92.4442 -92.4434 -92.4427 -92.4408
   -92.4394 -92.4353 -92.4313 -92.4297 -92.4289 -92.4276 -92.4262 -92.4258
   -92.4228 -92.4211 -92.4152 -92.4098 -92.4049 -92.3917 -92.3860 -92.3853
   -58.8749 -58.8281 -58.8206 -58.8141 -58.8096 -58.8011 -58.7971 -58.7950
   -58.7866 -58.7860 -58.7843 -58.7822 -58.7809 -58.7783 -58.7753 -58.7746
   -58.7716 -58.7704 -58.7679 -58.7664 -58.7646 -58.7641 -58.7615 -58.7611
   -58.7593 -58.7574 -58.7556 -58.7535 -58.7494 -58.7462 -58.7444 -58.7418
   -58.7398 -58.7378 -58.7337 -58.7269 -58.7185 -58.7081 -58.7059 -58.7038
   -58.7021 -58.7013 -58.6963 -58.6959 -58.6912 -58.6881 -58.6796 -58.6777
   -58.6760 -58.6734 -58.6718 -58.6651 -58.6622 -58.6594 -58.6582 -58.6542
   -58.6524 -58.6501 -58.6493 -58.6418 -58.6380 -58.6344 -58.6292 -58.6276
   -58.6262 -58.6213 -58.6195 -58.6177 -58.6162 -58.6130 -58.6129 -58.6107
   -58.6069 -58.6035 -58.6001 -58.5990 -58.5972 -58.5944 -58.5920 -58.5896
   -58.5877 -58.5846 -58.5838 -58.5806 -58.5775 -58.5742 -58.5742 -58.5726
   -58.5658 -58.5642 -58.5613 -58.5601 -58.5534 -58.5478 -58.5456 -58.5401
   -58.5359 -58.5304 -58.5286 -58.5276 -58.5250 -58.5235 -58.5218 -58.5204
   -58.5184 -58.5166 -58.5161 -58.5127 -58.5106 -58.5090 -58.5062 -58.5039
   -58.5032 -58.5019 -58.4981 -58.4970 -58.4945 -58.4938 -58.4914 -58.4907
   -58.4880 -58.4864 -58.4847 -58.4819 -58.4798 -58.4765 -58.4739 -58.4734
   -58.4708 -58.4682 -58.4663 -58.4650 -58.4625 -58.4583 -58.4548 -58.4532
   -58.4516 -58.4504 -58.4463 -58.4453 -58.4429 -58.4399 -58.4391 -58.4376
   -58.4364 -58.4339 -58.4315 -58.4310 -58.4287 -58.4255 -58.4250 -58.4238
   -58.4208 -58.4194 -58.4170 -58.4154 -58.4147 -58.4128 -58.4105 -58.4058
   -58.4025 -58.3969 -58.3960 -58.3936 -58.3918 -58.3891 -58.3864 -58.3844
   -58.3797 -58.3776 -58.3760 -58.3726 -58.3701 -58.3681 -58.3668 -58.3666
   -58.3642 -58.3625 -58.3606 -58.3589 -58.3577 -58.3555 -58.3545 -58.3529
   -58.3484 -58.3459 -58.3439 -58.3350 -58.3331 -58.3313 -58.2600 -58.2588
   -20.0287 -11.9561 -11.6757 -11.4045 -10.9604 -10.9092 -10.6252 -10.5580
   -10.3557 -10.2359 -10.0713  -9.9146  -9.5056  -9.4320  -9.3480  -9.3338
    -9.3007  -9.2355  -9.2077  -9.1558  -9.0840  -9.0773  -9.0131  -9.0023
    -8.9884  -8.9405  -8.9160  -8.8780  -8.8635  -8.8398  -8.8367  -8.8179
    -8.8141  -8.7777  -8.7392  -8.7201  -8.7045  -8.6872  -8.6720  -8.6434
    -8.6394  -8.6045  -8.5934  -8.5789  -8.5583  -8.4850  -8.4778  -8.4523
    -8.4312  -8.3963  -8.3878  -8.3585  -8.3334  -8.3134  -8.2912  -8.2452
    -8.2403  -8.2340  -8.2099  -8.2026  -8.1934  -8.1618  -8.1525  -8.1430
    -8.1124  -8.0900  -8.0535  -8.0461  -8.0340  -8.0160  -7.9709  -7.9477
    -7.9388  -7.9039  -7.8680  -7.8307  -7.7953  -7.7735  -7.7634  -7.7574
    -7.7479  -7.7364  -7.7316  -7.7240  -7.7079  -7.6914  -7.6596  -7.6449
    -7.6349  -7.6137  -7.5973  -7.5865  -7.5689  -7.5591  -7.5543  -7.5504
    -7.5433  -7.5319  -7.5212  -7.5170  -7.5086  -7.5019  -7.4813  -7.4685
    -7.4603  -7.4560  -7.4489  -7.4295  -7.4188  -7.4090  -7.4037  -7.3952
    -7.3844  -7.3787  -7.3617  -7.3561  -7.3218  -7.3130  -7.3034  -7.2948
    -7.2945  -7.2802  -7.2786  -7.2693  -7.2668  -7.2505  -7.2361  -7.2271
    -7.2188  -7.2143  -7.2029  -7.1881  -7.1844  -7.1659  -7.1439  -7.1308
    -7.1222  -7.0943  -7.0871  -7.0242  -7.0007  -6.9905  -6.9817  -6.9609
    -6.9559  -6.9539  -6.9511  -6.9292  -6.9273  -6.9154  -6.9051  -6.9016
    -6.8936  -6.8902  -6.8781  -6.8705  -6.8598  -6.8430  -6.8397  -6.8247
    -6.8210  -6.8020  -6.7968  -6.7491  -6.7257  -6.7057  -6.6769  -6.6687
    -6.6561  -6.6368  -6.6143  -6.5883  -6.5813  -6.5452  -6.5321  -6.5086
    -6.4741  -6.4397  -6.4233  -6.3889  -6.3801  -6.3636  -6.3582  -6.3280
    -6.3004  -6.2877  -6.2588  -6.2536  -6.2381  -6.2199  -6.2098  -6.1845
    -6.1803  -6.1764  -6.1616  -6.1505  -6.1343  -6.1174  -6.0911  -6.0796
    -6.0675  -6.0490  -6.0425  -6.0334  -6.0077  -5.9923  -5.9861  -5.9606
    -5.9565  -5.9434  -5.9281  -5.9263  -5.9195  -5.9121  -5.8999  -5.8845
    -5.8788  -5.8679  -5.8662  -5.8340  -5.8263  -5.8137  -5.8074  -5.8046
    -5.7966  -5.7838  -5.7759  -5.7745  -5.7689  -5.7642  -5.7576  -5.7509
    -5.7468  -5.7335  -5.7272  -5.7232  -5.6999  -5.6876  -5.6773  -5.6631
    -5.6624  -5.6406  -5.6401  -5.6254  -5.6226  -5.6138  -5.6062  -5.6024
    -5.5964  -5.5834  -5.5801  -5.5693  -5.5676  -5.5519  -5.5498  -5.5361
    -5.5308  -5.5145  -5.5115  -5.5082  -5.4922  -5.4847  -5.4778  -5.4730
    -5.4683  -5.4602  -5.4569  -5.4504  -5.4477  -5.4445  -5.4372  -5.4183
    -5.4107  -5.4067  -5.4030  -5.3950  -5.3925  -5.3851  -5.3813  -5.3741
    -5.3707  -5.3635  -5.3563  -5.3481  -5.3450  -5.3303  -5.3134  -5.3092
    -5.3006  -5.2907  -5.2785  -5.2655  -5.2566  -5.2497  -5.2455  -5.2152
    -5.1921  -5.1763  -5.1641  -5.1488  -5.1299  -5.1249  -5.1192  -5.0825
    -5.0489  -5.0398  -5.0160  -5.0093  -4.9693  -4.9579  -4.9512  -4.9360
    -4.9288  -4.9121  -4.8869  -4.8791  -4.8659  -4.8474  -4.8354  -4.8028
    -4.7935  -4.7806  -4.7476  -4.7410  -4.7239  -4.7064  -4.6954  -4.6791
    -4.6614  -4.6534  -4.6363  -4.6236  -4.6173  -4.6086  -4.5826  -4.5648
    -4.5529  -4.5394  -4.5179  -4.4925  -4.4228  -4.4014  -4.3843  -4.2079
    -4.1560  -4.1127  -3.9399  -3.8892  -3.8036  -3.7363  -3.6704  -3.6338
    -3.5042  -3.4107  -3.2478  -3.1736  -3.0818  -3.0518  -2.9274  -2.7972
    -2.7314  -2.7112

          k = 0.2500-0.3536 0.0000 (128397 PWs)   bands (ev):

   -92.7006 -92.6467 -92.6467 -92.6342 -92.6274 -92.6124 -92.6052 -92.5992
   -92.5965 -92.5954 -92.5923 -92.5888 -92.5864 -92.5834 -92.5834 -92.5818
   -92.5807 -92.5768 -92.5764 -92.5723 -92.5720 -92.5715 -92.5664 -92.5648
   -92.5621 -92.5616 -92.5609 -92.5574 -92.5514 -92.5428 -92.5406 -92.5314
   -92.5310 -92.5288 -92.5275 -92.4765 -92.4732 -92.4664 -92.4602 -92.4599
   -92.4557 -92.4544 -92.4489 -92.4459 -92.4443 -92.4431 -92.4418 -92.4403
   -92.4387 -92.4351 -92.4309 -92.4300 -92.4277 -92.4272 -92.4269 -92.4262
   -92.4217 -92.4212 -92.4173 -92.4081 -92.4061 -92.3915 -92.3858 -92.3854
   -58.8750 -58.8274 -58.8232 -58.8132 -58.8092 -58.8020 -58.7964 -58.7953
   -58.7861 -58.7860 -58.7853 -58.7820 -58.7806 -58.7779 -58.7775 -58.7756
   -58.7729 -58.7711 -58.7686 -58.7660 -58.7659 -58.7629 -58.7626 -58.7589
   -58.7584 -58.7576 -58.7567 -58.7532 -58.7503 -58.7483 -58.7458 -58.7434
   -58.7390 -58.7380 -58.7332 -58.7243 -58.7233 -58.7177 -58.7149 -58.7062
   -58.7055 -58.7040 -58.7005 -58.6991 -58.6921 -58.6881 -58.6863 -58.6853
   -58.6844 -58.6725 -58.6624 -58.6599 -58.6573 -58.6529 -58.6495 -58.6454
   -58.6438 -58.6402 -58.6377 -58.6334 -58.6286 -58.6278 -58.6264 -58.6251
   -58.6236 -58.6208 -58.6205 -58.6180 -58.6145 -58.6136 -58.6127 -58.6121
   -58.6094 -58.6071 -58.6023 -58.5980 -58.5978 -58.5953 -58.5921 -58.5913
   -58.5892 -58.5787 -58.5775 -58.5747 -58.5732 -58.5700 -58.5686 -58.5680
   -58.5634 -58.5613 -58.5600 -58.5498 -58.5473 -58.5459 -58.5432 -58.5390
   -58.5361 -58.5347 -58.5333 -58.5317 -58.5302 -58.5273 -58.5244 -58.5230
   -58.5210 -58.5203 -58.5176 -58.5139 -58.5129 -58.5119 -58.5072 -58.5058
   -58.5034 -58.5019 -58.5007 -58.4990 -58.4988 -58.4971 -58.4955 -58.4949
   -58.4925 -58.4908 -58.4865 -58.4855 -58.4810 -58.4793 -58.4787 -58.4758
   -58.4747 -58.4697 -58.4688 -58.4672 -58.4621 -58.4569 -58.4552 -58.4542
   -58.4499 -58.4489 -58.4456 -58.4444 -58.4420 -58.4397 -58.4386 -58.4372
   -58.4360 -58.4355 -58.4321 -58.4301 -58.4285 -58.4261 -58.4253 -58.4227
   -58.4211 -58.4183 -58.4177 -58.4174 -58.4162 -58.4156 -58.4134 -58.4112
   -58.4075 -58.4046 -58.4034 -58.3974 -58.3939 -58.3930 -58.3863 -58.3850
   -58.3810 -58.3797 -58.3750 -58.3734 -58.3700 -58.3681 -58.3651 -58.3637
   -58.3631 -58.3584 -58.3558 -58.3552 -58.3549 -58.3543 -58.3490 -58.3455
   -58.3437 -58.3436 -58.3367 -58.3328 -58.3324 -58.3306 -58.2595 -58.2584
   -20.0288 -12.0654 -11.5211 -11.5021 -10.9756 -10.8765 -10.6898 -10.2905
   -10.2458 -10.1501  -9.9627  -9.9525  -9.8298  -9.6752  -9.5608  -9.4264
    -9.1592  -9.1516  -9.1232  -9.0978  -9.0962  -9.0887  -9.0518  -9.0514
    -9.0037  -8.9720  -8.9501  -8.9361  -8.9054  -8.8749  -8.8691  -8.8498
    -8.7775  -8.7155  -8.7059  -8.6730  -8.6665  -8.6426  -8.6322  -8.6154
    -8.6110  -8.5982  -8.5646  -8.5623  -8.5328  -8.4978  -8.4875  -8.4590
    -8.4424  -8.4182  -8.3737  -8.3588  -8.3448  -8.2972  -8.2793  -8.2483
    -8.2285  -8.2260  -8.2032  -8.1938  -8.1884  -8.1774  -8.1541  -8.1250
    -8.1113  -8.0872  -8.0625  -8.0346  -7.9933  -7.9688  -7.9652  -7.9208
    -7.8847  -7.8695  -7.8446  -7.7755  -7.7704  -7.7593  -7.7546  -7.7394
    -7.7198  -7.7195  -7.7077  -7.6955  -7.6937  -7.6834  -7.6643  -7.6637
    -7.6608  -7.6513  -7.6374  -7.6360  -7.6303  -7.6070  -7.5857  -7.5684
    -7.5582  -7.5482  -7.5410  -7.5287  -7.5249  -7.5245  -7.5209  -7.4951
    -7.4867  -7.4731  -7.4659  -7.4328  -7.4279  -7.4178  -7.3824  -7.3748
    -7.3688  -7.3685  -7.3552  -7.3519  -7.3463  -7.3377  -7.3271  -7.3203
    -7.3134  -7.3082  -7.2957  -7.2689  -7.2504  -7.2300  -7.1864  -7.1761
    -7.1696  -7.1667  -7.1129  -7.0996  -7.0872  -7.0639  -7.0507  -7.0450
    -7.0279  -7.0226  -7.0217  -7.0144  -7.0020  -6.9977  -6.9945  -6.9926
    -6.9897  -6.9850  -6.9815  -6.9802  -6.9753  -6.9639  -6.9488  -6.9428
    -6.9354  -6.9257  -6.8903  -6.8728  -6.8564  -6.8425  -6.8319  -6.8002
    -6.7866  -6.7647  -6.7401  -6.7350  -6.7218  -6.6851  -6.6634  -6.6495
    -6.6407  -6.6358  -6.6225  -6.6082  -6.5634  -6.5419  -6.5224  -6.4852
    -6.4614  -6.4310  -6.3891  -6.3865  -6.3840  -6.3563  -6.3537  -6.3448
    -6.3139  -6.2895  -6.2822  -6.2645  -6.2441  -6.2408  -6.2281  -6.2271
    -6.2227  -6.1979  -6.1758  -6.1612  -6.1526  -6.1159  -6.1081  -6.0923
    -6.0795  -6.0721  -6.0719  -6.0373  -6.0139  -5.9833  -5.9832  -5.9735
    -5.9721  -5.9693  -5.9566  -5.9394  -5.9159  -5.8928  -5.8828  -5.8699
    -5.8632  -5.8478  -5.8445  -5.8382  -5.8286  -5.8117  -5.7868  -5.7784
    -5.7701  -5.7617  -5.7607  -5.7571  -5.7415  -5.7414  -5.7388  -5.7130
    -5.7114  -5.7048  -5.6977  -5.6883  -5.6781  -5.6736  -5.6642  -5.6571
    -5.6453  -5.6403  -5.6349  -5.6340  -5.6251  -5.6203  -5.6020  -5.5986
    -5.5961  -5.5952  -5.5779  -5.5750  -5.5728  -5.5676  -5.5646  -5.5572
    -5.5518  -5.5482  -5.5443  -5.5376  -5.5329  -5.5308  -5.5267  -5.5094
    -5.5079  -5.5060  -5.5016  -5.4949  -5.4806  -5.4803  -5.4792  -5.4726
    -5.4625  -5.4405  -5.4390  -5.4319  -5.4209  -5.4126  -5.4111  -5.4096
    -5.4039  -5.3939  -5.3939  -5.3868  -5.3752  -5.3718  -5.3478  -5.3467
    -5.3235  -5.3142  -5.3034  -5.2949  -5.2828  -5.2775  -5.2659  -5.2422
    -5.2146  -5.2005  -5.1909  -5.1748  -5.1706  -5.1556  -5.1442  -5.1350
    -5.1257  -5.1205  -5.0948  -5.0876  -5.0841  -5.0586  -5.0183  -5.0036
    -4.9917  -4.9711  -4.9593  -4.9468  -4.9034  -4.8850  -4.8589  -4.7983
    -4.7899  -4.7586  -4.7533  -4.7499  -4.7331  -4.7123  -4.7024  -4.6879
    -4.6757  -4.6629  -4.6462  -4.6406  -4.6317  -4.6249  -4.6054  -4.5993
    -4.5948  -4.5915  -4.5765  -4.3591  -4.1771  -4.1470  -4.0580  -4.0158
    -3.9041  -3.8162  -3.8157  -3.7719  -3.7552  -3.6819  -3.5891  -3.5730
    -3.5476  -3.3873  -3.3320  -3.2147  -3.0828  -3.0309  -2.9714  -2.7327
    -2.5767  -2.1946

          k =-0.5000 0.1768 0.0000 (128388 PWs)   bands (ev):

   -92.7006 -92.6468 -92.6467 -92.6342 -92.6274 -92.6119 -92.6070 -92.5962
   -92.5958 -92.5953 -92.5923 -92.5914 -92.5870 -92.5844 -92.5834 -92.5834
   -92.5792 -92.5745 -92.5741 -92.5722 -92.5721 -92.5719 -92.5692 -92.5641
   -92.5625 -92.5620 -92.5617 -92.5553 -92.5520 -92.5428 -92.5406 -92.5313
   -92.5311 -92.5287 -92.5275 -92.4752 -92.4751 -92.4637 -92.4619 -92.4601
   -92.4563 -92.4551 -92.4475 -92.4453 -92.4440 -92.4436 -92.4417 -92.4403
   -92.4394 -92.4356 -92.4305 -92.4298 -92.4285 -92.4273 -92.4264 -92.4260
   -92.4219 -92.4212 -92.4169 -92.4088 -92.4056 -92.3915 -92.3858 -92.3854
   -58.8750 -58.8269 -58.8240 -58.8126 -58.8096 -58.8016 -58.7983 -58.7926
   -58.7897 -58.7838 -58.7826 -58.7820 -58.7820 -58.7803 -58.7789 -58.7734
   -58.7729 -58.7710 -58.7682 -58.7651 -58.7639 -58.7636 -58.7622 -58.7617
   -58.7593 -58.7572 -58.7560 -58.7515 -58.7509 -58.7503 -58.7440 -58.7433
   -58.7392 -58.7390 -58.7335 -58.7287 -58.7193 -58.7146 -58.7123 -58.7093
   -58.7088 -58.7055 -58.7049 -58.6981 -58.6929 -58.6858 -58.6806 -58.6768
[...]
    -2.2847  -2.2694  -2.2569  -2.2554  -2.2472  -2.2292  -2.2051  -2.1975
    -2.1792  -2.1722  -2.1689  -2.1605  -2.1477  -2.1392  -2.1325  -2.1198
    -2.0950  -2.0859  -2.0746  -2.0716  -2.0492  -2.0331  -2.0293  -2.0042
    -1.9671  -1.9488  -1.8842  -1.8651  -1.7870  -1.7588  -1.6819  -1.6622
    -1.5655  -1.5345  -1.4911  -1.4118  -1.3300  -1.2918  -1.2293  -1.1638
    -1.1518  -1.0195

          k =-0.5000-0.3536 0.0000 (128560 PWs)   bands (ev):

   -90.2771 -90.2767 -89.8301 -89.8300 -89.7074 -89.7061 -89.6964 -89.6084
   -89.5936 -89.5862 -89.5828 -89.5764 -89.5756 -89.5647 -89.5629 -89.5611
   -89.5549 -89.5549 -89.5512 -89.5494 -89.5468 -89.5467 -89.5433 -89.5429
   -89.5416 -89.5413 -89.5389 -89.5368 -89.5364 -89.5336 -89.5329 -89.5327
   -89.5320 -89.5253 -89.5220 -89.5187 -89.5148 -89.5128 -89.5099 -89.5097
   -89.5074 -89.5070 -89.5053 -89.5038 -89.5014 -89.5009 -89.4988 -89.4963
   -89.4945 -89.4858 -89.4839 -89.4824 -89.4819 -89.4805 -89.4804 -89.4789
   -89.4779 -89.4777 -89.4762 -89.4760 -89.4623 -89.4585 -89.4573 -89.4547
   -56.8266 -56.8184 -56.2752 -56.2659 -56.1927 -56.1860 -56.1397 -56.1344
   -55.9361 -55.9281 -55.9149 -55.9123 -55.9063 -55.9062 -55.8946 -55.8716
   -55.8706 -55.8688 -55.8611 -55.8572 -55.8510 -55.8496 -55.8436 -55.8382
   -55.8369 -55.8363 -55.8334 -55.8283 -55.8269 -55.8223 -55.8211 -55.8177
   -55.8127 -55.8051 -55.8047 -55.8014 -55.8004 -55.7953 -55.7949 -55.7949
   -55.7927 -55.7918 -55.7898 -55.7863 -55.7821 -55.7747 -55.7733 -55.7726
   -55.7725 -55.7702 -55.7650 -55.7597 -55.7595 -55.7585 -55.7563 -55.7533
   -55.7523 -55.7518 -55.7500 -55.7498 -55.7477 -55.7475 -55.7437 -55.7430
   -55.7426 -55.7422 -55.7393 -55.7358 -55.7332 -55.7316 -55.7313 -55.7287
   -55.7189 -55.7103 -55.7032 -55.7025 -55.6980 -55.6935 -55.6914 -55.6858
   -55.6822 -55.6808 -55.6797 -55.6759 -55.6600 -55.6583 -55.6573 -55.6571
   -55.6521 -55.6462 -55.6445 -55.6439 -55.6423 -55.6419 -55.6374 -55.6360
   -55.6339 -55.6333 -55.6302 -55.6300 -55.6255 -55.6247 -55.6214 -55.6197
   -55.6196 -55.6147 -55.6090 -55.6085 -55.6076 -55.6019 -55.6012 -55.6011
   -55.6002 -55.6001 -55.5990 -55.5969 -55.5965 -55.5937 -55.5922 -55.5864
   -55.5846 -55.5836 -55.5756 -55.5735 -55.5732 -55.5709 -55.5702 -55.5696
   -55.5688 -55.5664 -55.5648 -55.5593 -55.5569 -55.5547 -55.5523 -55.5503
   -55.5493 -55.5479 -55.5466 -55.5451 -55.5447 -55.5440 -55.5410 -55.5406
   -55.5400 -55.5399 -55.5379 -55.5361 -55.5353 -55.5352 -55.5344 -55.5330
   -55.5326 -55.5303 -55.5297 -55.5291 -55.5255 -55.5246 -55.5237 -55.5206
   -55.5186 -55.5172 -55.5162 -55.5159 -55.5115 -55.5109 -55.5102 -55.5101
   -55.5099 -55.5087 -55.5086 -55.5062 -55.5054 -55.5052 -55.5050 -55.5037
   -55.5036 -55.5014 -55.4967 -55.4954 -55.4942 -55.4938 -55.4934 -55.4898
   -55.4871 -55.4867 -55.4860 -55.4819 -55.4815 -55.4795 -55.4762 -55.4736
   -20.1627 -11.5870 -11.5430 -11.0825 -10.9643 -10.6191 -10.4598 -10.2169
   -10.0735  -9.7748  -9.5901  -9.4277  -8.9821  -8.9274  -8.9164  -8.7991
    -8.5351  -8.4963  -8.1540  -8.1439  -8.1240  -8.0967  -8.0901  -8.0352
    -8.0203  -7.9949  -7.9595  -7.9469  -7.9268  -7.7903  -7.5728  -7.5678
    -7.5665  -7.5595  -7.5168  -7.4661  -7.3706  -7.2249  -7.1083  -7.1054
    -7.0978  -7.0679  -7.0458  -7.0423  -7.0369  -6.9956  -6.9664  -6.9437
    -6.9084  -6.8101  -6.8086  -6.7966  -6.7819  -6.7699  -6.7542  -6.5757
    -6.5593  -6.5331  -6.5329  -6.5064  -6.4857  -6.4587  -6.3051  -6.2787
    -6.2566  -6.2487  -6.1998  -6.1925  -6.1911  -6.1228  -6.0788  -6.0571
    -6.0410  -6.0171  -6.0067  -5.9953  -5.9947  -5.9712  -5.9705  -5.9536
    -5.9368  -5.8926  -5.8732  -5.8699  -5.8642  -5.8638  -5.8561  -5.8550
    -5.8328  -5.8271  -5.8004  -5.7807  -5.6889  -5.6579  -5.6544  -5.6463
    -5.6459  -5.5647  -5.5533  -5.5275  -5.5152  -5.5087  -5.5080  -5.4921
    -5.4847  -5.4782  -5.4766  -5.4398  -5.4380  -5.4273  -5.4175  -5.4172
    -5.4094  -5.4085  -5.3932  -5.3929  -5.3844  -5.3793  -5.3745  -5.3695
    -5.3445  -5.3435  -5.3421  -5.3354  -5.3347  -5.3257  -5.3157  -5.3032
    -5.2940  -5.2727  -5.2681  -5.2670  -5.2665  -5.2575  -5.2538  -5.2464
    -5.2399  -5.2157  -5.2146  -5.1988  -5.0852  -5.0460  -5.0399  -5.0264
    -5.0137  -5.0120  -5.0001  -4.9970  -4.9886  -4.9767  -4.9663  -4.9537
    -4.8898  -4.8738  -4.8576  -4.8350  -4.8347  -4.8277  -4.8121  -4.8032
    -4.7973  -4.7689  -4.7556  -4.7500  -4.7066  -4.6835  -4.6637  -4.6585
    -4.6200  -4.5962  -4.5928  -4.5428  -4.5054  -4.4846  -4.4752  -4.4608
    -4.4499  -4.4405  -4.4349  -4.4329  -4.4166  -4.3942  -4.3810  -4.3689
    -4.3631  -4.3544  -4.3174  -4.3154  -4.1208  -4.1163  -4.1053  -4.1026
    -3.9986  -3.9722  -3.9690  -3.8562  -3.8130  -3.8011  -3.7829  -3.7155
    -3.6932  -3.6755  -3.6734  -3.6331  -3.6079  -3.5891  -3.5873  -3.5634
    -3.5428  -3.5240  -3.4701  -3.4465  -3.4410  -3.4394  -3.4330  -3.4178
    -3.3552  -3.3361  -3.3245  -3.3185  -3.3114  -3.3055  -3.2622  -3.2425
    -3.2404  -3.2157  -3.1985  -3.1971  -3.1942  -3.1911  -3.1687  -3.1613
    -3.1551  -3.1311  -3.1045  -3.0990  -3.0949  -3.0921  -3.0583  -3.0515
    -3.0445  -3.0344  -3.0228  -3.0067  -2.9623  -2.9424  -2.9074  -2.9031
    -2.8875  -2.8460  -2.8415  -2.8367  -2.8343  -2.8173  -2.7895  -2.7867
    -2.7851  -2.7649  -2.7621  -2.7612  -2.7322  -2.7314  -2.7171  -2.7159
    -2.7090  -2.7019  -2.6970  -2.6927  -2.6775  -2.6761  -2.6701  -2.6598
    -2.6512  -2.6292  -2.6271  -2.6258  -2.6156  -2.6130  -2.5991  -2.5987
    -2.5949  -2.5916  -2.5867  -2.5837  -2.5630  -2.5584  -2.5557  -2.5518
    -2.5415  -2.5221  -2.5210  -2.5175  -2.5108  -2.5080  -2.5039  -2.5024
    -2.4904  -2.4699  -2.4638  -2.4618  -2.4415  -2.4219  -2.4173  -2.4087
    -2.3970  -2.3955  -2.3894  -2.3809  -2.3668  -2.3610  -2.3515  -2.3328
    -2.3321  -2.3199  -2.3157  -2.3131  -2.3029  -2.2984  -2.2911  -2.2871
    -2.2837  -2.2798  -2.2783  -2.2704  -2.2637  -2.2571  -2.2416  -2.2355
    -2.2332  -2.2245  -2.2189  -2.2122  -2.2048  -2.1984  -2.1728  -2.1565
    -2.1492  -2.1472  -2.1471  -2.1159  -2.1138  -2.1023  -1.9697  -1.9474
    -1.9038  -1.9032  -1.8654  -1.7877  -1.7020  -1.7011  -1.6835  -1.6760
    -1.6456  -1.6317  -1.6241  -1.6237  -1.5972  -1.5902  -1.5808  -1.3650
    -1.3291  -1.3235

     the Fermi energy is    -4.4456 ev

!    total energy              =  -21092.54090901 Ry
     estimated scf accuracy    <          8.9E-11 Ry
     smearing contrib. (-TS)   =       0.00351622 Ry
     internal energy E=F+TS    =  -21092.54442523 Ry

     The total energy is F=E-TS. E is the sum of the following terms:
     one-electron contribution = -742925.76957290 Ry
     hartree contribution      =  371289.44042222 Ry
     xc contribution           =   -2233.60911052 Ry
     ewald contribution        =  357652.22943285 Ry
     Dispersion Correction     =      -1.38901982 Ry
     one-center paw contrib.   =   -4873.44657706 Ry

     total magnetization       =   160.85 Bohr mag/cell
     absolute magnetization    =   167.63 Bohr mag/cell

     convergence has been achieved in  15 iterations

     negative rho (up, down):  1.200E-02 1.594E-02

     Forces acting on atoms (cartesian axes, Ry/au):

     atom    1 type  1   force =     0.00008538    0.00063605    0.00902717
     atom    2 type  1   force =     0.00293776   -0.00413436   -0.01556986
     atom    3 type  1   force =    -0.00075374   -0.00061234    0.00825152
     atom    4 type  1   force =     0.00058393    0.00099454   -0.00829311
     atom    5 type  1   force =     0.00003985    0.00000022    0.00002242
     atom    6 type  1   force =     0.00000851   -0.00001649   -0.00005700
     atom    7 type  1   force =    -0.00000616   -0.00002740    0.00005695
     atom    8 type  1   force =     0.00001933   -0.00003883   -0.00002363
     atom    9 type  1   force =     0.00002911   -0.00001787    0.00836763
     atom   10 type  1   force =    -0.00071349   -0.00051787    0.00888852
     atom   11 type  1   force =     0.00091603   -0.00045787   -0.00826126
     atom   12 type  1   force =     0.00063031    0.00049952   -0.01260416
     atom   13 type  1   force =     0.00000084   -0.00000487    0.00000276
     atom   14 type  1   force =    -0.00000663   -0.00000118    0.00003037
     atom   15 type  1   force =     0.00004573    0.00003363   -0.00009121
     atom   16 type  1   force =     0.00002046    0.00000930   -0.00002715
     atom   17 type  1   force =    -0.00084871   -0.00044576    0.00824416
     atom   18 type  1   force =     0.00113011    0.00023073   -0.00827670
     atom   19 type  1   force =     0.00070211    0.00064960    0.00822262
     atom   20 type  1   force =    -0.00102765    0.00148534   -0.00351554
     atom   21 type  1   force =    -0.00002678   -0.00000714    0.00005200
     atom   22 type  1   force =    -0.00003216    0.00001826   -0.00003612
     atom   23 type  1   force =     0.00001192    0.00002032    0.00005066
     atom   24 type  1   force =     0.00001688   -0.00003254    0.00004015
     atom   25 type  1   force =     0.00002501   -0.00002526    0.00802242
     atom   26 type  1   force =    -0.00117502    0.00166236    0.00779529
     atom   27 type  1   force =     0.00123808    0.00082225   -0.00384628
     atom   28 type  1   force =     0.00013679   -0.00100224   -0.00826448
     atom   29 type  1   force =    -0.00000154   -0.00000357    0.00015442
     atom   30 type  1   force =    -0.00002245    0.00002709    0.00007098
     atom   31 type  1   force =     0.00003551    0.00001746   -0.00002120
     atom   32 type  1   force =    -0.00004954   -0.00003867   -0.00009010
     atom   33 type  1   force =    -0.00009119   -0.00064556    0.00902688
     atom   34 type  1   force =    -0.00058161   -0.00097922   -0.00828058
     atom   35 type  1   force =     0.00063257   -0.00013106    0.00903227
     atom   36 type  1   force =    -0.00298699    0.00421599   -0.01553980
     atom   37 type  1   force =    -0.00004080   -0.00000022    0.00001560
     atom   38 type  1   force =    -0.00001317    0.00003584   -0.00003640
     atom   39 type  1   force =     0.00001178    0.00003611    0.00001414
     atom   40 type  1   force =    -0.00001558    0.00001683   -0.00006430
     atom   41 type  1   force =     0.00002907   -0.00003066    0.00955389
     atom   42 type  1   force =     0.00119092   -0.00167319    0.00782653
     atom   43 type  1   force =    -0.00067916   -0.00041187   -0.01261138
     atom   44 type  1   force =    -0.00092267    0.00047756   -0.00819774
     atom   45 type  1   force =    -0.00000210   -0.00000056    0.00002011
     atom   46 type  1   force =     0.00001836   -0.00003036    0.00008160
     atom   47 type  1   force =    -0.00002220   -0.00001802   -0.00002187
     atom   48 type  1   force =    -0.00005199   -0.00003413   -0.00009547
     atom   49 type  1   force =     0.00082607    0.00050025    0.00825855
     atom   50 type  1   force =     0.00109757   -0.00154117   -0.00348271
     atom   51 type  1   force =    -0.00063253    0.00012838    0.00904577
     atom   52 type  1   force =    -0.00112527   -0.00020028   -0.00829338
     atom   53 type  1   force =     0.00002527   -0.00000352    0.00005907
     atom   54 type  1   force =    -0.00002043    0.00002592    0.00003733
     atom   55 type  1   force =    -0.00001824   -0.00003918    0.00002090
     atom   56 type  1   force =     0.00002416   -0.00003210   -0.00002020
     atom   57 type  1   force =    -0.00000549   -0.00003875    0.00837868
     atom   58 type  1   force =     0.00071443    0.00048838    0.00888859
     atom   59 type  1   force =    -0.00013367    0.00104106   -0.00819410
     atom   60 type  1   force =    -0.00118213   -0.00087495   -0.00384625
     atom   61 type  1   force =    -0.00000068   -0.00000497    0.00000124
     atom   62 type  1   force =    -0.00000065    0.00000411    0.00002889
     atom   63 type  1   force =     0.00004506    0.00003149   -0.00009824
     atom   64 type  1   force =    -0.00003646   -0.00003313   -0.00002068
     atom   65 type  2   force =    -0.00000206   -0.00000141   -0.00009191

     Total force =     0.000390     Total SCF correction =     0.000038
     Energy error            =      4.6E-07
     Gradient error          =      1.5E-04

     bfgs converged in  11 scf cycles and  10 bfgs steps
     (criteria: energy <  7.3E-07 Ry, force <  3.9E-04 Ry/Bohr)

     End of BFGS Geometry Optimization

     Final energy   =  -21092.5409090053 Ry

     File ./Fe_N_paper_480c_ESM_std.bfgs deleted, as requested
Begin final coordinates

ATOMIC_POSITIONS (angstrom)
Fe            1.6549129530        1.1702001330        0.0000000000    0   0   0
Fe            0.0000000000        0.0000000000        2.0269842320    0   0   0
Fe            4.9647388580        3.5106003990        0.0000000000    0   0   0
Fe            3.3098259060        2.3404002660        2.0269842320    0   0   0
Fe            1.6791508671        1.1676650646        4.0278446408
Fe            3.3355283151        9.3257260947        6.0155172263
Fe            4.9607531054        3.5334202444        4.0421604136
Fe            3.3882877060        2.3413775927        6.0226317061
Fe            2.4823638580        3.5106003990        0.0000000000    0   0   0
Fe            4.1372879530        1.1702001330        0.0000000000    0   0   0
Fe            0.8274509060        2.3404002660        2.0269842320    0   0   0
Fe            2.4823750000        0.0000000000        2.0269842320    0   0   0
Fe            2.4825411973        3.5107955351        4.0458606822
Fe            4.1616463146        1.1876875804        4.0313349438
Fe            0.9088390929        2.3049244501        6.0289881627
Fe            2.5121197549        0.0212114827        6.0229141651
Fe            6.6196629530        1.1702001330        0.0000000000    0   0   0
Fe            4.9647500000        0.0000000000        2.0269842320    0   0   0
Fe            9.9294888580        3.5106003990        0.0000000000    0   0   0
Fe            8.2745759060        2.3404002660        2.0269842320    0   0   0
Fe            6.6394809135        1.1587463070        4.0418414598
Fe            4.9916062516        0.0740578561        6.0230587994
Fe            9.9340528471        3.4883216143        4.0418662349
Fe            8.4532527669        2.0882706867        5.9785224708
Fe            7.4471138580        3.5106003990        0.0000000000    0   0   0
Fe            9.1020379530        1.1702001330        0.0000000000    0   0   0
Fe            5.7922009060        2.3404002660        2.0269842320    0   0   0
Fe            7.4471250000        0.0000000000        2.0269842320    0   0   0
Fe            7.4474795160        3.5105004245        4.0540595830
Fe            9.1311833333        1.1293287908        3.9972293113
Fe            5.8797593741        2.4020946850        6.0103020946
Fe           10.7637633483        9.2734177282        6.0289454256
Fe            3.3098147640        5.8510006640        0.0000000000    0   0   0
Fe            1.6549018110        4.6808005310        2.0269842320    0   0   0
Fe            6.6196406700        8.1914009300        0.0000000000    0   0   0
Fe            4.9647277170        7.0212007970        2.0269842320    0   0   0
Fe            3.2859237434        5.8537225877        4.0280610800
Fe           11.5062787090        4.6804946918        6.0230987336
Fe            6.6253510073        8.2150800250        4.0280733710
Fe            4.9392852009        7.0576057162        6.0164577555
Fe            4.1372656700        8.1914009300        0.0000000000    0   0   0
Fe            5.7921897640        5.8510006640        0.0000000000    0   0   0
Fe            2.4823527170        7.0212007970        2.0269842320    0   0   0
Fe            4.1372768110        4.6808005310        2.0269842320    0   0   0
Fe            4.1374249248        8.1915157445        4.0161630814
Fe            5.7632340461        5.8923152924        3.9975332828
Fe           12.3823788716        7.0006016182        6.0228152336
Fe            4.0565955583        4.7170887814        6.0295407984
Fe            8.2745647640        5.8510006640        0.0000000000    0   0   0
Fe            6.6196518110        4.6808005310        2.0269842320    0   0   0
Fe           11.5843906700        8.1914009300        0.0000000000    0   0   0
Fe            9.9294777170        7.0212007970        2.0269842320    0   0   0
Fe            8.2547310746        5.8626209076        4.0422037523
Fe            6.4417745658        4.9329618432        5.9784749945
Fe           11.5790162754        8.1679415255        4.0277994703
Fe            9.9028928240        6.9479458433        6.0225967977
Fe            9.1020156700        8.1914009300        0.0000000000    0   0   0
Fe           10.7569397640        5.8510006640        0.0000000000    0   0   0
Fe            7.4471027170        7.0212007970        2.0269842320    0   0   0
Fe            9.1020268110        4.6808005310        2.0269842320    0   0   0
Fe            9.1020888176        8.1915664682        4.0458712794
Fe           10.7326806618        5.8340717809        4.0313549044
Fe            7.4402452721        7.1098518470        6.0296046854
Fe            9.0153176466        4.6191922057        6.0103661450
N             7.4475311206        3.5106418407        6.3565784821
End final coordinates



     Writing output data file ./Fe_N_paper_480c_ESM_std.save/

     init_run     :     29.18s CPU     30.17s WALL (       1 calls)
     electrons    :  20004.68s CPU  20385.71s WALL (      11 calls)
     update_pot   :     48.05s CPU     48.33s WALL (      10 calls)
     forces       :    188.42s CPU    191.50s WALL (      11 calls)

     Called by init_run:
     wfcinit      :     20.12s CPU     20.79s WALL (       1 calls)
     potinit      :      2.30s CPU      2.38s WALL (       1 calls)
     hinit0       :      4.60s CPU      4.71s WALL (       1 calls)

     Called by electrons:
     c_bands      :  17833.16s CPU  18143.69s WALL (     224 calls)
     sum_band     :   1072.54s CPU   1116.65s WALL (     224 calls)
     v_of_rho     :    186.60s CPU    189.02s WALL (     225 calls)
     newd         :     38.97s CPU     39.40s WALL (     225 calls)
     PAW_pot      :     46.16s CPU     46.58s WALL (     235 calls)
     mix_rho      :    775.25s CPU    788.84s WALL (     224 calls)

     Called by c_bands:
     init_us_2    :    103.39s CPU    110.05s WALL (    1410 calls)
     cegterg      :  15705.82s CPU  15923.75s WALL (     672 calls)

     Called by *egterg:
     cdiaghg      :   3706.21s CPU   3733.12s WALL (    4583 calls)
     h_psi        :   5095.34s CPU   5177.12s WALL (    4646 calls)
     s_psi        :   1332.26s CPU   1341.74s WALL (    4646 calls)
     g_psi        :     22.21s CPU     22.53s WALL (    3971 calls)

     Called by h_psi:
     h_psi:calbec :   1437.25s CPU   1447.29s WALL (    4646 calls)
     vloc_psi     :   2287.03s CPU   2313.29s WALL (    4646 calls)
     add_vuspsi   :   1327.18s CPU   1336.37s WALL (    4646 calls)

     General routines
     calbec       :   2060.22s CPU   2074.22s WALL (    5480 calls)
     fft          :    124.15s CPU    125.40s WALL (    5798 calls)
     ffts         :    346.88s CPU    349.92s WALL (  132245 calls)
     fftw         :   2477.00s CPU   2505.37s WALL ( 2746106 calls)
     interpolate  :     14.83s CPU     14.98s WALL (     450 calls)
     davcio       :      0.84s CPU    103.92s WALL (    5731 calls)

     Parallel routines
     fft_scatt_xy :    344.89s CPU    348.55s WALL ( 2884149 calls)
     fft_scatt_yz :   1365.68s CPU   1381.53s WALL ( 2884149 calls)

     PWSCF        :      5h38m CPU      5h45m WALL


   This run was terminated on:  23:14: 9   8Jul2022            

=------------------------------------------------------------------------------=
   JOB DONE.
=------------------------------------------------------------------------------=
