     Message from routine get_command_line:
     unexpected argument # 4     :-in

     Program PWSCF v.6.7MaX starts on  5Jul2022 at 18:37:19 

     This program is part of the open-source Quantum ESPRESSO suite
     for quantum simulation of materials; please cite
         "P. Giannozzi et al., J. Phys.:Condens. Matter 21 395502 (2009);
         "P. Giannozzi et al., J. Phys.:Condens. Matter 29 465901 (2017);
          URL http://www.quantum-espresso.org", 
     in publications or presentations arising from this work. More details at
     http://www.quantum-espresso.org/quote

     Parallel version (MPI), running on   120 processors

     MPI processes distributed on     1 nodes
     K-points division:     npool     =       8
     R & G space division:  proc/nbgrp/npool/nimage =      15
     Waiting for input...
     Reading input from standard input
Warning: card &CELL ignored
Warning: card / ignored

     Current dimensions of program PWSCF are:
     Max number of different atomic species (ntypx) = 10
     Max number of k-points (npk) =  40000
     Max angular momentum in pseudopotentials (lmaxx) =  3

     IMPORTANT: XC functional enforced from input :
     Exchange-correlation= PBE
                           (   1   4   3   4   0   0   0)
     Any further DFT definition will be discarded
     Please, verify this is what you really want


     -------------------------------------------------
     Parameters for Dispersion (Grimme-D2) Correction:
     -------------------------------------------------
       atom      VdW radius       C_6     

        H          1.892          4.857

     Subspace diagonalization in iterative solution of the eigenvalue problem:
     one sub-group per band group will be used
     scalapack distributed-memory algorithm (size of sub-group:  3*  3 procs)


     Parallelization info
     --------------------
     sticks:   dense  smooth     PW     G-vecs:    dense   smooth      PW
     Min        3636    1818    468               639190   225950   29545
     Max        3637    1819    470               639197   225953   29547
     Sum       54553   27281   7033              9587919  3389267  443191



     bravais-lattice index     =            0
     lattice parameter (alat)  =      37.7945  a.u.
     unit-cell volume          =   53986.6760 (a.u.)^3
     number of atoms/cell      =            1
     number of atomic types    =            1
     number of electrons       =         1.00
     number of Kohn-Sham states=            5
     kinetic-energy cutoff     =      60.0000  Ry
     charge density cutoff     =     480.0000  Ry
     scf convergence threshold =      1.0E-08
     mixing beta               =       0.7000
     number of iterations used =           10  plain     mixing
     energy convergence thresh.=      7.3E-07
     force convergence thresh. =      3.9E-04
     Exchange-correlation= PBE
                           (   1   4   3   4   0   0   0)
     nstep                     =           50


     celldm(1)=  37.794522  celldm(2)=   0.000000  celldm(3)=   0.000000
     celldm(4)=   0.000000  celldm(5)=   0.000000  celldm(6)=   0.000000

     crystal axes: (cart. coord. in units of alat)
               a(1) = (   1.000000   0.000000   0.000000 )  
               a(2) = (   0.000000   1.000000   0.000000 )  
               a(3) = (   0.000000   0.000000   1.000000 )  

     reciprocal axes: (cart. coord. in units 2 pi/alat)
               b(1) = (  1.000000  0.000000  0.000000 )  
               b(2) = (  0.000000  1.000000  0.000000 )  
               b(3) = (  0.000000  0.000000  1.000000 )  


     PseudoPot. # 1 for H  read from file:
     ../../SSSP/H.pbe-rrkjus_psl.1.0.0.UPF
     MD5 check sum: f52b6d4d1c606e5624b1dc7b2218f220
     Pseudo is Ultrasoft, Zval =  1.0
     Generated using "atomic" code by A. Dal Corso  v.5.1
     Using radial grid of  929 points,  2 beta functions with: 
                l(1) =   0
                l(2) =   0
     Q(r) pseudized with 0 coefficients 


     atomic species   valence    mass     pseudopotential
        H              1.00     1.00800     H ( 1.00)

     Starting magnetic structure 
     atomic species   magnetization
        H            0.100

     No symmetry found



   Cartesian axes

     site n.     atom                  positions (alat units)
         1           H   tau(   1) = (   0.5000000   0.5000000   0.5064964  )

     number of k points=    10  Methfessel-Paxton smearing, width (Ry)=  0.0100
                       cart. coord. in units 2pi/alat
        k(    1) = (   0.0000000   0.0000000   0.0000000), wk =   0.0625000
        k(    2) = (   0.0000000   0.2500000   0.0000000), wk =   0.1250000
        k(    3) = (   0.0000000  -0.5000000   0.0000000), wk =   0.0625000
        k(    4) = (   0.2500000   0.0000000   0.0000000), wk =   0.1250000
        k(    5) = (   0.2500000   0.2500000   0.0000000), wk =   0.1250000
        k(    6) = (   0.2500000  -0.5000000   0.0000000), wk =   0.1250000
        k(    7) = (   0.2500000  -0.2500000   0.0000000), wk =   0.1250000
        k(    8) = (  -0.5000000   0.0000000   0.0000000), wk =   0.0625000
        k(    9) = (  -0.5000000   0.2500000   0.0000000), wk =   0.1250000
        k(   10) = (  -0.5000000  -0.5000000   0.0000000), wk =   0.0625000

     Dense  grid:  9587919 G-vectors     FFT dimensions: ( 270, 270, 270)

     Smooth grid:  3389267 G-vectors     FFT dimensions: ( 192, 192, 192)

     Estimated max dynamical RAM per process >     315.63 MB

     Estimated total dynamical RAM >      36.99 GB
     Generating pointlists ...
     new r_m :   0.4125 (alat units) 15.5902 (a.u.) for type    1

     Initial potential from superposition of free atoms

     starting charge    0.99999, renormalised to    1.00000

     negative rho (up, down):  1.968E-05 1.610E-05
     Starting wfcs are    1 randomized atomic wfcs +    4 random wfcs

     total cpu time spent up to now is       19.6 secs

     Self-consistent Calculation

     iteration #  1     ecut=    60.00 Ry     beta= 0.70
     CG style diagonalization
     c_bands:  3 eigenvalues not converged
     c_bands:  2 eigenvalues not converged
     c_bands:  2 eigenvalues not converged
     ethr =  1.00E-04,  avg # of iterations = 16.7

     negative rho (up, down):  3.775E-05 4.359E-06

     total cpu time spent up to now is       47.6 secs

     total energy              =      -0.99007452 Ry
     estimated scf accuracy    <       0.00934134 Ry

     total magnetization       =     1.03 Bohr mag/cell
     absolute magnetization    =     1.03 Bohr mag/cell

     iteration #  2     ecut=    60.00 Ry     beta= 0.70
     CG style diagonalization
     ethr =  9.34E-04,  avg # of iterations =  3.1

     negative rho (up, down):  4.824E-05 1.522E-05

     total cpu time spent up to now is       61.8 secs

     total energy              =      -0.99896495 Ry
     estimated scf accuracy    <       0.00170773 Ry

     total magnetization       =     1.00 Bohr mag/cell
     absolute magnetization    =     1.00 Bohr mag/cell

     iteration #  3     ecut=    60.00 Ry     beta= 0.70
     CG style diagonalization
     ethr =  1.71E-04,  avg # of iterations =  3.8

     negative rho (up, down):  4.921E-05 1.035E-03

     total cpu time spent up to now is       77.1 secs

     total energy              =      -1.03170646 Ry
     estimated scf accuracy    <       0.00005807 Ry

     total magnetization       =     1.00 Bohr mag/cell
     absolute magnetization    =     1.00 Bohr mag/cell

     iteration #  4     ecut=    60.00 Ry     beta= 0.70
     CG style diagonalization
     c_bands:  1 eigenvalues not converged
     ethr =  5.81E-06,  avg # of iterations = 10.2

     negative rho (up, down):  5.098E-05 7.397E-04

     total cpu time spent up to now is       98.7 secs

     total energy              =      -1.03196148 Ry
     estimated scf accuracy    <       0.00004894 Ry

     total magnetization       =     1.00 Bohr mag/cell
     absolute magnetization    =     1.00 Bohr mag/cell

     iteration #  5     ecut=    60.00 Ry     beta= 0.70
     CG style diagonalization
     c_bands:  1 eigenvalues not converged
     ethr =  4.89E-06,  avg # of iterations =  3.5

     negative rho (up, down):  4.970E-05 4.442E-07

     total cpu time spent up to now is      114.0 secs

     total energy              =      -0.99968523 Ry
     estimated scf accuracy    <       0.00011068 Ry

     total magnetization       =     1.00 Bohr mag/cell
     absolute magnetization    =     1.00 Bohr mag/cell

     iteration #  6     ecut=    60.00 Ry     beta= 0.70
     CG style diagonalization
     ethr =  4.89E-06,  avg # of iterations = 10.8

     negative rho (up, down):  4.952E-05 1.090E-04

     total cpu time spent up to now is      137.2 secs

     total energy              =      -1.03209099 Ry
     estimated scf accuracy    <       0.00001983 Ry

     total magnetization       =     1.00 Bohr mag/cell
     absolute magnetization    =     1.00 Bohr mag/cell

     iteration #  7     ecut=    60.00 Ry     beta= 0.70
     CG style diagonalization
     ethr =  1.98E-06,  avg # of iterations = 10.4

     negative rho (up, down):  4.988E-05 1.031E-08

     total cpu time spent up to now is      162.8 secs

     total energy              =      -0.99972011 Ry
     estimated scf accuracy    <       0.00002039 Ry

     total magnetization       =     1.00 Bohr mag/cell
     absolute magnetization    =     1.00 Bohr mag/cell

     iteration #  8     ecut=    60.00 Ry     beta= 0.70
     CG style diagonalization
     ethr =  1.98E-06,  avg # of iterations = 11.1

     negative rho (up, down):  4.984E-05 1.732E-08

     total cpu time spent up to now is      186.7 secs

     total energy              =      -0.99982163 Ry
     estimated scf accuracy    <       0.00001759 Ry

     total magnetization       =     1.00 Bohr mag/cell
     absolute magnetization    =     1.00 Bohr mag/cell

     iteration #  9     ecut=    60.00 Ry     beta= 0.70
     CG style diagonalization
     ethr =  1.76E-06,  avg # of iterations =  3.6

     negative rho (up, down):  4.986E-05 6.084E-09

     total cpu time spent up to now is      202.4 secs

     total energy              =      -0.99982737 Ry
     estimated scf accuracy    <       0.00001399 Ry

     total magnetization       =     1.00 Bohr mag/cell
     absolute magnetization    =     1.00 Bohr mag/cell

     iteration # 10     ecut=    60.00 Ry     beta= 0.70
     CG style diagonalization
     ethr =  1.40E-06,  avg # of iterations =  5.1

     negative rho (up, down):  5.023E-05 1.279E-08

     total cpu time spent up to now is      219.9 secs

     total energy              =      -0.99982697 Ry
     estimated scf accuracy    <       0.00000988 Ry

     total magnetization       =     1.00 Bohr mag/cell
     absolute magnetization    =     1.00 Bohr mag/cell

     iteration # 11     ecut=    60.00 Ry     beta= 0.70
     CG style diagonalization
     ethr =  9.88E-07,  avg # of iterations =  3.3

     negative rho (up, down):  4.971E-05 1.038E-08

     total cpu time spent up to now is      235.3 secs

     total energy              =      -0.99982661 Ry
     estimated scf accuracy    <       0.00001422 Ry

     total magnetization       =     1.00 Bohr mag/cell
     absolute magnetization    =     1.00 Bohr mag/cell

     iteration # 12     ecut=    60.00 Ry     beta= 0.70
     CG style diagonalization
     ethr =  9.88E-07,  avg # of iterations =  3.2

     negative rho (up, down):  4.961E-05 3.906E-10

     total cpu time spent up to now is      250.7 secs

     total energy              =      -1.03176725 Ry
     estimated scf accuracy    <       0.00000610 Ry

     total magnetization       =     1.00 Bohr mag/cell
     absolute magnetization    =     1.00 Bohr mag/cell

     iteration # 13     ecut=    60.00 Ry     beta= 0.70
     CG style diagonalization
     ethr =  6.10E-07,  avg # of iterations =  9.7

     negative rho (up, down):  5.027E-05 3.849E-11

     total cpu time spent up to now is      273.0 secs

     total energy              =      -0.99972061 Ry
     estimated scf accuracy    <       0.00002210 Ry

     total magnetization       =     1.00 Bohr mag/cell
     absolute magnetization    =     1.00 Bohr mag/cell

     iteration # 14     ecut=    60.00 Ry     beta= 0.70
     CG style diagonalization
     ethr =  6.10E-07,  avg # of iterations =  8.8

     negative rho (up, down):  4.999E-05 5.418E-12

     total cpu time spent up to now is      294.4 secs

     total energy              =      -0.99983050 Ry
     estimated scf accuracy    <       0.00000160 Ry

     total magnetization       =     1.00 Bohr mag/cell
     absolute magnetization    =     1.00 Bohr mag/cell

     iteration # 15     ecut=    60.00 Ry     beta= 0.70
     CG style diagonalization
     ethr =  1.60E-07,  avg # of iterations =  4.0

     negative rho (up, down):  5.055E-05 8.548E-12

     total cpu time spent up to now is      310.7 secs

     total energy              =      -0.99983043 Ry
     estimated scf accuracy    <       0.00000963 Ry

     total magnetization       =     1.00 Bohr mag/cell
     absolute magnetization    =     1.00 Bohr mag/cell

     iteration # 16     ecut=    60.00 Ry     beta= 0.70
     CG style diagonalization
     ethr =  1.60E-07,  avg # of iterations =  3.2

     negative rho (up, down):  4.960E-05 9.585E-12

     total cpu time spent up to now is      326.0 secs

     total energy              =      -0.99982902 Ry
     estimated scf accuracy    <       0.00001680 Ry

     total magnetization       =     1.00 Bohr mag/cell
     absolute magnetization    =     1.00 Bohr mag/cell

     iteration # 17     ecut=    60.00 Ry     beta= 0.70
     CG style diagonalization
     ethr =  1.60E-07,  avg # of iterations =  3.1

     negative rho (up, down):  4.970E-05 5.242E-12

     total cpu time spent up to now is      341.2 secs

     total energy              =      -0.99982973 Ry
     estimated scf accuracy    <       0.00000005 Ry

     total magnetization       =     1.00 Bohr mag/cell
     absolute magnetization    =     1.00 Bohr mag/cell

     iteration # 18     ecut=    60.00 Ry     beta= 0.70
     CG style diagonalization
     ethr =  5.11E-09,  avg # of iterations =  3.1

     negative rho (up, down):  4.971E-05 1.326E-08

     total cpu time spent up to now is      356.3 secs

     total energy              =      -1.03214249 Ry
     estimated scf accuracy    <       0.00000017 Ry

     total magnetization       =     1.00 Bohr mag/cell
     absolute magnetization    =     1.00 Bohr mag/cell

     iteration # 19     ecut=    60.00 Ry     beta= 0.70
     CG style diagonalization
     ethr =  5.11E-09,  avg # of iterations = 11.3

     negative rho (up, down):  5.042E-05 6.010E-12

     total cpu time spent up to now is      380.4 secs

     total energy              =      -0.99973150 Ry
     estimated scf accuracy    <       0.00003813 Ry

     total magnetization       =     1.00 Bohr mag/cell
     absolute magnetization    =     1.00 Bohr mag/cell

     iteration # 20     ecut=    60.00 Ry     beta= 0.70
     CG style diagonalization
     ethr =  5.11E-09,  avg # of iterations = 11.3

     negative rho (up, down):  5.060E-05 2.720E-11

     total cpu time spent up to now is      404.3 secs

     total energy              =      -0.99983474 Ry
     estimated scf accuracy    <       0.00000216 Ry

     total magnetization       =     1.00 Bohr mag/cell
     absolute magnetization    =     1.00 Bohr mag/cell

     iteration # 21     ecut=    60.00 Ry     beta= 0.70
     CG style diagonalization
     ethr =  5.11E-09,  avg # of iterations =  4.1

     negative rho (up, down):  5.296E-05 5.566E-11

     total cpu time spent up to now is      420.7 secs

     total energy              =      -0.99984465 Ry
     estimated scf accuracy    <       0.00003068 Ry

     total magnetization       =     1.00 Bohr mag/cell
     absolute magnetization    =     1.00 Bohr mag/cell

     iteration # 22     ecut=    60.00 Ry     beta= 0.70
     CG style diagonalization
     ethr =  5.11E-09,  avg # of iterations =  3.2

     negative rho (up, down):  4.930E-05 9.066E-12

     total cpu time spent up to now is      436.0 secs

     total energy              =      -0.99982700 Ry
     estimated scf accuracy    <       0.00007913 Ry

     total magnetization       =     1.00 Bohr mag/cell
     absolute magnetization    =     1.00 Bohr mag/cell

     iteration # 23     ecut=    60.00 Ry     beta= 0.70
     CG style diagonalization
     ethr =  5.11E-09,  avg # of iterations =  3.3

     negative rho (up, down):  4.936E-05 1.814E-08

     total cpu time spent up to now is      451.4 secs

     total energy              =      -1.03214174 Ry
     estimated scf accuracy    <       0.00000027 Ry

     total magnetization       =     1.00 Bohr mag/cell
     absolute magnetization    =     1.00 Bohr mag/cell

     iteration # 24     ecut=    60.00 Ry     beta= 0.70
     CG style diagonalization
     ethr =  5.11E-09,  avg # of iterations = 11.4

     negative rho (up, down):  5.105E-05 9.839E-09

     total cpu time spent up to now is      475.5 secs

     total energy              =      -1.03224030 Ry
     estimated scf accuracy    <       0.00004973 Ry

     total magnetization       =     1.00 Bohr mag/cell
     absolute magnetization    =     1.00 Bohr mag/cell

     iteration # 25     ecut=    60.00 Ry     beta= 0.70
     CG style diagonalization
     ethr =  5.11E-09,  avg # of iterations =  3.8

     negative rho (up, down):  5.098E-05 8.562E-12

     total cpu time spent up to now is      491.7 secs

     total energy              =      -0.99973056 Ry
     estimated scf accuracy    <       0.00004870 Ry

     total magnetization       =     1.00 Bohr mag/cell
     absolute magnetization    =     1.00 Bohr mag/cell

     iteration # 26     ecut=    60.00 Ry     beta= 0.70
     CG style diagonalization
     ethr =  5.11E-09,  avg # of iterations = 10.9

     negative rho (up, down):  4.958E-05 7.340E-13

     total cpu time spent up to now is      515.0 secs

     total energy              =      -0.99982982 Ry
     estimated scf accuracy    <       0.00000060 Ry

     total magnetization       =     1.00 Bohr mag/cell
     absolute magnetization    =     1.00 Bohr mag/cell

     iteration # 27     ecut=    60.00 Ry     beta= 0.70
     CG style diagonalization
     ethr =  5.11E-09,  avg # of iterations =  3.9

     negative rho (up, down):  4.946E-05 1.038E-12

     total cpu time spent up to now is      531.3 secs

     total energy              =      -0.99982988 Ry
     estimated scf accuracy    <       0.00000043 Ry

     total magnetization       =     1.00 Bohr mag/cell
     absolute magnetization    =     1.00 Bohr mag/cell

     iteration # 28     ecut=    60.00 Ry     beta= 0.70
     CG style diagonalization
     ethr =  5.11E-09,  avg # of iterations =  3.0

     negative rho (up, down):  4.944E-05 2.570E-10

     total cpu time spent up to now is      546.3 secs

     total energy              =      -1.03214160 Ry
     estimated scf accuracy    <       0.00000074 Ry

     total magnetization       =     1.00 Bohr mag/cell
     absolute magnetization    =     1.00 Bohr mag/cell

     iteration # 29     ecut=    60.00 Ry     beta= 0.70
     CG style diagonalization
     ethr =  5.11E-09,  avg # of iterations = 11.3

     negative rho (up, down):  5.031E-05 6.738E-13

     total cpu time spent up to now is      570.3 secs

     total energy              =      -0.99973518 Ry
     estimated scf accuracy    <       0.00002583 Ry

     total magnetization       =     1.00 Bohr mag/cell
     absolute magnetization    =     1.00 Bohr mag/cell

     iteration # 30     ecut=    60.00 Ry     beta= 0.70
     CG style diagonalization
     ethr =  5.11E-09,  avg # of iterations = 11.2

     negative rho (up, down):  4.951E-05 1.410E-14

     total cpu time spent up to now is      594.2 secs

     total energy              =      -0.99982987 Ry
     estimated scf accuracy    <       0.00000074 Ry

     total magnetization       =     1.00 Bohr mag/cell
     absolute magnetization    =     1.00 Bohr mag/cell

     iteration # 31     ecut=    60.00 Ry     beta= 0.70
     CG style diagonalization
     ethr =  5.11E-09,  avg # of iterations =  3.9

     negative rho (up, down):  4.944E-05 9.486E-10

     total cpu time spent up to now is      610.4 secs

     total energy              =      -1.03214144 Ry
     estimated scf accuracy    <       0.00000069 Ry

     total magnetization       =     1.00 Bohr mag/cell
     absolute magnetization    =     1.00 Bohr mag/cell

     iteration # 32     ecut=    60.00 Ry     beta= 0.70
     CG style diagonalization
     ethr =  5.11E-09,  avg # of iterations = 11.3

     negative rho (up, down):  5.039E-05 7.205E-10

     total cpu time spent up to now is      634.4 secs

     total energy              =      -1.03223607 Ry
     estimated scf accuracy    <       0.00002648 Ry

     total magnetization       =     1.00 Bohr mag/cell
     absolute magnetization    =     1.00 Bohr mag/cell

     iteration # 33     ecut=    60.00 Ry     beta= 0.70
     CG style diagonalization
     ethr =  5.11E-09,  avg # of iterations =  3.8

     negative rho (up, down):  5.093E-05 5.816E-10

     total cpu time spent up to now is      650.5 secs

     total energy              =      -1.03223585 Ry
     estimated scf accuracy    <       0.00002770 Ry

     total magnetization       =     1.00 Bohr mag/cell
     absolute magnetization    =     1.00 Bohr mag/cell

     iteration # 34     ecut=    60.00 Ry     beta= 0.70
     CG style diagonalization
     ethr =  5.11E-09,  avg # of iterations =  3.0

     negative rho (up, down):  5.113E-05 1.844E-10

     total cpu time spent up to now is      665.6 secs

     total energy              =      -1.03223584 Ry
     estimated scf accuracy    <       0.00002668 Ry

     total magnetization       =     1.00 Bohr mag/cell
     absolute magnetization    =     1.00 Bohr mag/cell

     iteration # 35     ecut=    60.00 Ry     beta= 0.70
     CG style diagonalization
     ethr =  5.11E-09,  avg # of iterations =  3.0

     negative rho (up, down):  5.119E-05 2.023E-10

     total cpu time spent up to now is      680.7 secs

     total energy              =      -1.03223584 Ry
     estimated scf accuracy    <       0.00002665 Ry

     total magnetization       =     1.00 Bohr mag/cell
     absolute magnetization    =     1.00 Bohr mag/cell

     iteration # 36     ecut=    60.00 Ry     beta= 0.70
     CG style diagonalization
     ethr =  5.11E-09,  avg # of iterations =  3.0

     negative rho (up, down):  5.123E-05 6.765E-14

     total cpu time spent up to now is      695.8 secs

     total energy              =      -0.99973513 Ry
     estimated scf accuracy    <       0.00002664 Ry

     total magnetization       =     1.00 Bohr mag/cell
     absolute magnetization    =     1.00 Bohr mag/cell

     iteration # 37     ecut=    60.00 Ry     beta= 0.70
     CG style diagonalization
     ethr =  5.11E-09,  avg # of iterations = 10.8

     negative rho (up, down):  4.960E-05 3.954E-10

     total cpu time spent up to now is      719.0 secs

     total energy              =      -1.03214163 Ry
     estimated scf accuracy    <       0.00000057 Ry

     total magnetization       =     1.00 Bohr mag/cell
     absolute magnetization    =     1.00 Bohr mag/cell

     iteration # 38     ecut=    60.00 Ry     beta= 0.70
     CG style diagonalization
     ethr =  5.11E-09,  avg # of iterations = 11.5

     negative rho (up, down):  5.055E-05 4.519E-10

     total cpu time spent up to now is      743.2 secs

     total energy              =      -1.03223586 Ry
     estimated scf accuracy    <       0.00002728 Ry

     total magnetization       =     1.00 Bohr mag/cell
     absolute magnetization    =     1.00 Bohr mag/cell

     iteration # 39     ecut=    60.00 Ry     beta= 0.70
     CG style diagonalization
     ethr =  5.11E-09,  avg # of iterations =  4.0

     negative rho (up, down):  5.097E-05 1.999E-10

     total cpu time spent up to now is      759.7 secs

     total energy              =      -1.03223570 Ry
     estimated scf accuracy    <       0.00002673 Ry

     total magnetization       =     1.00 Bohr mag/cell
     absolute magnetization    =     1.00 Bohr mag/cell

     iteration # 40     ecut=    60.00 Ry     beta= 0.70
     CG style diagonalization
     ethr =  5.11E-09,  avg # of iterations =  3.0

     negative rho (up, down):  5.117E-05 2.595E-10

     total cpu time spent up to now is      774.7 secs

     total energy              =      -1.03223594 Ry
     estimated scf accuracy    <       0.00002598 Ry

     total magnetization       =     1.00 Bohr mag/cell
     absolute magnetization    =     1.00 Bohr mag/cell

     iteration # 41     ecut=    60.00 Ry     beta= 0.70
     CG style diagonalization
     ethr =  5.11E-09,  avg # of iterations =  3.0

     negative rho (up, down):  5.121E-05 1.976E-10

     total cpu time spent up to now is      789.8 secs

     total energy              =      -1.03223591 Ry
     estimated scf accuracy    <       0.00002710 Ry

     total magnetization       =     1.00 Bohr mag/cell
     absolute magnetization    =     1.00 Bohr mag/cell

     iteration # 42     ecut=    60.00 Ry     beta= 0.70
     CG style diagonalization
     ethr =  5.11E-09,  avg # of iterations =  3.0

     negative rho (up, down):  5.122E-05 5.001E-10

     total cpu time spent up to now is      804.8 secs

     total energy              =      -1.03223591 Ry
     estimated scf accuracy    <       0.00002695 Ry

     total magnetization       =     1.00 Bohr mag/cell
     absolute magnetization    =     1.00 Bohr mag/cell

     iteration # 43     ecut=    60.00 Ry     beta= 0.70
     CG style diagonalization
     ethr =  5.11E-09,  avg # of iterations =  3.0

     negative rho (up, down):  5.119E-05 2.070E-10

     total cpu time spent up to now is      819.9 secs

     total energy              =      -1.03223575 Ry
     estimated scf accuracy    <       0.00002696 Ry

     total magnetization       =     1.00 Bohr mag/cell
     absolute magnetization    =     1.00 Bohr mag/cell

     iteration # 44     ecut=    60.00 Ry     beta= 0.70
     CG style diagonalization
     ethr =  5.11E-09,  avg # of iterations =  3.0

     negative rho (up, down):  5.120E-05 2.655E-10

     total cpu time spent up to now is      834.9 secs

     total energy              =      -1.03223582 Ry
     estimated scf accuracy    <       0.00002624 Ry

     total magnetization       =     1.00 Bohr mag/cell
     absolute magnetization    =     1.00 Bohr mag/cell

     iteration # 45     ecut=    60.00 Ry     beta= 0.70
     CG style diagonalization
     ethr =  5.11E-09,  avg # of iterations =  3.0

     negative rho (up, down):  5.124E-05 3.737E-11

     total cpu time spent up to now is      850.0 secs

     total energy              =      -1.03223598 Ry
     estimated scf accuracy    <       0.00002655 Ry

     total magnetization       =     1.00 Bohr mag/cell
     absolute magnetization    =     1.00 Bohr mag/cell

     iteration # 46     ecut=    60.00 Ry     beta= 0.70
     CG style diagonalization
     ethr =  5.11E-09,  avg # of iterations =  3.0

     negative rho (up, down):  5.118E-05 5.005E-11

     total cpu time spent up to now is      865.0 secs

     total energy              =      -1.03223571 Ry
     estimated scf accuracy    <       0.00002734 Ry

     total magnetization       =     1.00 Bohr mag/cell
     absolute magnetization    =     1.00 Bohr mag/cell

     iteration # 47     ecut=    60.00 Ry     beta= 0.70
     CG style diagonalization
     ethr =  5.11E-09,  avg # of iterations =  3.0

     negative rho (up, down):  5.120E-05 2.092E-12

     total cpu time spent up to now is      880.1 secs

     total energy              =      -1.03223578 Ry
     estimated scf accuracy    <       0.00002608 Ry

     total magnetization       =     1.00 Bohr mag/cell
     absolute magnetization    =     1.00 Bohr mag/cell

     iteration # 48     ecut=    60.00 Ry     beta= 0.70
     CG style diagonalization
     ethr =  5.11E-09,  avg # of iterations =  3.0

     negative rho (up, down):  4.987E-05 1.068E-08

     total cpu time spent up to now is      895.2 secs

     total energy              =      -1.03222906 Ry
     estimated scf accuracy    <       0.00002637 Ry

     total magnetization       =     1.00 Bohr mag/cell
     absolute magnetization    =     1.00 Bohr mag/cell

     iteration # 49     ecut=    60.00 Ry     beta= 0.70
     CG style diagonalization
     ethr =  5.11E-09,  avg # of iterations =  3.2

     negative rho (up, down):  4.986E-05 9.410E-09

     total cpu time spent up to now is      910.4 secs

     total energy              =      -1.03223040 Ry
     estimated scf accuracy    <       0.00000031 Ry

     total magnetization       =     1.00 Bohr mag/cell
     absolute magnetization    =     1.00 Bohr mag/cell

     iteration # 50     ecut=    60.00 Ry     beta= 0.70
     CG style diagonalization
     ethr =  5.11E-09,  avg # of iterations =  3.0

     negative rho (up, down):  4.986E-05 7.358E-09

     total cpu time spent up to now is      925.5 secs

     total energy              =      -1.03223038 Ry
     estimated scf accuracy    <       0.00000026 Ry

     total magnetization       =     1.00 Bohr mag/cell
     absolute magnetization    =     1.00 Bohr mag/cell

     iteration # 51     ecut=    60.00 Ry     beta= 0.70
     CG style diagonalization
     ethr =  5.11E-09,  avg # of iterations =  3.0

     negative rho (up, down):  4.988E-05 3.048E-09

     total cpu time spent up to now is      940.6 secs

     total energy              =      -1.03223038 Ry
     estimated scf accuracy    <       0.00000022 Ry

     total magnetization       =     1.00 Bohr mag/cell
     absolute magnetization    =     1.00 Bohr mag/cell

     iteration # 52     ecut=    60.00 Ry     beta= 0.70
     CG style diagonalization
     ethr =  5.11E-09,  avg # of iterations =  3.0

     negative rho (up, down):  4.984E-05 4.248E-10

     total cpu time spent up to now is      955.7 secs

     total energy              =      -1.03223042 Ry
     estimated scf accuracy    <       0.00000019 Ry

     total magnetization       =     1.00 Bohr mag/cell
     absolute magnetization    =     1.00 Bohr mag/cell

     iteration # 53     ecut=    60.00 Ry     beta= 0.70
     CG style diagonalization
     ethr =  5.11E-09,  avg # of iterations =  3.0

     negative rho (up, down):  5.000E-05 1.387E-09

     total cpu time spent up to now is      970.7 secs

     total energy              =      -1.03223036 Ry
     estimated scf accuracy    <       0.00000035 Ry

     total magnetization       =     1.00 Bohr mag/cell
     absolute magnetization    =     1.00 Bohr mag/cell

     iteration # 54     ecut=    60.00 Ry     beta= 0.70
     CG style diagonalization
     ethr =  5.11E-09,  avg # of iterations =  3.0

     negative rho (up, down):  5.017E-05 1.730E-10

     total cpu time spent up to now is      985.8 secs

     total energy              =      -1.03223035 Ry
     estimated scf accuracy    <       0.00000006 Ry

     total magnetization       =     1.00 Bohr mag/cell
     absolute magnetization    =     1.00 Bohr mag/cell

     iteration # 55     ecut=    60.00 Ry     beta= 0.70
     CG style diagonalization
     ethr =  5.11E-09,  avg # of iterations =  3.0

     negative rho (up, down):  5.016E-05 0.000E+00

     Magnetic moment per site:
     atom:    1    charge:    1.0000    magn:    1.0000    constr:    0.0000

     total cpu time spent up to now is      998.3 secs

     End of self-consistent calculation

 ------ SPIN UP ------------


          k = 0.0000 0.0000 0.0000 (423701 PWs)   bands (ev):

    -7.9786  -0.1452   0.1368   0.1861   0.1861

          k = 0.0000 0.2500 0.0000 (423725 PWs)   bands (ev):

    -7.9786  -0.1284   0.0643   0.1971   0.2014

          k = 0.0000-0.5000 0.0000 (423542 PWs)   bands (ev):

    -7.9786  -0.1018   0.0033   0.2107   0.2107

          k = 0.2500 0.0000 0.0000 (423725 PWs)   bands (ev):

    -7.9786  -0.1284   0.0643   0.1971   0.2009

          k = 0.2500 0.2500 0.0000 (423766 PWs)   bands (ev):

    -7.9786  -0.1125   0.0677   0.1095   0.2069

          k = 0.2500-0.5000 0.0000 (423782 PWs)   bands (ev):

    -7.9786  -0.0882   0.0247   0.1221   0.2085

          k = 0.2500-0.2500 0.0000 (423766 PWs)   bands (ev):

    -7.9786  -0.1125   0.0677   0.1095   0.2069

          k =-0.5000 0.0000 0.0000 (423542 PWs)   bands (ev):

    -7.9786  -0.1018   0.0033   0.2107   0.2107

          k =-0.5000 0.2500 0.0000 (423782 PWs)   bands (ev):

    -7.9786  -0.0882   0.0247   0.1221   0.2085

          k =-0.5000-0.5000 0.0000 (423708 PWs)   bands (ev):

    -7.9786  -0.0693   0.0691   0.0691   0.1248

 ------ SPIN DOWN ----------


          k = 0.0000 0.0000 0.0000 (423701 PWs)   bands (ev):

    -2.4188  -0.0416   0.3002   0.3006   0.3009

          k = 0.0000 0.2500 0.0000 (423725 PWs)   bands (ev):

    -2.4188  -0.0194   0.1606   0.3226   0.3230

          k = 0.0000-0.5000 0.0000 (423542 PWs)   bands (ev):

    -2.4188   0.0387   0.0583   0.3717   0.3719

          k = 0.2500 0.0000 0.0000 (423725 PWs)   bands (ev):

    -2.4188  -0.0194   0.1606   0.3226   0.3229

          k = 0.2500 0.2500 0.0000 (423766 PWs)   bands (ev):

    -2.4188   0.0030   0.1718   0.1956   0.3527

          k = 0.2500-0.5000 0.0000 (423782 PWs)   bands (ev):

    -2.4188   0.0620   0.0788   0.2501   0.2528

          k = 0.2500-0.2500 0.0000 (423766 PWs)   bands (ev):

    -2.4188   0.0030   0.1718   0.1956   0.3450

          k =-0.5000 0.0000 0.0000 (423542 PWs)   bands (ev):

    -2.4188   0.0387   0.0583   0.3717   0.3719

          k =-0.5000 0.2500 0.0000 (423782 PWs)   bands (ev):

    -2.4188   0.0620   0.0788   0.2501   0.2528

          k =-0.5000-0.5000 0.0000 (423708 PWs)   bands (ev):

    -2.4188   0.1252   0.1252   0.1403   0.1652

     the Fermi energy is    -3.8033 ev

!    total energy              =      -0.99974365 Ry
     estimated scf accuracy    <          4.5E-11 Ry
     smearing contrib. (-TS)   =       0.00000000 Ry
     internal energy E=F+TS    =      -0.99974365 Ry

     The total energy is F=E-TS. E is the sum of the following terms:
     one-electron contribution =      -0.84873612 Ry
     hartree contribution      =       0.54342158 Ry
     xc contribution           =      -0.61935744 Ry
     ewald contribution        =      -0.07507166 Ry
     Dispersion Correction     =      -0.00000001 Ry

     total magnetization       =     1.00 Bohr mag/cell
     absolute magnetization    =     1.00 Bohr mag/cell

     convergence has been achieved in  55 iterations

     Forces acting on atoms (cartesian axes, Ry/au):

     atom    1 type  1   force =     0.00000000    0.00000000    0.00000000

     Total force =     0.000000     Total SCF correction =     0.000000

     BFGS Geometry Optimization
     Energy error            =      0.0E+00
     Gradient error          =      0.0E+00

     bfgs converged in   1 scf cycles and   0 bfgs steps
     (criteria: energy <  7.3E-07 Ry, force <  3.9E-04 Ry/Bohr)

     End of BFGS Geometry Optimization

     Final energy   =      -0.9997436463 Ry
Begin final coordinates

ATOMIC_POSITIONS (angstrom)
H            10.0000000000       10.0000000000       10.1299290000    0   0   0
End final coordinates



     Writing output data file ./H.save/

     init_run     :     18.39s CPU     19.38s WALL (       1 calls)
     electrons    :    923.55s CPU    981.55s WALL (       1 calls)
     forces       :      1.51s CPU      1.55s WALL (       1 calls)

     Called by init_run:
     wfcinit      :      0.89s CPU      0.98s WALL (       1 calls)
     potinit      :      7.25s CPU      7.78s WALL (       1 calls)
     hinit0       :      0.48s CPU      0.62s WALL (       1 calls)

     Called by electrons:
     c_bands      :    321.78s CPU    326.39s WALL (      55 calls)
     sum_band     :     92.74s CPU     93.90s WALL (      55 calls)
     v_of_rho     :    308.54s CPU    332.80s WALL (      56 calls)
     newd         :     38.01s CPU     38.53s WALL (      56 calls)
     mix_rho      :    102.89s CPU    126.55s WALL (      55 calls)

     Called by c_bands:
     init_us_2    :      0.33s CPU      0.36s WALL (     336 calls)
     ccgdiagg     :    212.73s CPU    214.41s WALL (     165 calls)
     wfcrot       :     54.16s CPU     54.71s WALL (     165 calls)

     Called by *cgdiagg:
     h_psi        :    254.08s CPU    256.19s WALL (    3431 calls)
     s_psi        :      0.63s CPU      0.63s WALL (    6697 calls)

     Called by h_psi:
     h_psi:calbec :      4.20s CPU      4.24s WALL (    3431 calls)
     vloc_psi     :    248.47s CPU    250.52s WALL (    3431 calls)
     add_vuspsi   :      0.82s CPU      0.84s WALL (    3431 calls)
     hs_1psi      :    202.24s CPU    203.83s WALL (    3266 calls)
     s_1psi       :      1.68s CPU      1.69s WALL (    3266 calls)

     General routines
     calbec       :      6.52s CPU      6.59s WALL (    6874 calls)
     fft          :    338.57s CPU    345.01s WALL (    1397 calls)
     ffts         :     20.26s CPU     20.42s WALL (     222 calls)
     fftw         :    243.58s CPU    245.52s WALL (    9007 calls)
     interpolate  :     40.81s CPU     42.40s WALL (     112 calls)
     davcio       :      0.30s CPU     15.34s WALL (    1688 calls)

     Parallel routines
     fft_scatt_xy :     64.53s CPU     65.24s WALL (   10626 calls)
     fft_scatt_yz :    338.82s CPU    341.25s WALL (   10626 calls)

     PWSCF        :  15m44.23s CPU  16m44.09s WALL


   This run was terminated on:  18:54: 3   5Jul2022            

=------------------------------------------------------------------------------=
   JOB DONE.
=------------------------------------------------------------------------------=
