
     Program PWSCF v.6.7MaX starts on 16Jun2022 at 19:29:59 

     This program is part of the open-source Quantum ESPRESSO suite
     for quantum simulation of materials; please cite
         "P. Giannozzi et al., J. Phys.:Condens. Matter 21 395502 (2009);
         "P. Giannozzi et al., J. Phys.:Condens. Matter 29 465901 (2017);
          URL http://www.quantum-espresso.org", 
     in publications or presentations arising from this work. More details at
     http://www.quantum-espresso.org/quote

     Parallel version (MPI), running on   256 processors

     MPI processes distributed on     2 nodes
     K-points division:     npool     =       8
     R & G space division:  proc/nbgrp/npool/nimage =      32
     Waiting for input...
     Reading input from standard input
Warning: card &CELL ignored
Warning: card / ignored

     Current dimensions of program PWSCF are:
     Max number of different atomic species (ntypx) = 10
     Max number of k-points (npk) =  40000
     Max angular momentum in pseudopotentials (lmaxx) =  3
     file Fe.pbe-spn-kjpaw_psl.0.2.1.UPF: wavefunction(s)  3D renormalized

     IMPORTANT: XC functional enforced from input :
     Exchange-correlation= PBE
                           (   1   4   3   4   0   0   0)
     Any further DFT definition will be discarded
     Please, verify this is what you really want


     -------------------------------------------------
     Parameters for Dispersion (Grimme-D2) Correction:
     -------------------------------------------------
       atom      VdW radius       C_6     

        Fe         2.952        374.666
        N          2.640         42.670
        H          1.892          4.857

     Subspace diagonalization in iterative solution of the eigenvalue problem:
     one sub-group per band group will be used
     scalapack distributed-memory algorithm (size of sub-group:  5*  5 procs)


     Parallelization info
     --------------------
     sticks:   dense  smooth     PW     G-vecs:    dense   smooth      PW
     Min         396     198     52                90796    32100    4368
     Max         397     199     53                90807    32109    4377
     Sum       12685    6351   1677              2905599  1027285  139897



     bravais-lattice index     =            0
     lattice parameter (alat)  =      18.7640  a.u.
     unit-cell volume          =   16360.3161 (a.u.)^3
     number of atoms/cell      =           68
     number of atomic types    =            3
     number of electrons       =      1032.00
     number of Kohn-Sham states=          619
     kinetic-energy cutoff     =      60.0000  Ry
     charge density cutoff     =     480.0000  Ry
     scf convergence threshold =      1.0E-08
     mixing beta               =       0.2000
     number of iterations used =           10  local-TF  mixing
     energy convergence thresh.=      7.3E-07
     force convergence thresh. =      3.9E-04
     Exchange-correlation= PBE
                           (   1   4   3   4   0   0   0)
     nstep                     =           50


     Effective Screening Medium Method
     =================================
     Boundary Conditions: Metal-Slab-Metal
     field strength                   =     0.02 Ry/a.u.
     grid points for fit at edges     =        4 


     celldm(1)=  18.764036  celldm(2)=   0.000000  celldm(3)=   0.000000
     celldm(4)=   0.000000  celldm(5)=   0.000000  celldm(6)=   0.000000

     crystal axes: (cart. coord. in units of alat)
               a(1) = (   1.000000   0.000000   0.000000 )  
               a(2) = (   0.333330   0.942807   0.000000 )  
               a(3) = (   0.000000   0.000000   2.626577 )  

     reciprocal axes: (cart. coord. in units 2 pi/alat)
               b(1) = (  1.000000 -0.353551  0.000000 )  
               b(2) = (  0.000000  1.060663  0.000000 )  
               b(3) = (  0.000000  0.000000  0.380724 )  


     PseudoPot. # 1 for Fe read from file:
     ../../SSSP/Fe.pbe-spn-kjpaw_psl.0.2.1.UPF
     MD5 check sum: e86618425769142926afa95317d90200
     Pseudo is Projector augmented-wave + core cor, Zval = 16.0
     Generated using "atomic" code by A. Dal Corso  v.5.0.99 svn rev. 10869
     Shape of augmentation charge: PSQ
     Using radial grid of 1191 points,  6 beta functions with: 
                l(1) =   0
                l(2) =   0
                l(3) =   1
                l(4) =   1
                l(5) =   2
                l(6) =   2
     Q(r) pseudized with 0 coefficients 


     PseudoPot. # 2 for N  read from file:
     ../../SSSP/N.pbe-n-radius_5.UPF
     MD5 check sum: 16739722b17309cd8fe442a2ace49922
     Pseudo is Ultrasoft + core correction, Zval =  5.0
     Generated using "atomic" code by A. Dal Corso  v.5.1
     Using radial grid of 1085 points,  4 beta functions with: 
                l(1) =   0
                l(2) =   0
                l(3) =   1
                l(4) =   1
     Q(r) pseudized with 0 coefficients 


     PseudoPot. # 3 for H  read from file:
     ../../SSSP/H.pbe-rrkjus_psl.1.0.0.UPF
     MD5 check sum: f52b6d4d1c606e5624b1dc7b2218f220
     Pseudo is Ultrasoft, Zval =  1.0
     Generated using "atomic" code by A. Dal Corso  v.5.1
     Using radial grid of  929 points,  2 beta functions with: 
                l(1) =   0
                l(2) =   0
     Q(r) pseudized with 0 coefficients 


     atomic species   valence    mass     pseudopotential
        Fe            16.00    55.84500     Fe( 1.00)
        N              5.00    14.00700     N ( 1.00)
        H              1.00     1.00800     H ( 1.00)

     Starting magnetic structure 
     atomic species   magnetization
        Fe           0.100
        N            0.100
        H            0.100

     No symmetry found



   Cartesian axes

     site n.     atom                  positions (alat units)
         1           Fe  tau(   1) = (   0.1666663   0.1178509   0.0000000  )
         2           Fe  tau(   2) = (   0.0000000   0.0000000   0.2041376  )
         3           Fe  tau(   3) = (   0.4999989   0.3535526   0.0000000  )
         4           Fe  tau(   4) = (   0.3333326   0.2357017   0.2041376  )
         5           Fe  tau(   5) = (   0.1662170   0.1176445   0.4052802  )
         6           Fe  tau(   6) = (   0.3330511   0.9440826   0.6058663  )
         7           Fe  tau(   7) = (   0.4996524   0.3541752   0.4041872  )
         8           Fe  tau(   8) = (   0.3330739   0.2348314   0.6047444  )
         9           Fe  tau(   9) = (   0.2499989   0.3535526   0.0000000  )
        10           Fe  tau(  10) = (   0.4166663   0.1178509   0.0000000  )
        11           Fe  tau(  11) = (   0.0833326   0.2357017   0.2041376  )
        12           Fe  tau(  12) = (   0.2500000   0.0000000   0.2041376  )
        13           Fe  tau(  13) = (   0.2500226   0.3534598   0.4057148  )
        14           Fe  tau(  14) = (   0.4159904   0.1173735   0.4049081  )
        15           Fe  tau(  15) = (   0.0825924   0.2363449   0.6036676  )
        16           Fe  tau(  16) = (   0.2500275   0.0000355   0.6050451  )
        17           Fe  tau(  17) = (   0.6666663   0.1178509   0.0000000  )
        18           Fe  tau(  18) = (   0.5000000   0.0000000   0.2041376  )
        19           Fe  tau(  19) = (   0.9999989   0.3535526   0.0000000  )
        20           Fe  tau(  20) = (   0.8333326   0.2357017   0.2041376  )
        21           Fe  tau(  21) = (   0.6671388   0.1173085   0.4041954  )
        22           Fe  tau(  22) = (   0.4990800   0.0000401   0.6047328  )
        23           Fe  tau(  23) = (   1.0002948   0.3528379   0.4040508  )
        24           Fe  tau(  24) = (   0.8344328   0.2341177   0.6131506  )
        25           Fe  tau(  25) = (   0.7499989   0.3535526   0.0000000  )
        26           Fe  tau(  26) = (   0.9166663   0.1178509   0.0000000  )
        27           Fe  tau(  27) = (   0.5833326   0.2357017   0.2041376  )
        28           Fe  tau(  28) = (   0.7500000   0.0000000   0.2041376  )
        29           Fe  tau(  29) = (   0.7499687   0.3535117   0.4074709  )
        30           Fe  tau(  30) = (   0.9158764   0.1187379   0.4084475  )
        31           Fe  tau(  31) = (   0.5785997   0.2323533   0.5977302  )
        32           Fe  tau(  32) = (   1.0836102   0.9440052   0.6037594  )
        33           Fe  tau(  33) = (   0.3333315   0.5892543   0.0000000  )
        34           Fe  tau(  34) = (   0.1666652   0.4714034   0.2041376  )
        35           Fe  tau(  35) = (   0.6666640   0.8249560   0.0000000  )
        36           Fe  tau(  36) = (   0.4999978   0.7071052   0.2041376  )
        37           Fe  tau(  37) = (   0.3338367   0.5895286   0.4056824  )
        38           Fe  tau(  38) = (   1.1670898   0.4714810   0.6042065  )
        39           Fe  tau(  39) = (   0.6663057   0.8246308   0.4052796  )
        40           Fe  tau(  40) = (   0.5010674   0.7064763   0.6058713  )
        41           Fe  tau(  41) = (   0.4166640   0.8249560   0.0000000  )
        42           Fe  tau(  42) = (   0.5833315   0.5892543   0.0000000  )
        43           Fe  tau(  43) = (   0.2499978   0.7071052   0.2041376  )
        44           Fe  tau(  44) = (   0.4166652   0.4714034   0.2041376  )
        45           Fe  tau(  45) = (   0.4164851   0.8248718   0.4054940  )
        46           Fe  tau(  46) = (   0.5838892   0.5882400   0.4084486  )
        47           Fe  tau(  47) = (   1.2488466   0.7063160   0.6059892  )
        48           Fe  tau(  48) = (   0.4178841   0.4712874   0.6037558  )
        49           Fe  tau(  49) = (   0.8333315   0.5892543   0.0000000  )
        50           Fe  tau(  50) = (   0.6666652   0.4714034   0.2041376  )
        51           Fe  tau(  51) = (   1.1666640   0.8249560   0.0000000  )
        52           Fe  tau(  52) = (   0.9999978   0.7071052   0.2041376  )
        53           Fe  tau(  53) = (   0.8327631   0.5897642   0.4040372  )
        54           Fe  tau(  54) = (   0.6655729   0.4729044   0.6131247  )
        55           Fe  tau(  55) = (   1.1670705   0.8253740   0.4056890  )
        56           Fe  tau(  56) = (   1.0001963   0.7074724   0.6042379  )
        57           Fe  tau(  57) = (   0.9166640   0.8249560   0.0000000  )
        58           Fe  tau(  58) = (   1.0833315   0.5892543   0.0000000  )
        59           Fe  tau(  59) = (   0.7499978   0.7071052   0.2041376  )
        60           Fe  tau(  60) = (   0.9166652   0.4714034   0.2041376  )
        61           Fe  tau(  61) = (   0.9165820   0.8250163   0.4057195  )
        62           Fe  tau(  62) = (   1.0839698   0.5897091   0.4046548  )
        63           Fe  tau(  63) = (   0.7503435   0.7061881   0.6036765  )
        64           Fe  tau(  64) = (   0.9215437   0.4748570   0.5977225  )
        65           N   tau(  65) = (   0.7500130   0.3535404   0.7528212  )
        66           H   tau(  66) = (   0.8169492   0.4009451   0.8161228  )
        67           H   tau(  67) = (   0.6831219   0.3062085   0.8162252  )
        68           H   tau(  68) = (   0.4576675   0.8539922   0.6991343  )

     number of k points=    10  Methfessel-Paxton smearing, width (Ry)=  0.0100
                       cart. coord. in units 2pi/alat
        k(    1) = (   0.0000000   0.0000000   0.0000000), wk =   0.0625000
        k(    2) = (   0.0000000   0.2651656   0.0000000), wk =   0.1250000
        k(    3) = (   0.0000000  -0.5303313   0.0000000), wk =   0.0625000
        k(    4) = (   0.2500000  -0.0883878   0.0000000), wk =   0.1250000
        k(    5) = (   0.2500000   0.1767779   0.0000000), wk =   0.1250000
        k(    6) = (   0.2500000  -0.6187190   0.0000000), wk =   0.1250000
        k(    7) = (   0.2500000  -0.3535534   0.0000000), wk =   0.1250000
        k(    8) = (  -0.5000000   0.1767755   0.0000000), wk =   0.0625000
        k(    9) = (  -0.5000000   0.4419412   0.0000000), wk =   0.1250000
        k(   10) = (  -0.5000000  -0.3535558   0.0000000), wk =   0.0625000

     Dense  grid:  2905599 G-vectors     FFT dimensions: ( 135, 135, 360)

     Smooth grid:  1027285 G-vectors     FFT dimensions: (  96,  96, 243)

     Estimated max dynamical RAM per process >     641.09 MB

     Estimated total dynamical RAM >     160.27 GB

     Check: negative core charge=   -0.000039
     Generating pointlists ...
     new r_m :   0.0742 (alat units)  1.3920 (a.u.) for type    1
     new r_m :   0.0427 (alat units)  0.8019 (a.u.) for type    2
     new r_m :   0.0427 (alat units)  0.8019 (a.u.) for type    3

     Initial potential from superposition of free atoms

     starting charge 1031.97191, renormalised to 1032.00000

     negative rho (up, down):  1.338E-02 1.095E-02
     Starting wfcs are  839 randomized atomic wfcs
     Checking if some PAW data can be deallocated... 

     total cpu time spent up to now is       34.6 secs

     Self-consistent Calculation

     iteration #  1     ecut=    60.00 Ry     beta= 0.20
     Davidson diagonalization with overlap
     ethr =  1.00E-04,  avg # of iterations = 17.4

     negative rho (up, down):  7.416E-03 5.974E-03

     total cpu time spent up to now is      334.8 secs

     total energy              =  -21079.54541524 Ry
     estimated scf accuracy    <    1285.82516455 Ry

     total magnetization       =    66.84 Bohr mag/cell
     absolute magnetization    =    68.80 Bohr mag/cell

     iteration #  2     ecut=    60.00 Ry     beta= 0.20
     Davidson diagonalization with overlap
     ethr =  1.00E-02,  avg # of iterations =  1.0

     negative rho (up, down):  5.938E-03 7.306E-03

     total cpu time spent up to now is      382.1 secs

     total energy              =  -21093.24375514 Ry
     estimated scf accuracy    <     362.90090629 Ry

     total magnetization       =    78.82 Bohr mag/cell
     absolute magnetization    =    81.11 Bohr mag/cell

     iteration #  3     ecut=    60.00 Ry     beta= 0.20
     Davidson diagonalization with overlap
     ethr =  1.00E-02,  avg # of iterations =  1.0

     negative rho (up, down):  6.993E-03 9.150E-03

     total cpu time spent up to now is      429.2 secs

     total energy              =  -21096.11288758 Ry
     estimated scf accuracy    <      15.86462117 Ry

     total magnetization       =   121.19 Bohr mag/cell
     absolute magnetization    =   121.81 Bohr mag/cell

     iteration #  4     ecut=    60.00 Ry     beta= 0.20
     Davidson diagonalization with overlap
     ethr =  1.54E-03,  avg # of iterations =  1.0

     negative rho (up, down):  5.180E-03 6.445E-03

     total cpu time spent up to now is      478.5 secs

     total energy              =  -21096.14274594 Ry
     estimated scf accuracy    <      19.56743439 Ry

     total magnetization       =   127.34 Bohr mag/cell
     absolute magnetization    =   127.95 Bohr mag/cell

     iteration #  5     ecut=    60.00 Ry     beta= 0.20
     Davidson diagonalization with overlap
     ethr =  1.54E-03,  avg # of iterations =  1.0

     negative rho (up, down):  2.556E-02 6.347E-02

     total cpu time spent up to now is      523.9 secs

     total energy              =  -21094.73138718 Ry
     estimated scf accuracy    <      24.67457533 Ry

     total magnetization       =   132.20 Bohr mag/cell
     absolute magnetization    =   132.85 Bohr mag/cell

     iteration #  6     ecut=    60.00 Ry     beta= 0.20
     Davidson diagonalization with overlap
     ethr =  1.54E-03,  avg # of iterations =  3.9

     negative rho (up, down):  2.206E-02 6.499E-02

     total cpu time spent up to now is      579.6 secs

     total energy              =  -21095.09900414 Ry
     estimated scf accuracy    <       8.43764720 Ry

     total magnetization       =   150.16 Bohr mag/cell
     absolute magnetization    =   151.39 Bohr mag/cell

     iteration #  7     ecut=    60.00 Ry     beta= 0.20
     Davidson diagonalization with overlap
     ethr =  8.18E-04,  avg # of iterations =  4.5

     negative rho (up, down):  4.115E-04 2.254E-02

     total cpu time spent up to now is      636.3 secs

     total energy              =  -21095.16137317 Ry
     estimated scf accuracy    <       3.68470764 Ry

     total magnetization       =   152.87 Bohr mag/cell
     absolute magnetization    =   154.50 Bohr mag/cell

     iteration #  8     ecut=    60.00 Ry     beta= 0.20
     Davidson diagonalization with overlap
     ethr =  3.57E-04,  avg # of iterations = 13.5

     negative rho (up, down):  2.119E-04 4.934E-03

     total cpu time spent up to now is      760.5 secs

     total energy              =  -21095.88181291 Ry
     estimated scf accuracy    <       5.63909167 Ry

     total magnetization       =   150.59 Bohr mag/cell
     absolute magnetization    =   154.82 Bohr mag/cell

     iteration #  9     ecut=    60.00 Ry     beta= 0.20
     Davidson diagonalization with overlap
     ethr =  3.57E-04,  avg # of iterations =  1.8

     negative rho (up, down):  6.684E-05 1.275E-03

     total cpu time spent up to now is      813.3 secs

     total energy              =  -21096.05274465 Ry
     estimated scf accuracy    <       0.50508064 Ry

     total magnetization       =   148.18 Bohr mag/cell
     absolute magnetization    =   151.86 Bohr mag/cell

     iteration # 10     ecut=    60.00 Ry     beta= 0.20
     Davidson diagonalization with overlap
     ethr =  4.89E-05,  avg # of iterations =  9.4

     negative rho (up, down):  9.718E-05 1.327E-03

     total cpu time spent up to now is      941.2 secs

     total energy              =  -21096.20482687 Ry
     estimated scf accuracy    <       0.65914141 Ry

     total magnetization       =   148.37 Bohr mag/cell
     absolute magnetization    =   152.24 Bohr mag/cell

     iteration # 11     ecut=    60.00 Ry     beta= 0.20
     Davidson diagonalization with overlap
     ethr =  4.89E-05,  avg # of iterations =  2.0

     negative rho (up, down):  5.887E-04 1.948E-03

     total cpu time spent up to now is      993.7 secs

     total energy              =  -21096.19339593 Ry
     estimated scf accuracy    <       0.37816447 Ry

     total magnetization       =   151.31 Bohr mag/cell
     absolute magnetization    =   155.24 Bohr mag/cell

     iteration # 12     ecut=    60.00 Ry     beta= 0.20
     Davidson diagonalization with overlap
     ethr =  3.66E-05,  avg # of iterations =  6.0

     negative rho (up, down):  3.029E-04 2.231E-03

     total cpu time spent up to now is     1053.2 secs

     total energy              =  -21096.21580483 Ry
     estimated scf accuracy    <       0.29175693 Ry

     total magnetization       =   156.22 Bohr mag/cell
     absolute magnetization    =   160.37 Bohr mag/cell

     iteration # 13     ecut=    60.00 Ry     beta= 0.20
     Davidson diagonalization with overlap
     ethr =  2.83E-05,  avg # of iterations =  3.5

     negative rho (up, down):  2.174E-03 2.786E-03

     total cpu time spent up to now is     1109.7 secs

     total energy              =  -21096.22643801 Ry
     estimated scf accuracy    <       0.41621921 Ry

     total magnetization       =   158.45 Bohr mag/cell
     absolute magnetization    =   162.65 Bohr mag/cell

     iteration # 14     ecut=    60.00 Ry     beta= 0.20
     Davidson diagonalization with overlap
     ethr =  2.83E-05,  avg # of iterations =  6.0

     negative rho (up, down):  5.372E-03 6.666E-03

     total cpu time spent up to now is     1179.8 secs

     total energy              =  -21096.22831902 Ry
     estimated scf accuracy    <       0.62680840 Ry

     total magnetization       =   160.60 Bohr mag/cell
     absolute magnetization    =   165.25 Bohr mag/cell

     iteration # 15     ecut=    60.00 Ry     beta= 0.20
     Davidson diagonalization with overlap
     ethr =  2.83E-05,  avg # of iterations =  1.3

     negative rho (up, down):  1.475E-02 1.765E-02

     total cpu time spent up to now is     1228.8 secs

     total energy              =  -21096.22994363 Ry
     estimated scf accuracy    <       0.43185547 Ry

     total magnetization       =   161.57 Bohr mag/cell
     absolute magnetization    =   166.27 Bohr mag/cell

     iteration # 16     ecut=    60.00 Ry     beta= 0.20
     Davidson diagonalization with overlap
     ethr =  2.83E-05,  avg # of iterations =  2.9

     negative rho (up, down):  2.605E-02 2.855E-02

     total cpu time spent up to now is     1282.3 secs

     total energy              =  -21096.16480471 Ry
     estimated scf accuracy    <       0.44642839 Ry

     total magnetization       =   161.11 Bohr mag/cell
     absolute magnetization    =   165.90 Bohr mag/cell

     iteration # 17     ecut=    60.00 Ry     beta= 0.20
     Davidson diagonalization with overlap
     ethr =  2.83E-05,  avg # of iterations =  5.5

     negative rho (up, down):  1.582E-02 1.740E-02

     total cpu time spent up to now is     1343.7 secs

     total energy              =  -21096.17990922 Ry
     estimated scf accuracy    <       0.14191758 Ry

     total magnetization       =   161.77 Bohr mag/cell
     absolute magnetization    =   166.68 Bohr mag/cell

     iteration # 18     ecut=    60.00 Ry     beta= 0.20
     Davidson diagonalization with overlap
     ethr =  1.38E-05,  avg # of iterations = 11.7

     negative rho (up, down):  6.116E-03 7.824E-03

     total cpu time spent up to now is     1468.1 secs

     total energy              =  -21096.19052563 Ry
     estimated scf accuracy    <       0.08419681 Ry

     total magnetization       =   161.53 Bohr mag/cell
     absolute magnetization    =   166.90 Bohr mag/cell

     iteration # 19     ecut=    60.00 Ry     beta= 0.20
     Davidson diagonalization with overlap
     c_bands:  1 eigenvalues not converged
     ethr =  8.16E-06,  avg # of iterations = 21.1

     negative rho (up, down):  3.138E-02 3.187E-02

     total cpu time spent up to now is     1669.7 secs

     total energy              =  -21096.19618621 Ry
     estimated scf accuracy    <       0.05625686 Ry

     total magnetization       =   161.59 Bohr mag/cell
     absolute magnetization    =   167.50 Bohr mag/cell

     iteration # 20     ecut=    60.00 Ry     beta= 0.20
     Davidson diagonalization with overlap
     ethr =  5.45E-06,  avg # of iterations =  6.0

     negative rho (up, down):  8.707E-02 8.570E-02

     total cpu time spent up to now is     1737.6 secs

     total energy              =  -21096.18312303 Ry
     estimated scf accuracy    <       0.04494888 Ry

     total magnetization       =   161.22 Bohr mag/cell
     absolute magnetization    =   167.25 Bohr mag/cell

     iteration # 21     ecut=    60.00 Ry     beta= 0.20
     Davidson diagonalization with overlap
     ethr =  4.36E-06,  avg # of iterations = 10.9

     negative rho (up, down):  9.089E-02 8.921E-02

     total cpu time spent up to now is     1855.8 secs

     total energy              =  -21096.18777772 Ry
     estimated scf accuracy    <       0.02584696 Ry

     total magnetization       =   161.17 Bohr mag/cell
     absolute magnetization    =   167.56 Bohr mag/cell

     iteration # 22     ecut=    60.00 Ry     beta= 0.20
     Davidson diagonalization with overlap
     c_bands:  1 eigenvalues not converged
     c_bands:  1 eigenvalues not converged
     ethr =  2.50E-06,  avg # of iterations = 19.6

     negative rho (up, down):  6.866E-02 6.804E-02

     total cpu time spent up to now is     2049.4 secs

     total energy              =  -21096.18993778 Ry
     estimated scf accuracy    <       0.02354686 Ry

     total magnetization       =   161.29 Bohr mag/cell
     absolute magnetization    =   167.84 Bohr mag/cell

     iteration # 23     ecut=    60.00 Ry     beta= 0.20
     Davidson diagonalization with overlap
     ethr =  2.28E-06,  avg # of iterations =  9.5

     negative rho (up, down):  5.726E-02 5.843E-02

     total cpu time spent up to now is     2129.7 secs

     total energy              =  -21096.18219463 Ry
     estimated scf accuracy    <       0.01845786 Ry

     total magnetization       =   161.24 Bohr mag/cell
     absolute magnetization    =   167.78 Bohr mag/cell

     iteration # 24     ecut=    60.00 Ry     beta= 0.20
     Davidson diagonalization with overlap
     ethr =  1.79E-06,  avg # of iterations = 15.1

     negative rho (up, down):  6.811E-02 6.972E-02

     total cpu time spent up to now is     2272.1 secs

     total energy              =  -21096.18097974 Ry
     estimated scf accuracy    <       0.01019598 Ry

     total magnetization       =   161.23 Bohr mag/cell
     absolute magnetization    =   167.81 Bohr mag/cell

     iteration # 25     ecut=    60.00 Ry     beta= 0.20
     Davidson diagonalization with overlap
     c_bands:  2 eigenvalues not converged
     c_bands:  5 eigenvalues not converged
     ethr =  9.88E-07,  avg # of iterations = 21.9

     negative rho (up, down):  5.647E-02 5.864E-02

     total cpu time spent up to now is     2484.9 secs

     total energy              =  -21096.18362739 Ry
     estimated scf accuracy    <       0.00690740 Ry

     total magnetization       =   161.41 Bohr mag/cell
     absolute magnetization    =   168.15 Bohr mag/cell

     iteration # 26     ecut=    60.00 Ry     beta= 0.20
     Davidson diagonalization with overlap
     c_bands:  1 eigenvalues not converged
     ethr =  6.69E-07,  avg # of iterations = 12.0

     negative rho (up, down):  2.793E-02 3.102E-02

     total cpu time spent up to now is     2573.3 secs

     total energy              =  -21096.18459000 Ry
     estimated scf accuracy    <       0.00536623 Ry

     total magnetization       =   161.51 Bohr mag/cell
     absolute magnetization    =   168.24 Bohr mag/cell

     iteration # 27     ecut=    60.00 Ry     beta= 0.20
     Davidson diagonalization with overlap
     ethr =  5.20E-07,  avg # of iterations = 10.5

     negative rho (up, down):  2.789E-02 3.114E-02

     total cpu time spent up to now is     2664.7 secs

     total energy              =  -21096.18440677 Ry
     estimated scf accuracy    <       0.00192649 Ry

     total magnetization       =   161.70 Bohr mag/cell
     absolute magnetization    =   168.40 Bohr mag/cell

     iteration # 28     ecut=    60.00 Ry     beta= 0.20
     Davidson diagonalization with overlap
     c_bands:  4 eigenvalues not converged
     ethr =  1.87E-07,  avg # of iterations = 15.1

     negative rho (up, down):  2.650E-02 2.972E-02

     total cpu time spent up to now is     2847.3 secs

     total energy              =  -21096.18425592 Ry
     estimated scf accuracy    <       0.00157457 Ry

     total magnetization       =   161.55 Bohr mag/cell
     absolute magnetization    =   168.28 Bohr mag/cell

     iteration # 29     ecut=    60.00 Ry     beta= 0.20
     Davidson diagonalization with overlap
     c_bands:  1 eigenvalues not converged
     ethr =  1.53E-07,  avg # of iterations = 10.6

     negative rho (up, down):  1.741E-02 2.121E-02

     total cpu time spent up to now is     2926.7 secs

     total energy              =  -21096.18260748 Ry
     estimated scf accuracy    <       0.00084466 Ry

     total magnetization       =   161.45 Bohr mag/cell
     absolute magnetization    =   168.17 Bohr mag/cell

     iteration # 30     ecut=    60.00 Ry     beta= 0.20
     Davidson diagonalization with overlap
     c_bands:  1 eigenvalues not converged
     c_bands:  2 eigenvalues not converged
     c_bands:  1 eigenvalues not converged
     ethr =  8.18E-08,  avg # of iterations = 11.3

     negative rho (up, down):  1.575E-02 1.974E-02

     total cpu time spent up to now is     3086.7 secs

     total energy              =  -21096.18230561 Ry
     estimated scf accuracy    <       0.00037253 Ry

     total magnetization       =   161.31 Bohr mag/cell
     absolute magnetization    =   168.05 Bohr mag/cell

     iteration # 31     ecut=    60.00 Ry     beta= 0.20
     Davidson diagonalization with overlap
     c_bands:  1 eigenvalues not converged
     ethr =  3.61E-08,  avg # of iterations =  9.9

     negative rho (up, down):  1.291E-02 1.696E-02

     total cpu time spent up to now is     3178.4 secs

     total energy              =  -21096.18090290 Ry
     estimated scf accuracy    <       0.00024176 Ry

     total magnetization       =   161.32 Bohr mag/cell
     absolute magnetization    =   168.06 Bohr mag/cell

     iteration # 32     ecut=    60.00 Ry     beta= 0.20
     Davidson diagonalization with overlap
     ethr =  2.34E-08,  avg # of iterations = 10.5

     negative rho (up, down):  1.323E-02 1.729E-02

     total cpu time spent up to now is     3301.8 secs

     total energy              =  -21096.18030130 Ry
     estimated scf accuracy    <       0.00013404 Ry

     total magnetization       =   161.42 Bohr mag/cell
     absolute magnetization    =   168.16 Bohr mag/cell

     iteration # 33     ecut=    60.00 Ry     beta= 0.20
     Davidson diagonalization with overlap
     ethr =  1.30E-08,  avg # of iterations =  8.8

     negative rho (up, down):  1.285E-02 1.705E-02

     total cpu time spent up to now is     3392.3 secs

     total energy              =  -21096.17928896 Ry
     estimated scf accuracy    <       0.00011975 Ry

     total magnetization       =   161.43 Bohr mag/cell
     absolute magnetization    =   168.18 Bohr mag/cell

     iteration # 34     ecut=    60.00 Ry     beta= 0.20
     Davidson diagonalization with overlap
     ethr =  1.16E-08,  avg # of iterations =  8.3

     negative rho (up, down):  1.165E-02 1.593E-02

     total cpu time spent up to now is     3489.0 secs

     total energy              =  -21096.17814475 Ry
     estimated scf accuracy    <       0.00009941 Ry

     total magnetization       =   161.47 Bohr mag/cell
     absolute magnetization    =   168.22 Bohr mag/cell

     iteration # 35     ecut=    60.00 Ry     beta= 0.20
     Davidson diagonalization with overlap
     ethr =  9.63E-09,  avg # of iterations =  4.8

     negative rho (up, down):  1.033E-02 1.457E-02

     total cpu time spent up to now is     3557.6 secs

     total energy              =  -21096.17703242 Ry
     estimated scf accuracy    <       0.00008284 Ry

     total magnetization       =   161.48 Bohr mag/cell
     absolute magnetization    =   168.24 Bohr mag/cell

     iteration # 36     ecut=    60.00 Ry     beta= 0.20
     Davidson diagonalization with overlap
     ethr =  8.03E-09,  avg # of iterations =  2.1

     negative rho (up, down):  1.046E-02 1.463E-02

     total cpu time spent up to now is     3612.9 secs

     total energy              =  -21096.17606899 Ry
     estimated scf accuracy    <       0.00004986 Ry

     total magnetization       =   161.49 Bohr mag/cell
     absolute magnetization    =   168.25 Bohr mag/cell

     iteration # 37     ecut=    60.00 Ry     beta= 0.20
     Davidson diagonalization with overlap
     ethr =  4.83E-09,  avg # of iterations = 11.4

     negative rho (up, down):  1.024E-02 1.447E-02

     total cpu time spent up to now is     3768.9 secs

     total energy              =  -21096.17653422 Ry
     estimated scf accuracy    <       0.00003877 Ry

     total magnetization       =   161.52 Bohr mag/cell
     absolute magnetization    =   168.29 Bohr mag/cell

     iteration # 38     ecut=    60.00 Ry     beta= 0.20
     Davidson diagonalization with overlap
     ethr =  3.76E-09,  avg # of iterations =  5.8

     negative rho (up, down):  1.093E-02 1.512E-02

     total cpu time spent up to now is     3831.2 secs

     total energy              =  -21096.17580020 Ry
     estimated scf accuracy    <       0.00002026 Ry

     total magnetization       =   161.54 Bohr mag/cell
     absolute magnetization    =   168.31 Bohr mag/cell

     iteration # 39     ecut=    60.00 Ry     beta= 0.20
     Davidson diagonalization with overlap
     ethr =  1.96E-09,  avg # of iterations =  9.0

     negative rho (up, down):  1.120E-02 1.538E-02

     total cpu time spent up to now is     3974.0 secs

     total energy              =  -21096.17560202 Ry
     estimated scf accuracy    <       0.00000569 Ry

     total magnetization       =   161.53 Bohr mag/cell
     absolute magnetization    =   168.32 Bohr mag/cell

     iteration # 40     ecut=    60.00 Ry     beta= 0.20
     Davidson diagonalization with overlap
     ethr =  5.51E-10,  avg # of iterations =  9.2

     negative rho (up, down):  1.143E-02 1.559E-02

     total cpu time spent up to now is     4128.4 secs

     total energy              =  -21096.17542784 Ry
     estimated scf accuracy    <       0.00000295 Ry

     total magnetization       =   161.54 Bohr mag/cell
     absolute magnetization    =   168.32 Bohr mag/cell

     iteration # 41     ecut=    60.00 Ry     beta= 0.20
     Davidson diagonalization with overlap
     ethr =  2.86E-10,  avg # of iterations =  9.2

     negative rho (up, down):  1.140E-02 1.557E-02

     total cpu time spent up to now is     4210.0 secs

     total energy              =  -21096.17544610 Ry
     estimated scf accuracy    <       0.00000127 Ry

     total magnetization       =   161.53 Bohr mag/cell
     absolute magnetization    =   168.32 Bohr mag/cell

     iteration # 42     ecut=    60.00 Ry     beta= 0.20
     Davidson diagonalization with overlap
     c_bands:  1 eigenvalues not converged
     ethr =  1.23E-10,  avg # of iterations =  9.8

     negative rho (up, down):  1.127E-02 1.543E-02

     total cpu time spent up to now is     4342.8 secs

     total energy              =  -21096.17542519 Ry
     estimated scf accuracy    <       0.00000070 Ry

     total magnetization       =   161.53 Bohr mag/cell
     absolute magnetization    =   168.31 Bohr mag/cell

     iteration # 43     ecut=    60.00 Ry     beta= 0.20
     Davidson diagonalization with overlap
     ethr =  6.80E-11,  avg # of iterations =  7.4

     negative rho (up, down):  1.129E-02 1.546E-02

     total cpu time spent up to now is     4482.8 secs

     total energy              =  -21096.17538843 Ry
     estimated scf accuracy    <       0.00000015 Ry

     total magnetization       =   161.53 Bohr mag/cell
     absolute magnetization    =   168.31 Bohr mag/cell

     iteration # 44     ecut=    60.00 Ry     beta= 0.20
     Davidson diagonalization with overlap
     ethr =  1.46E-11,  avg # of iterations =  7.8

     negative rho (up, down):  1.128E-02 1.545E-02

     total cpu time spent up to now is     4627.7 secs

     total energy              =  -21096.17540594 Ry
     estimated scf accuracy    <       0.00000010 Ry

     total magnetization       =   161.53 Bohr mag/cell
     absolute magnetization    =   168.31 Bohr mag/cell

     iteration # 45     ecut=    60.00 Ry     beta= 0.20
     Davidson diagonalization with overlap
     ethr =  9.42E-12,  avg # of iterations =  4.2

     negative rho (up, down):  1.131E-02 1.548E-02

     total cpu time spent up to now is     4695.4 secs

     total energy              =  -21096.17538318 Ry
     estimated scf accuracy    <       0.00000007 Ry

     total magnetization       =   161.53 Bohr mag/cell
     absolute magnetization    =   168.31 Bohr mag/cell

     iteration # 46     ecut=    60.00 Ry     beta= 0.20
     Davidson diagonalization with overlap
     ethr =  6.66E-12,  avg # of iterations =  9.3

     negative rho (up, down):  1.134E-02 1.551E-02

     total cpu time spent up to now is     4770.3 secs

     total energy              =  -21096.17534515 Ry
     estimated scf accuracy    <       0.00000004 Ry

     total magnetization       =   161.53 Bohr mag/cell
     absolute magnetization    =   168.31 Bohr mag/cell

     iteration # 47     ecut=    60.00 Ry     beta= 0.20
     Davidson diagonalization with overlap
     ethr =  3.61E-12,  avg # of iterations =  9.6

     negative rho (up, down):  1.134E-02 1.551E-02

     total cpu time spent up to now is     4913.8 secs

     total energy              =  -21096.17533821 Ry
     estimated scf accuracy    <       0.00000002 Ry

     total magnetization       =   161.52 Bohr mag/cell
     absolute magnetization    =   168.30 Bohr mag/cell

     iteration # 48     ecut=    60.00 Ry     beta= 0.20
     Davidson diagonalization with overlap
     ethr =  1.96E-12,  avg # of iterations =  4.8

     negative rho (up, down):  1.134E-02 1.550E-02

     total cpu time spent up to now is     4978.0 secs

     total energy              =  -21096.17533378 Ry
     estimated scf accuracy    <       0.00000001 Ry

     total magnetization       =   161.52 Bohr mag/cell
     absolute magnetization    =   168.30 Bohr mag/cell

     iteration # 49     ecut=    60.00 Ry     beta= 0.20
     Davidson diagonalization with overlap
     ethr =  1.23E-12,  avg # of iterations =  8.2

     negative rho (up, down):  1.133E-02 1.549E-02

     Magnetic moment per site:
     atom:    1    charge:   12.6287    magn:    2.3651    constr:    0.0000
     atom:    2    charge:   12.6154    magn:    2.2091    constr:    0.0000
     atom:    3    charge:   12.6290    magn:    2.3689    constr:    0.0000
     atom:    4    charge:   12.6168    magn:    2.1882    constr:    0.0000
     atom:    5    charge:   12.6172    magn:    2.1965    constr:    0.0000
     atom:    6    charge:   12.6275    magn:    2.2283    constr:    0.0000
     atom:    7    charge:   12.6206    magn:    2.1461    constr:    0.0000
     atom:    8    charge:   12.6251    magn:    2.3630    constr:    0.0000
     atom:    9    charge:   12.6291    magn:    2.3585    constr:    0.0000
     atom:   10    charge:   12.6287    magn:    2.3672    constr:    0.0000
     atom:   11    charge:   12.6172    magn:    2.1912    constr:    0.0000
     atom:   12    charge:   12.6169    magn:    2.1910    constr:    0.0000
     atom:   13    charge:   12.6176    magn:    2.1937    constr:    0.0000
     atom:   14    charge:   12.6160    magn:    2.1702    constr:    0.0000
     atom:   15    charge:   12.6255    magn:    2.3693    constr:    0.0000
     atom:   16    charge:   12.6261    magn:    2.2711    constr:    0.0000
     atom:   17    charge:   12.6287    magn:    2.3689    constr:    0.0000
     atom:   18    charge:   12.6167    magn:    2.1882    constr:    0.0000
     atom:   19    charge:   12.6288    magn:    2.3695    constr:    0.0000
     atom:   20    charge:   12.6162    magn:    2.2330    constr:    0.0000
     atom:   21    charge:   12.6206    magn:    2.1459    constr:    0.0000
     atom:   22    charge:   12.6250    magn:    2.3628    constr:    0.0000
     atom:   23    charge:   12.6206    magn:    2.1445    constr:    0.0000
     atom:   24    charge:   12.6186    magn:    2.0683    constr:    0.0000
     atom:   25    charge:   12.6291    magn:    2.3797    constr:    0.0000
     atom:   26    charge:   12.6291    magn:    2.3664    constr:    0.0000
     atom:   27    charge:   12.6170    magn:    2.1890    constr:    0.0000
     atom:   28    charge:   12.6170    magn:    2.1888    constr:    0.0000
     atom:   29    charge:   12.6134    magn:    2.2897    constr:    0.0000
     atom:   30    charge:   12.6112    magn:    2.1041    constr:    0.0000
     atom:   31    charge:   12.6382    magn:    2.3334    constr:    0.0000
     atom:   32    charge:   12.6247    magn:    2.3692    constr:    0.0000
     atom:   33    charge:   12.6287    magn:    2.3650    constr:    0.0000
     atom:   34    charge:   12.6167    magn:    2.1842    constr:    0.0000
     atom:   35    charge:   12.6286    magn:    2.3651    constr:    0.0000
     atom:   36    charge:   12.6159    magn:    2.2093    constr:    0.0000
     atom:   37    charge:   12.6175    magn:    2.1866    constr:    0.0000
     atom:   38    charge:   12.6261    magn:    2.3478    constr:    0.0000
     atom:   39    charge:   12.6174    magn:    2.1966    constr:    0.0000
     atom:   40    charge:   12.6275    magn:    2.2285    constr:    0.0000
     atom:   41    charge:   12.6283    magn:    2.3819    constr:    0.0000
     atom:   42    charge:   12.6296    magn:    2.3666    constr:    0.0000
     atom:   43    charge:   12.6165    magn:    2.1934    constr:    0.0000
     atom:   44    charge:   12.6169    magn:    2.1888    constr:    0.0000
     atom:   45    charge:   12.6188    magn:    2.1906    constr:    0.0000
     atom:   46    charge:   12.6116    magn:    2.1045    constr:    0.0000
     atom:   47    charge:   12.6286    magn:    2.3964    constr:    0.0000
     atom:   48    charge:   12.6246    magn:    2.3694    constr:    0.0000
     atom:   49    charge:   12.6291    magn:    2.3696    constr:    0.0000
     atom:   50    charge:   12.6167    magn:    2.2333    constr:    0.0000
     atom:   51    charge:   12.6288    magn:    2.3650    constr:    0.0000
     atom:   52    charge:   12.6168    magn:    2.1843    constr:    0.0000
     atom:   53    charge:   12.6206    magn:    2.1446    constr:    0.0000
     atom:   54    charge:   12.6181    magn:    2.0680    constr:    0.0000
     atom:   55    charge:   12.6174    magn:    2.1865    constr:    0.0000
     atom:   56    charge:   12.6263    magn:    2.3480    constr:    0.0000
     atom:   57    charge:   12.6291    magn:    2.3585    constr:    0.0000
     atom:   58    charge:   12.6286    magn:    2.3678    constr:    0.0000
     atom:   59    charge:   12.6171    magn:    2.1912    constr:    0.0000
     atom:   60    charge:   12.6170    magn:    2.1884    constr:    0.0000
     atom:   61    charge:   12.6176    magn:    2.1937    constr:    0.0000
     atom:   62    charge:   12.6161    magn:    2.1787    constr:    0.0000
     atom:   63    charge:   12.6254    magn:    2.3697    constr:    0.0000
     atom:   64    charge:   12.6377    magn:    2.3411    constr:    0.0000
     atom:   65    charge:    1.3504    magn:   -0.0011    constr:    0.0000
     atom:   66    charge:    0.4404    magn:    0.0075    constr:    0.0000
     atom:   67    charge:    0.4404    magn:    0.0075    constr:    0.0000
     atom:   68    charge:    0.3538    magn:   -0.0198    constr:    0.0000

     total cpu time spent up to now is     5060.7 secs

     End of self-consistent calculation

 ------ SPIN UP ------------


          k = 0.0000 0.0000 0.0000 (128403 PWs)   bands (ev):

   -88.7823 -88.7708 -88.7704 -88.7612 -88.7608 -88.7595 -88.7573 -88.7544
   -88.7526 -88.7506 -88.7504 -88.7495 -88.7416 -88.7415 -88.7359 -88.7357
   -88.7326 -88.7313 -88.7285 -88.7258 -88.7253 -88.7226 -88.7212 -88.7198
   -88.7195 -88.7178 -88.7091 -88.7074 -88.7060 -88.7028 -88.6930 -88.6854
   -88.6851 -88.6332 -88.6172 -88.6140 -88.6120 -88.6118 -88.6081 -88.5994
   -88.5978 -88.5949 -88.5948 -88.5930 -88.5887 -88.5867 -88.5845 -88.5842
   -88.5824 -88.5812 -88.5776 -88.5774 -88.5759 -88.5747 -88.5720 -88.5686
   -88.5660 -88.5601 -88.5580 -88.5537 -88.5466 -88.5446 -88.5436 -88.5344
   -54.9855 -54.9733 -54.9673 -54.9645 -54.9559 -54.9496 -54.9460 -54.9443
   -54.9427 -54.9425 -54.9422 -54.9403 -54.9392 -54.9347 -54.9338 -54.9337
   -54.9320 -54.9267 -54.9258 -54.9210 -54.9201 -54.9197 -54.9182 -54.9152
   -54.9130 -54.9101 -54.9016 -54.8986 -54.8952 -54.8928 -54.8916 -54.8865
   -54.8860 -54.8811 -54.8781 -54.8754 -54.8721 -54.8666 -54.8630 -54.8566
   -54.8554 -54.8522 -54.8517 -54.8515 -54.8496 -54.8449 -54.8172 -54.8029
   -54.8024 -54.7990 -54.7987 -54.7911 -54.7896 -54.7862 -54.7836 -54.7811
   -54.7765 -54.7750 -54.7749 -54.7697 -54.7695 -54.7667 -54.7658 -54.7643
   -54.7638 -54.7631 -54.7583 -54.7566 -54.7545 -54.7529 -54.7513 -54.7498
   -54.7486 -54.7461 -54.7424 -54.7382 -54.7329 -54.7300 -54.7296 -54.7242
   -54.7226 -54.7222 -54.7160 -54.7118 -54.7102 -54.7083 -54.7081 -54.7074
   -54.7065 -54.7034 -54.7014 -54.6988 -54.6973 -54.6953 -54.6934 -54.6907
   -54.6880 -54.6845 -54.6842 -54.6767 -54.6756 -54.6736 -54.6657 -54.6651
   -54.6641 -54.6629 -54.6617 -54.6571 -54.6554 -54.6520 -54.6519 -54.6500
   -54.6497 -54.6478 -54.6444 -54.6431 -54.6405 -54.6381 -54.6367 -54.6349
   -54.6340 -54.6329 -54.6305 -54.6289 -54.6270 -54.6261 -54.6245 -54.6242
   -54.6204 -54.6185 -54.6169 -54.6145 -54.6129 -54.6095 -54.6056 -54.6044
   -54.6038 -54.6000 -54.5987 -54.5985 -54.5977 -54.5959 -54.5935 -54.5915
   -54.5898 -54.5838 -54.5834 -54.5742 -54.5733 -54.5728 -54.5675 -54.5666
   -54.5662 -54.5645 -54.5545 -54.5541 -54.5533 -54.5520 -54.5514 -54.5469
   -54.5463 -54.5439 -54.5435 -54.5365 -54.5350 -54.5338 -54.5336 -54.5290
   -54.5287 -54.5262 -54.5259 -54.5189 -54.5142 -54.5131 -54.5110 -54.5020
   -54.5015 -54.4937 -54.4917 -54.4913 -54.4905 -54.4884 -54.4869 -54.4859
   -54.4851 -54.4811 -54.4804 -54.4794 -54.4784 -54.4762 -54.4762 -54.4751
   -18.1217  -9.3081  -8.5956  -7.8239  -7.4905  -6.9210  -6.8707  -6.8544
    -6.8445  -6.6314  -6.3807  -6.3000  -5.9699  -5.8655  -5.8624  -5.7780
    -5.6062  -5.4415  -5.4287  -5.3368  -5.3145  -5.2316  -5.2235  -5.2007
    -5.1856  -5.1605  -5.1258  -5.0957  -5.0465  -5.0280  -4.7911  -4.7910
    -4.7534  -4.7407  -4.6851  -4.6777  -4.6631  -4.6609  -4.6594  -4.6558
    -4.6486  -4.6447  -4.6353  -4.6337  -4.6329  -4.6321  -4.6280  -4.6192
    -4.6018  -4.5909  -4.5797  -4.5746  -4.5742  -4.5594  -4.5529  -4.5478
    -4.5166  -4.4671  -4.4471  -4.4379  -4.4286  -4.3930  -4.3750  -4.3719
    -4.3621  -4.3405  -4.2736  -4.0936  -4.0691  -4.0644  -4.0605  -4.0571
    -4.0477  -3.9435  -3.9386  -3.9113  -3.8908  -3.8845  -3.8833  -3.8761
    -3.8753  -3.8744  -3.8618  -3.8547  -3.8513  -3.8416  -3.8371  -3.8349
    -3.8262  -3.8231  -3.8185  -3.8073  -3.8046  -3.8017  -3.7999  -3.7899
    -3.7741  -3.7717  -3.7697  -3.7486  -3.7486  -3.7444  -3.7368  -3.7275
    -3.7263  -3.7119  -3.7013  -3.6986  -3.6824  -3.6791  -3.6770  -3.6534
    -3.6102  -3.6020  -3.5338  -3.5088  -3.5076  -3.4973  -3.4889  -3.4825
    -3.4574  -3.4152  -3.3631  -3.3078  -3.3061  -3.3030  -3.2929  -3.2915
    -3.2895  -3.2853  -3.2673  -3.2549  -3.2370  -3.2238  -3.2222  -3.2165
    -3.2142  -3.1895  -3.1795  -3.1774  -3.1712  -3.1659  -3.1608  -3.1595
    -3.1499  -3.1463  -3.1262  -3.0968  -3.0327  -3.0297  -3.0192  -3.0033
    -3.0032  -3.0022  -2.9978  -2.9942  -2.9902  -2.9576  -2.9493  -2.9215
    -2.9118  -2.8938  -2.8718  -2.8668  -2.8663  -2.8615  -2.8249  -2.8240
    -2.8192  -2.8165  -2.7867  -2.7850  -2.7778  -2.7777  -2.7638  -2.7619
    -2.7406  -2.7406  -2.7305  -2.7291  -2.7275  -2.7217  -2.7096  -2.7038
    -2.6973  -2.6833  -2.6287  -2.5971  -2.5922  -2.5621  -2.4896  -2.4775
    -2.3880  -2.3382  -2.2312  -2.2113  -2.2037  -2.2010  -2.1972  -2.1903
    -2.1887  -2.1873  -2.1788  -2.1732  -2.1486  -2.1339  -2.1105  -2.1060
    -2.1025  -2.0841  -2.0802  -2.0678  -2.0556  -2.0358  -2.0260  -2.0238
    -2.0098  -2.0076  -1.9965  -1.9901  -1.9850  -1.9845  -1.9550  -1.9493
    -1.9464  -1.9307  -1.9153  -1.8898  -1.8892  -1.8859  -1.8809  -1.8784
    -1.8698  -1.8598  -1.8524  -1.8509  -1.8469  -1.8439  -1.8379  -1.8376
    -1.8167  -1.8055  -1.7980  -1.7948  -1.7876  -1.7807  -1.7752  -1.7731
    -1.7689  -1.7674  -1.7635  -1.7634  -1.7611  -1.7598  -1.7496  -1.7453
    -1.7418  -1.7371  -1.7327  -1.7312  -1.7297  -1.7278  -1.7196  -1.7124
    -1.7068  -1.7016  -1.6966  -1.6912  -1.6889  -1.6841  -1.6656  -1.6566
    -1.6550  -1.6536  -1.6508  -1.6481  -1.6402  -1.6328  -1.6309  -1.6260
    -1.6233  -1.6022  -1.5962  -1.5961  -1.5812  -1.5580  -1.5388  -1.5385
    -1.5327  -1.5275  -1.5048  -1.4973  -1.4943  -1.4930  -1.4420  -1.4209
    -1.3906  -1.3781  -1.3748  -1.3730  -1.3695  -1.3593  -1.3588  -1.3498
    -1.3446  -1.3423  -1.3405  -1.3245  -1.3192  -1.3183  -1.3069  -1.3000
    -1.2894  -1.2881  -1.2803  -1.1959  -1.1950  -1.1862  -1.0490  -0.9011
    -0.8864  -0.8711  -0.8579  -0.8331  -0.8144  -0.7648  -0.7621  -0.7540
    -0.7279  -0.7045  -0.6707  -0.6307  -0.6249  -0.6221  -0.6117  -0.5803
    -0.5584  -0.5384  -0.5353  -0.5284  -0.5013  -0.4035  -0.3891  -0.3104
    -0.3011  -0.2445  -0.2287  -0.2143   0.0034   0.4025   0.4196   0.4216
     0.4236   0.5187   0.5245   0.6468   1.0118   1.2325   1.2372   1.2710
     1.3397   1.3421   1.3499

          k = 0.0000 0.2652 0.0000 (128375 PWs)   bands (ev):

   -88.7820 -88.7705 -88.7692 -88.7639 -88.7603 -88.7601 -88.7576 -88.7549
   -88.7530 -88.7508 -88.7496 -88.7464 -88.7446 -88.7406 -88.7372 -88.7357
   -88.7306 -88.7294 -88.7282 -88.7271 -88.7257 -88.7223 -88.7218 -88.7212
   -88.7199 -88.7155 -88.7100 -88.7073 -88.7058 -88.7030 -88.6930 -88.6854
   -88.6852 -88.6321 -88.6206 -88.6151 -88.6109 -88.6098 -88.6061 -88.6012
   -88.5976 -88.5957 -88.5939 -88.5925 -88.5884 -88.5876 -88.5848 -88.5830
   -88.5823 -88.5813 -88.5791 -88.5779 -88.5771 -88.5729 -88.5719 -88.5672
   -88.5665 -88.5609 -88.5572 -88.5542 -88.5472 -88.5450 -88.5416 -88.5353
   -54.9837 -54.9740 -54.9678 -54.9633 -54.9567 -54.9523 -54.9485 -54.9461
   -54.9428 -54.9415 -54.9403 -54.9382 -54.9375 -54.9356 -54.9336 -54.9320
   -54.9309 -54.9287 -54.9240 -54.9231 -54.9201 -54.9182 -54.9173 -54.9153
   -54.9142 -54.9077 -54.9022 -54.8985 -54.8953 -54.8909 -54.8861 -54.8840
   -54.8812 -54.8789 -54.8745 -54.8711 -54.8691 -54.8645 -54.8623 -54.8592
   -54.8550 -54.8547 -54.8509 -54.8462 -54.8403 -54.8373 -54.8228 -54.8129
   -54.8119 -54.8034 -54.7977 -54.7969 -54.7951 -54.7939 -54.7904 -54.7839
   -54.7813 -54.7780 -54.7752 -54.7714 -54.7706 -54.7698 -54.7679 -54.7661
   -54.7644 -54.7626 -54.7609 -54.7595 -54.7576 -54.7554 -54.7518 -54.7510
   -54.7488 -54.7456 -54.7449 -54.7427 -54.7408 -54.7364 -54.7317 -54.7300
   -54.7239 -54.7218 -54.7188 -54.7156 -54.7151 -54.7128 -54.7090 -54.7055
   -54.7000 -54.6989 -54.6959 -54.6937 -54.6926 -54.6908 -54.6893 -54.6882
   -54.6846 -54.6819 -54.6769 -54.6763 -54.6736 -54.6720 -54.6695 -54.6678
   -54.6643 -54.6612 -54.6588 -54.6576 -54.6563 -54.6545 -54.6543 -54.6524
   -54.6513 -54.6490 -54.6471 -54.6463 -54.6435 -54.6415 -54.6382 -54.6372
   -54.6352 -54.6312 -54.6299 -54.6280 -54.6242 -54.6225 -54.6200 -54.6178
   -54.6150 -54.6145 -54.6125 -54.6092 -54.6077 -54.6071 -54.6064 -54.6043
   -54.6019 -54.5996 -54.5972 -54.5943 -54.5929 -54.5915 -54.5904 -54.5866
   -54.5841 -54.5821 -54.5777 -54.5743 -54.5726 -54.5720 -54.5717 -54.5672
   -54.5620 -54.5609 -54.5563 -54.5540 -54.5535 -54.5527 -54.5519 -54.5504
   -54.5475 -54.5435 -54.5406 -54.5360 -54.5349 -54.5339 -54.5311 -54.5283
   -54.5264 -54.5217 -54.5203 -54.5184 -54.5126 -54.5109 -54.5103 -54.5035
   -54.5021 -54.4969 -54.4960 -54.4954 -54.4934 -54.4910 -54.4899 -54.4889
   -54.4876 -54.4858 -54.4851 -54.4835 -54.4801 -54.4798 -54.4774 -54.4762
   -18.1217  -9.3085  -8.4842  -7.8340  -7.6146  -7.3189  -6.9671  -6.8424
    -6.6190  -6.5227  -6.2680  -6.1294  -5.9141  -5.9041  -5.7455  -5.6539
    -5.5637  -5.5150  -5.4790  -5.3214  -5.2957  -5.2659  -5.1905  -5.1694
    -5.1438  -5.1262  -5.1066  -5.0824  -5.0554  -5.0130  -4.9314  -4.8524
    -4.8084  -4.8004  -4.7945  -4.7677  -4.7621  -4.7490  -4.7443  -4.7351
    -4.7052  -4.6959  -4.6864  -4.6723  -4.6644  -4.6505  -4.6306  -4.6197
    -4.5997  -4.5861  -4.5770  -4.5637  -4.5585  -4.5186  -4.5072  -4.4860
    -4.4835  -4.4782  -4.4716  -4.4401  -4.4202  -4.3457  -4.3367  -4.3094
    -4.3009  -4.2821  -4.2580  -4.2310  -4.1660  -4.1191  -4.0887  -4.0466
    -4.0168  -4.0015  -3.9980  -3.9505  -3.9098  -3.9002  -3.8951  -3.8856
    -3.8692  -3.8604  -3.8478  -3.8404  -3.8378  -3.8359  -3.8293  -3.8244
    -3.8135  -3.8087  -3.8010  -3.7921  -3.7827  -3.7706  -3.7592  -3.7558
    -3.7523  -3.7456  -3.7399  -3.7392  -3.7343  -3.7314  -3.7181  -3.6995
    -3.6909  -3.6651  -3.6421  -3.6409  -3.6375  -3.6306  -3.6097  -3.6031
    -3.5976  -3.5920  -3.5708  -3.5636  -3.5441  -3.4950  -3.4660  -3.4573
    -3.4382  -3.4029  -3.3893  -3.3835  -3.3637  -3.3574  -3.3077  -3.2986
    -3.2890  -3.2777  -3.2728  -3.2620  -3.2529  -3.2501  -3.2423  -3.2373
    -3.2346  -3.2183  -3.2010  -3.1921  -3.1884  -3.1698  -3.1535  -3.1459
    -3.1353  -3.1302  -3.0953  -3.0683  -3.0560  -3.0485  -3.0416  -3.0255
    -3.0136  -3.0036  -2.9955  -2.9877  -2.9797  -2.9752  -2.9650  -2.9615
    -2.9487  -2.9454  -2.9405  -2.9292  -2.9102  -2.8904  -2.8742  -2.8521
    -2.8289  -2.8222  -2.8043  -2.7955  -2.7855  -2.7678  -2.7549  -2.7461
    -2.7359  -2.7257  -2.7063  -2.6966  -2.6848  -2.6407  -2.6338  -2.6239
    -2.5968  -2.5771  -2.5458  -2.5244  -2.5152  -2.4968  -2.4344  -2.3778
    -2.3288  -2.3181  -2.2882  -2.2772  -2.2635  -2.2549  -2.2325  -2.2135
    -2.1974  -2.1912  -2.1796  -2.1614  -2.1574  -2.1530  -2.1428  -2.1336
    -2.1235  -2.1120  -2.0977  -2.0766  -2.0695  -2.0523  -2.0446  -2.0243
    -2.0154  -2.0015  -1.9898  -1.9824  -1.9724  -1.9678  -1.9575  -1.9552
    -1.9519  -1.9418  -1.9347  -1.9225  -1.9170  -1.9068  -1.8928  -1.8752
    -1.8664  -1.8565  -1.8547  -1.8476  -1.8375  -1.8300  -1.8270  -1.8240
    -1.8173  -1.8119  -1.8073  -1.8004  -1.7979  -1.7838  -1.7819  -1.7748
    -1.7691  -1.7608  -1.7562  -1.7462  -1.7427  -1.7307  -1.7281  -1.7278
    -1.7221  -1.7163  -1.7115  -1.7073  -1.7038  -1.7004  -1.6949  -1.6905
    -1.6788  -1.6767  -1.6688  -1.6635  -1.6569  -1.6545  -1.6494  -1.6425
    -1.6408  -1.6352  -1.6320  -1.6187  -1.6144  -1.6086  -1.5944  -1.5899
    -1.5869  -1.5719  -1.5585  -1.5438  -1.5219  -1.5097  -1.5058  -1.4918
    -1.4867  -1.4822  -1.4795  -1.4661  -1.4592  -1.4537  -1.4487  -1.4450
    -1.4260  -1.4112  -1.3893  -1.3803  -1.3709  -1.3679  -1.3616  -1.3545
    -1.3406  -1.3369  -1.3291  -1.3236  -1.3147  -1.3031  -1.2813  -1.2525
    -1.2275  -1.2094  -1.1713  -1.1548  -1.1470  -0.9844  -0.9526  -0.9356
    -0.9302  -0.9104  -0.8975  -0.8847  -0.8676  -0.8444  -0.8120  -0.7808
    -0.7694  -0.7612  -0.7544  -0.7431  -0.7306  -0.7231  -0.7106  -0.6926
    -0.6609  -0.6481  -0.6337  -0.6090  -0.5916  -0.5638  -0.5333  -0.4778
    -0.3976  -0.1832  -0.1571  -0.0108   0.0932   0.2467   0.2907   0.3774
     0.4620   0.5555   0.6212   0.7306   0.7930   0.8224   0.8943   0.9766
     1.1680   1.2218   1.2510

          k = 0.0000-0.5303 0.0000 (128388 PWs)   bands (ev):

   -88.7817 -88.7700 -88.7663 -88.7656 -88.7647 -88.7597 -88.7564 -88.7555
   -88.7518 -88.7511 -88.7494 -88.7464 -88.7449 -88.7397 -88.7394 -88.7335
   -88.7311 -88.7298 -88.7262 -88.7256 -88.7254 -88.7244 -88.7236 -88.7211
   -88.7199 -88.7124 -88.7122 -88.7073 -88.7055 -88.7032 -88.6929 -88.6854
   -88.6853 -88.6306 -88.6239 -88.6148 -88.6114 -88.6075 -88.6058 -88.6013
   -88.5981 -88.5961 -88.5942 -88.5908 -88.5896 -88.5874 -88.5843 -88.5831
   -88.5820 -88.5816 -88.5803 -88.5789 -88.5761 -88.5737 -88.5711 -88.5670
   -88.5645 -88.5626 -88.5564 -88.5550 -88.5477 -88.5450 -88.5394 -88.5368
   -54.9807 -54.9757 -54.9684 -54.9612 -54.9581 -54.9547 -54.9498 -54.9463
   -54.9439 -54.9403 -54.9398 -54.9373 -54.9358 -54.9356 -54.9336 -54.9315
   -54.9309 -54.9270 -54.9262 -54.9209 -54.9199 -54.9190 -54.9170 -54.9158
   -54.9142 -54.9045 -54.9041 -54.8982 -54.8955 -54.8899 -54.8798 -54.8789
   -54.8752 -54.8719 -54.8705 -54.8688 -54.8664 -54.8653 -54.8635 -54.8602
   -54.8564 -54.8515 -54.8393 -54.8380 -54.8359 -54.8319 -54.8255 -54.8246
   -54.8174 -54.8137 -54.8107 -54.8102 -54.8034 -54.8002 -54.7977 -54.7953
   -54.7888 -54.7805 -54.7762 -54.7741 -54.7725 -54.7677 -54.7654 -54.7636
   -54.7614 -54.7607 -54.7585 -54.7572 -54.7571 -54.7546 -54.7494 -54.7478
   -54.7453 -54.7444 -54.7434 -54.7418 -54.7386 -54.7371 -54.7323 -54.7317
   -54.7304 -54.7289 -54.7264 -54.7231 -54.7207 -54.7197 -54.7174 -54.7140
   -54.7120 -54.7079 -54.7006 -54.6939 -54.6924 -54.6881 -54.6859 -54.6847
   -54.6811 -54.6789 -54.6748 -54.6731 -54.6694 -54.6661 -54.6653 -54.6603
   -54.6583 -54.6576 -54.6558 -54.6530 -54.6510 -54.6499 -54.6496 -54.6493
   -54.6488 -54.6481 -54.6455 -54.6442 -54.6413 -54.6402 -54.6378 -54.6355
   -54.6350 -54.6333 -54.6308 -54.6293 -54.6281 -54.6253 -54.6249 -54.6218
   -54.6196 -54.6133 -54.6097 -54.6086 -54.6082 -54.6062 -54.6034 -54.6001
   -54.5989 -54.5973 -54.5963 -54.5912 -54.5875 -54.5863 -54.5862 -54.5855
   -54.5818 -54.5801 -54.5766 -54.5756 -54.5726 -54.5712 -54.5681 -54.5637
   -54.5634 -54.5616 -54.5609 -54.5565 -54.5543 -54.5531 -54.5514 -54.5492
   -54.5439 -54.5394 -54.5370 -54.5340 -54.5334 -54.5304 -54.5232 -54.5194
   -54.5181 -54.5173 -54.5150 -54.5149 -54.5106 -54.5104 -54.5093 -54.5080
   -54.5062 -54.5055 -54.5046 -54.5018 -54.4988 -54.4969 -54.4963 -54.4941
   -54.4926 -54.4914 -54.4873 -54.4867 -54.4814 -54.4804 -54.4779 -54.4768
   -18.1217  -9.3090  -8.1818  -8.1530  -7.6994  -7.3574  -6.9445  -6.9348
    -6.6978  -6.4634  -6.0763  -6.0530  -5.8633  -5.8167  -5.6154  -5.5500
    -5.5029  -5.4465  -5.4271  -5.3910  -5.3095  -5.2760  -5.2489  -5.2308
    -5.1089  -5.0890  -5.0765  -5.0130  -5.0009  -4.9939  -4.9878  -4.9779
    -4.9548  -4.9520  -4.9433  -4.9289  -4.9194  -4.8526  -4.8468  -4.7804
    -4.7259  -4.7019  -4.6748  -4.6331  -4.6300  -4.6290  -4.6216  -4.5579
    -4.5509  -4.5431  -4.5404  -4.5248  -4.5213  -4.5071  -4.5024  -4.4975
    -4.4899  -4.4470  -4.4274  -4.3830  -4.3747  -4.3650  -4.3623  -4.3534
    -4.3074  -4.2914  -4.2599  -4.2416  -4.2257  -4.1871  -4.1674  -4.1412
    -4.1274  -4.0397  -4.0285  -3.9403  -3.9161  -3.8894  -3.8879  -3.8717
    -3.8639  -3.8554  -3.8459  -3.8315  -3.8272  -3.8162  -3.8126  -3.8082
    -3.8062  -3.7942  -3.7895  -3.7847  -3.7794  -3.7682  -3.7669  -3.7628
    -3.7556  -3.7256  -3.7187  -3.6760  -3.6546  -3.6512  -3.6478  -3.6368
    -3.6247  -3.6091  -3.6007  -3.5980  -3.5967  -3.5899  -3.5833  -3.5772
    -3.5728  -3.5686  -3.5638  -3.5583  -3.5522  -3.5240  -3.5142  -3.5059
    -3.4862  -3.4747  -3.4362  -3.3741  -3.3509  -3.3172  -3.3048  -3.2727
    -3.2705  -3.2619  -3.2581  -3.2527  -3.2487  -3.2393  -3.2350  -3.2320
    -3.2276  -3.2156  -3.2101  -3.2077  -3.2012  -3.1998  -3.1972  -3.1746
    -3.1703  -3.1592  -3.1470  -3.1451  -3.1350  -3.1021  -3.0964  -3.0931
    -3.0841  -3.0711  -3.0606  -3.0415  -3.0375  -3.0328  -3.0177  -2.9965
    -2.9697  -2.9649  -2.9580  -2.9228  -2.9062  -2.9038  -2.9018  -2.8258
    -2.7935  -2.7818  -2.7598  -2.7574  -2.7550  -2.7422  -2.7360  -2.7266
    -2.7147  -2.6946  -2.6611  -2.6521  -2.6092  -2.5262  -2.4748  -2.4665
    -2.4519  -2.4416  -2.4150  -2.4112  -2.4069  -2.3983  -2.3724  -2.3632
    -2.3395  -2.3010  -2.2949  -2.2941  -2.2791  -2.2758  -2.2714  -2.2638
    -2.2520  -2.2467  -2.2366  -2.2264  -2.2207  -2.2186  -2.1992  -2.1404
    -2.1251  -2.1227  -2.1163  -2.0882  -2.0857  -2.0818  -2.0734  -2.0680
    -2.0393  -2.0285  -1.9941  -1.9786  -1.9684  -1.9669  -1.9615  -1.9568
    -1.9539  -1.9489  -1.9420  -1.9380  -1.9297  -1.9258  -1.9202  -1.9163
    -1.9117  -1.9054  -1.9034  -1.8963  -1.8892  -1.8767  -1.8396  -1.8373
    -1.8240  -1.8092  -1.7860  -1.7817  -1.7786  -1.7745  -1.7699  -1.7671
    -1.7619  -1.7491  -1.7461  -1.7433  -1.7414  -1.7343  -1.7290  -1.7274
    -1.7218  -1.7121  -1.7096  -1.7056  -1.6950  -1.6852  -1.6777  -1.6619
    -1.6609  -1.6530  -1.6462  -1.6373  -1.6103  -1.6094  -1.5970  -1.5927
    -1.5902  -1.5856  -1.5672  -1.5622  -1.5519  -1.5489  -1.5426  -1.5123
    -1.5072  -1.5014  -1.4992  -1.4975  -1.4919  -1.4878  -1.4865  -1.4841
    -1.4786  -1.4768  -1.4728  -1.4650  -1.4603  -1.4580  -1.4534  -1.4502
    -1.4473  -1.4387  -1.3999  -1.3979  -1.3862  -1.3576  -1.3218  -1.3160
    -1.2740  -1.2604  -1.2417  -1.2111  -1.2056  -1.2016  -1.1891  -1.1330
    -1.0908  -1.0755  -1.0713  -1.0563  -1.0503  -1.0462  -1.0319  -0.9923
    -0.9811  -0.9804  -0.9730  -0.9404  -0.9215  -0.9189  -0.9092  -0.8917
    -0.8404  -0.8297  -0.8182  -0.7896  -0.7788  -0.7655  -0.7490  -0.7259
    -0.7166  -0.7031  -0.6828  -0.6804  -0.6744  -0.6672  -0.6577  -0.6435
    -0.5428  -0.4086  -0.3267  -0.2635  -0.2131  -0.0194   0.3141   0.3573
     0.3802   0.5354   0.8964   0.9809   1.0293   1.0777   1.1046   1.1242
     1.1251   1.1789   1.2045

          k = 0.2500-0.0884 0.0000 (128371 PWs)   bands (ev):

   -88.7820 -88.7705 -88.7692 -88.7638 -88.7603 -88.7600 -88.7577 -88.7549
   -88.7530 -88.7508 -88.7496 -88.7464 -88.7446 -88.7405 -88.7372 -88.7357
   -88.7306 -88.7294 -88.7282 -88.7271 -88.7257 -88.7223 -88.7218 -88.7212
   -88.7199 -88.7155 -88.7100 -88.7073 -88.7059 -88.7029 -88.6930 -88.6854
   -88.6852 -88.6321 -88.6206 -88.6151 -88.6109 -88.6098 -88.6061 -88.6012
   -88.5976 -88.5957 -88.5938 -88.5925 -88.5883 -88.5877 -88.5848 -88.5830
   -88.5823 -88.5814 -88.5791 -88.5779 -88.5771 -88.5729 -88.5719 -88.5672
   -88.5665 -88.5609 -88.5572 -88.5542 -88.5473 -88.5449 -88.5416 -88.5353
   -54.9837 -54.9740 -54.9678 -54.9633 -54.9567 -54.9523 -54.9484 -54.9461
   -54.9429 -54.9414 -54.9403 -54.9382 -54.9375 -54.9356 -54.9336 -54.9320
   -54.9310 -54.9287 -54.9240 -54.9231 -54.9201 -54.9182 -54.9173 -54.9153
   -54.9142 -54.9077 -54.9022 -54.8985 -54.8952 -54.8909 -54.8861 -54.8840
   -54.8812 -54.8789 -54.8745 -54.8711 -54.8691 -54.8645 -54.8623 -54.8592
   -54.8550 -54.8547 -54.8509 -54.8462 -54.8403 -54.8372 -54.8228 -54.8129
   -54.8119 -54.8034 -54.7977 -54.7969 -54.7951 -54.7939 -54.7905 -54.7839
   -54.7813 -54.7780 -54.7752 -54.7714 -54.7706 -54.7698 -54.7679 -54.7661
   -54.7644 -54.7626 -54.7609 -54.7595 -54.7576 -54.7554 -54.7518 -54.7510
   -54.7488 -54.7457 -54.7449 -54.7427 -54.7408 -54.7363 -54.7317 -54.7300
   -54.7239 -54.7218 -54.7188 -54.7156 -54.7151 -54.7127 -54.7090 -54.7055
   -54.7000 -54.6989 -54.6959 -54.6937 -54.6926 -54.6908 -54.6893 -54.6882
   -54.6846 -54.6819 -54.6769 -54.6763 -54.6736 -54.6720 -54.6695 -54.6678
   -54.6643 -54.6612 -54.6588 -54.6576 -54.6563 -54.6545 -54.6543 -54.6524
   -54.6513 -54.6490 -54.6472 -54.6463 -54.6435 -54.6415 -54.6382 -54.6372
   -54.6352 -54.6312 -54.6299 -54.6280 -54.6242 -54.6225 -54.6200 -54.6178
   -54.6150 -54.6145 -54.6125 -54.6092 -54.6077 -54.6071 -54.6064 -54.6043
   -54.6019 -54.5996 -54.5972 -54.5943 -54.5929 -54.5915 -54.5904 -54.5866
   -54.5841 -54.5821 -54.5777 -54.5743 -54.5726 -54.5720 -54.5717 -54.5672
   -54.5620 -54.5609 -54.5564 -54.5540 -54.5535 -54.5527 -54.5519 -54.5504
   -54.5475 -54.5435 -54.5406 -54.5360 -54.5349 -54.5339 -54.5311 -54.5283
   -54.5264 -54.5217 -54.5203 -54.5184 -54.5126 -54.5109 -54.5103 -54.5035
   -54.5021 -54.4969 -54.4960 -54.4954 -54.4934 -54.4910 -54.4899 -54.4889
   -54.4876 -54.4857 -54.4851 -54.4835 -54.4801 -54.4798 -54.4774 -54.4762
   -18.1217  -9.3085  -8.4842  -7.8340  -7.6146  -7.3189  -6.9671  -6.8424
    -6.6190  -6.5227  -6.2681  -6.1294  -5.9141  -5.9041  -5.7456  -5.6539
    -5.5637  -5.5150  -5.4791  -5.3214  -5.2958  -5.2659  -5.1904  -5.1694
    -5.1438  -5.1262  -5.1066  -5.0824  -5.0554  -5.0130  -4.9314  -4.8524
    -4.8084  -4.8004  -4.7945  -4.7677  -4.7621  -4.7490  -4.7443  -4.7351
    -4.7052  -4.6958  -4.6864  -4.6723  -4.6644  -4.6505  -4.6306  -4.6197
    -4.5997  -4.5861  -4.5770  -4.5637  -4.5585  -4.5186  -4.5072  -4.4860
    -4.4835  -4.4782  -4.4716  -4.4401  -4.4202  -4.3457  -4.3367  -4.3094
    -4.3009  -4.2821  -4.2580  -4.2310  -4.1660  -4.1191  -4.0887  -4.0466
    -4.0168  -4.0016  -3.9980  -3.9505  -3.9098  -3.9002  -3.8951  -3.8857
    -3.8692  -3.8604  -3.8477  -3.8404  -3.8377  -3.8359  -3.8292  -3.8244
    -3.8135  -3.8087  -3.8011  -3.7921  -3.7828  -3.7706  -3.7592  -3.7557
    -3.7523  -3.7456  -3.7399  -3.7393  -3.7343  -3.7314  -3.7181  -3.6995
    -3.6908  -3.6651  -3.6421  -3.6409  -3.6375  -3.6306  -3.6097  -3.6031
    -3.5976  -3.5919  -3.5708  -3.5636  -3.5441  -3.4950  -3.4660  -3.4573
    -3.4382  -3.4029  -3.3892  -3.3834  -3.3637  -3.3574  -3.3077  -3.2986
    -3.2890  -3.2777  -3.2728  -3.2621  -3.2529  -3.2501  -3.2423  -3.2373
    -3.2346  -3.2183  -3.2010  -3.1922  -3.1884  -3.1698  -3.1535  -3.1459
    -3.1353  -3.1302  -3.0953  -3.0682  -3.0560  -3.0485  -3.0417  -3.0255
    -3.0136  -3.0036  -2.9955  -2.9877  -2.9798  -2.9752  -2.9650  -2.9615
    -2.9487  -2.9454  -2.9405  -2.9292  -2.9102  -2.8904  -2.8742  -2.8522
    -2.8289  -2.8222  -2.8043  -2.7954  -2.7854  -2.7679  -2.7549  -2.7461
    -2.7359  -2.7257  -2.7063  -2.6966  -2.6847  -2.6407  -2.6338  -2.6240
    -2.5968  -2.5770  -2.5458  -2.5244  -2.5152  -2.4967  -2.4345  -2.3778
    -2.3288  -2.3181  -2.2882  -2.2772  -2.2635  -2.2549  -2.2325  -2.2135
    -2.1974  -2.1912  -2.1796  -2.1615  -2.1574  -2.1530  -2.1428  -2.1336
    -2.1235  -2.1120  -2.0978  -2.0766  -2.0695  -2.0523  -2.0446  -2.0243
    -2.0154  -2.0014  -1.9898  -1.9824  -1.9724  -1.9678  -1.9575  -1.9552
    -1.9519  -1.9417  -1.9347  -1.9225  -1.9170  -1.9068  -1.8929  -1.8752
    -1.8664  -1.8565  -1.8547  -1.8475  -1.8375  -1.8300  -1.8270  -1.8240
    -1.8173  -1.8119  -1.8073  -1.8004  -1.7979  -1.7838  -1.7819  -1.7748
    -1.7691  -1.7608  -1.7562  -1.7462  -1.7427  -1.7307  -1.7281  -1.7278
    -1.7221  -1.7163  -1.7115  -1.7073  -1.7038  -1.7004  -1.6950  -1.6905
    -1.6788  -1.6768  -1.6688  -1.6635  -1.6569  -1.6545  -1.6494  -1.6425
    -1.6408  -1.6352  -1.6320  -1.6187  -1.6144  -1.6086  -1.5944  -1.5899
    -1.5869  -1.5719  -1.5585  -1.5438  -1.5219  -1.5097  -1.5058  -1.4918
    -1.4867  -1.4822  -1.4795  -1.4661  -1.4592  -1.4537  -1.4487  -1.4450
    -1.4260  -1.4112  -1.3893  -1.3803  -1.3709  -1.3679  -1.3616  -1.3545
    -1.3406  -1.3369  -1.3291  -1.3236  -1.3147  -1.3031  -1.2813  -1.2525
    -1.2274  -1.2094  -1.1713  -1.1548  -1.1470  -0.9844  -0.9527  -0.9356
    -0.9303  -0.9105  -0.8975  -0.8847  -0.8676  -0.8444  -0.8120  -0.7808
    -0.7694  -0.7612  -0.7544  -0.7431  -0.7305  -0.7231  -0.7106  -0.6926
    -0.6609  -0.6481  -0.6336  -0.6090  -0.5916  -0.5638  -0.5333  -0.4778
    -0.3976  -0.1833  -0.1571  -0.0107   0.0931   0.2467   0.2907   0.3775
     0.4620   0.5555   0.6212   0.7306   0.7930   0.8225   0.8943   0.9767
     1.1680   1.2217   1.2508

          k = 0.2500 0.1768 0.0000 (128340 PWs)   bands (ev):

   -88.7818 -88.7700 -88.7684 -88.7635 -88.7623 -88.7599 -88.7561 -88.7559
   -88.7544 -88.7522 -88.7504 -88.7473 -88.7435 -88.7363 -88.7359 -88.7357
   -88.7311 -88.7306 -88.7296 -88.7265 -88.7257 -88.7251 -88.7208 -88.7203
   -88.7194 -88.7141 -88.7113 -88.7070 -88.7060 -88.7031 -88.6929 -88.6855
   -88.6852 -88.6314 -88.6195 -88.6181 -88.6130 -88.6080 -88.6064 -88.5994
   -88.5972 -88.5957 -88.5933 -88.5911 -88.5892 -88.5887 -88.5842 -88.5830
   -88.5827 -88.5809 -88.5801 -88.5775 -88.5771 -88.5736 -88.5716 -88.5687
   -88.5670 -88.5593 -88.5565 -88.5543 -88.5481 -88.5432 -88.5424 -88.5358
   -54.9830 -54.9739 -54.9674 -54.9624 -54.9564 -54.9526 -54.9506 -54.9453
   -54.9449 -54.9409 -54.9401 -54.9394 -54.9360 -54.9353 -54.9327 -54.9323
   -54.9306 -54.9268 -54.9252 -54.9220 -54.9203 -54.9199 -54.9177 -54.9173
   -54.9117 -54.9060 -54.9039 -54.8977 -54.8951 -54.8900 -54.8810 -54.8800
   -54.8784 -54.8761 -54.8707 -54.8665 -54.8639 -54.8630 -54.8599 -54.8525
   -54.8499 -54.8461 -54.8459 -54.8453 -54.8430 -54.8394 -54.8253 -54.8164
   -54.8121 -54.8079 -54.8078 -54.8025 -54.8018 -54.7994 -54.7954 -54.7913
   -54.7895 -54.7881 -54.7864 -54.7836 -54.7786 -54.7725 -54.7699 -54.7656
   -54.7647 -54.7604 -54.7591 -54.7589 -54.7585 -54.7575 -54.7536 -54.7527
   -54.7494 -54.7464 -54.7446 -54.7426 -54.7401 -54.7343 -54.7290 -54.7286
   -54.7248 -54.7229 -54.7171 -54.7154 -54.7136 -54.7114 -54.7098 -54.7072
   -54.7057 -54.7013 -54.6960 -54.6930 -54.6914 -54.6910 -54.6902 -54.6825
   -54.6816 -54.6766 -54.6756 -54.6727 -54.6712 -54.6699 -54.6686 -54.6685
   -54.6681 -54.6661 -54.6643 -54.6625 -54.6576 -54.6569 -54.6549 -54.6523
   -54.6512 -54.6510 -54.6448 -54.6432 -54.6411 -54.6366 -54.6343 -54.6342
   -54.6328 -54.6310 -54.6279 -54.6261 -54.6255 -54.6219 -54.6208 -54.6175
   -54.6150 -54.6117 -54.6090 -54.6088 -54.6069 -54.6053 -54.6036 -54.6003
   -54.6000 -54.5974 -54.5953 -54.5878 -54.5869 -54.5852 -54.5846 -54.5821
   -54.5796 -54.5787 -54.5770 -54.5764 -54.5759 -54.5750 -54.5707 -54.5691
   -54.5669 -54.5585 -54.5583 -54.5544 -54.5538 -54.5526 -54.5489 -54.5437
   -54.5399 -54.5383 -54.5383 -54.5362 -54.5343 -54.5307 -54.5297 -54.5261
   -54.5250 -54.5239 -54.5181 -54.5178 -54.5146 -54.5133 -54.5106 -54.5051
   -54.5028 -54.4978 -54.4977 -54.4959 -54.4958 -54.4939 -54.4930 -54.4925
   -54.4905 -54.4901 -54.4889 -54.4861 -54.4859 -54.4827 -54.4812 -54.4788
   -18.1217  -9.3091  -8.4480  -7.8150  -7.5190  -7.2352  -7.2035  -7.0675
    -6.7008  -6.2946  -6.2582  -6.1598  -6.0301  -5.9137  -5.6662  -5.5930
    -5.5703  -5.4373  -5.3069  -5.3033  -5.1938  -5.1906  -5.1821  -5.1466
    -5.1270  -5.0729  -5.0675  -5.0651  -5.0508  -4.9698  -4.9643  -4.9374
    -4.8609  -4.8429  -4.8322  -4.8032  -4.7813  -4.7512  -4.7419  -4.7299
    -4.7096  -4.6934  -4.6829  -4.6738  -4.6713  -4.6686  -4.6646  -4.6630
    -4.6595  -4.6268  -4.6151  -4.5841  -4.5772  -4.5575  -4.5450  -4.5132
    -4.5013  -4.4764  -4.4518  -4.4502  -4.3682  -4.3299  -4.3199  -4.2768
    -4.2674  -4.2078  -4.2055  -4.1969  -4.1909  -4.1624  -4.1544  -4.1103
    -4.0344  -4.0103  -3.9898  -3.9531  -3.9260  -3.9122  -3.9035  -3.9013
    -3.8940  -3.8936  -3.8893  -3.8853  -3.8812  -3.8807  -3.8655  -3.8633
    -3.8546  -3.8513  -3.8299  -3.8105  -3.7842  -3.7588  -3.7503  -3.7500
    -3.7340  -3.7178  -3.6951  -3.6908  -3.6852  -3.6833  -3.6734  -3.6639
    -3.6575  -3.6470  -3.6298  -3.6256  -3.6030  -3.5810  -3.5790  -3.5416
    -3.5357  -3.5281  -3.5223  -3.5047  -3.4937  -3.4840  -3.4727  -3.4685
    -3.4587  -3.4563  -3.4484  -3.4456  -3.4400  -3.4291  -3.3640  -3.3619
    -3.3520  -3.3417  -3.2839  -3.2829  -3.2707  -3.2663  -3.2598  -3.2561
    -3.2481  -3.2267  -3.2088  -3.1881  -3.1864  -3.1819  -3.1683  -3.1523
    -3.1397  -3.1253  -3.1229  -3.1113  -3.1074  -3.1021  -3.0814  -3.0724
    -3.0359  -3.0190  -3.0090  -2.9969  -2.9934  -2.9784  -2.9737  -2.9477
    -2.9453  -2.9219  -2.8986  -2.8730  -2.8720  -2.8683  -2.8657  -2.8576
    -2.8534  -2.8469  -2.8430  -2.8347  -2.8340  -2.8281  -2.8264  -2.8232
    -2.7880  -2.7774  -2.7397  -2.7160  -2.6933  -2.5960  -2.5702  -2.5430
    -2.5191  -2.4983  -2.4929  -2.4873  -2.4345  -2.4034  -2.3812  -2.3641
    -2.3383  -2.3076  -2.3045  -2.2762  -2.2719  -2.2537  -2.2518  -2.2247
    -2.1958  -2.1892  -2.1802  -2.1766  -2.1653  -2.1467  -2.1315  -2.1112
    -2.1019  -2.0995  -2.0871  -2.0731  -2.0696  -2.0586  -2.0565  -2.0485
    -2.0316  -2.0246  -2.0129  -2.0089  -1.9863  -1.9862  -1.9671  -1.9514
    -1.9378  -1.9311  -1.9150  -1.9136  -1.9119  -1.8970  -1.8919  -1.8903
    -1.8780  -1.8778  -1.8613  -1.8378  -1.8364  -1.8239  -1.8216  -1.8216
    -1.8119  -1.8065  -1.8047  -1.8005  -1.7906  -1.7810  -1.7581  -1.7564
    -1.7524  -1.7486  -1.7399  -1.7330  -1.7251  -1.7141  -1.7105  -1.6942
    -1.6897  -1.6881  -1.6792  -1.6710  -1.6653  -1.6629  -1.6552  -1.6511
    -1.6493  -1.6227  -1.6108  -1.6092  -1.6077  -1.6020  -1.6015  -1.5959
    -1.5906  -1.5885  -1.5825  -1.5812  -1.5758  -1.5648  -1.5580  -1.5541
    -1.5509  -1.5443  -1.5293  -1.5276  -1.5123  -1.5122  -1.5052  -1.5047
    -1.4969  -1.4944  -1.4871  -1.4717  -1.4688  -1.4543  -1.4485  -1.4370
    -1.4328  -1.4184  -1.4057  -1.3955  -1.3831  -1.3513  -1.3488  -1.3250
    -1.3179  -1.3044  -1.2982  -1.2885  -1.2755  -1.2674  -1.2141  -1.2046
    -1.1997  -1.1744  -1.1705  -1.1526  -1.1467  -1.0064  -0.9896  -0.9496
    -0.9323  -0.9132  -0.8944  -0.8401  -0.8314  -0.8141  -0.7887  -0.7695
    -0.7506  -0.7360  -0.7275  -0.7251  -0.7210  -0.7156  -0.7117  -0.7038
    -0.6398  -0.6188  -0.5462  -0.5304  -0.5099  -0.4861  -0.4214  -0.4033
    -0.3245  -0.2184  -0.1889  -0.0539   0.1078   0.2084   0.2315   0.2530
     0.2805   0.3427   0.3792   0.3830   0.4188   0.4508   0.5336   0.6781
     0.7524   0.9587   1.0064

          k = 0.2500-0.6187 0.0000 (128424 PWs)   bands (ev):

   -88.7816 -88.7692 -88.7658 -88.7655 -88.7633 -88.7617 -88.7567 -88.7564
   -88.7547 -88.7522 -88.7506 -88.7444 -88.7404 -88.7392 -88.7378 -88.7356
   -88.7318 -88.7291 -88.7284 -88.7281 -88.7266 -88.7218 -88.7211 -88.7202
   -88.7199 -88.7141 -88.7121 -88.7067 -88.7056 -88.7036 -88.6928 -88.6855
   -88.6853 -88.6296 -88.6230 -88.6190 -88.6119 -88.6072 -88.6036 -88.6003
   -88.5978 -88.5957 -88.5937 -88.5915 -88.5900 -88.5880 -88.5857 -88.5825
   -88.5818 -88.5803 -88.5795 -88.5781 -88.5768 -88.5744 -88.5731 -88.5672
   -88.5662 -88.5599 -88.5567 -88.5543 -88.5486 -88.5436 -88.5398 -88.5373
   -54.9799 -54.9754 -54.9685 -54.9608 -54.9570 -54.9545 -54.9525 -54.9482
   -54.9421 -54.9406 -54.9402 -54.9373 -54.9359 -54.9341 -54.9323 -54.9310
   -54.9299 -54.9287 -54.9263 -54.9219 -54.9212 -54.9187 -54.9181 -54.9147
   -54.9114 -54.9066 -54.9035 -54.8975 -54.8951 -54.8894 -54.8771 -54.8755
   -54.8691 -54.8654 -54.8635 -54.8622 -54.8609 -54.8586 -54.8580 -54.8559
   -54.8522 -54.8478 -54.8429 -54.8404 -54.8335 -54.8322 -54.8269 -54.8246
   -54.8226 -54.8217 -54.8200 -54.8176 -54.8128 -54.8040 -54.8010 -54.7985
   -54.7930 -54.7905 -54.7857 -54.7799 -54.7772 -54.7751 -54.7724 -54.7700
   -54.7672 -54.7632 -54.7615 -54.7573 -54.7545 -54.7527 -54.7489 -54.7472
   -54.7462 -54.7442 -54.7407 -54.7394 -54.7387 -54.7378 -54.7355 -54.7335
   -54.7279 -54.7275 -54.7246 -54.7236 -54.7208 -54.7158 -54.7136 -54.7099
   -54.7087 -54.7065 -54.7040 -54.7008 -54.6969 -54.6906 -54.6872 -54.6855
   -54.6809 -54.6772 -54.6751 -54.6735 -54.6693 -54.6664 -54.6644 -54.6609
   -54.6592 -54.6585 -54.6564 -54.6536 -54.6530 -54.6519 -54.6494 -54.6489
   -54.6476 -54.6450 -54.6434 -54.6425 -54.6383 -54.6378 -54.6341 -54.6321
   -54.6311 -54.6299 -54.6296 -54.6275 -54.6263 -54.6239 -54.6226 -54.6207
   -54.6183 -54.6135 -54.6126 -54.6089 -54.6054 -54.6033 -54.5994 -54.5974
   -54.5950 -54.5936 -54.5918 -54.5912 -54.5897 -54.5869 -54.5843 -54.5821
   -54.5797 -54.5778 -54.5757 -54.5738 -54.5729 -54.5684 -54.5678 -54.5667
   -54.5632 -54.5609 -54.5592 -54.5547 -54.5521 -54.5499 -54.5474 -54.5419
   -54.5397 -54.5362 -54.5353 -54.5325 -54.5300 -54.5276 -54.5228 -54.5198
   -54.5184 -54.5175 -54.5154 -54.5150 -54.5126 -54.5109 -54.5100 -54.5081
   -54.5074 -54.5055 -54.5047 -54.5035 -54.5021 -54.5019 -54.4988 -54.4961
   -54.4946 -54.4934 -54.4926 -54.4907 -54.4874 -54.4854 -54.4838 -54.4802
   -18.1217  -9.3094  -8.2091  -7.9477  -7.7406  -7.4754  -7.2348  -6.7437
    -6.6935  -6.4343  -6.2576  -6.1544  -5.7377  -5.6278  -5.5083  -5.4851
    -5.4573  -5.4270  -5.3809  -5.3491  -5.3295  -5.2270  -5.1735  -5.1622
    -5.1568  -5.1407  -5.0964  -5.0401  -5.0225  -5.0075  -4.9941  -4.9769
    -4.9700  -4.9397  -4.9335  -4.8926  -4.8575  -4.8437  -4.8339  -4.8311
    -4.8053  -4.7745  -4.7479  -4.7362  -4.7190  -4.6999  -4.6606  -4.6440
    -4.5948  -4.5922  -4.5497  -4.5251  -4.5170  -4.4796  -4.4662  -4.4498
    -4.4145  -4.3928  -4.3859  -4.3679  -4.3529  -4.3443  -4.3315  -4.2963
    -4.2905  -4.2489  -4.2426  -4.2308  -4.2013  -4.1905  -4.1848  -4.1686
    -4.1257  -4.0878  -4.0837  -4.0021  -3.9834  -3.9328  -3.9247  -3.9167
    -3.8985  -3.8938  -3.8844  -3.8822  -3.8713  -3.8518  -3.8257  -3.7993
    -3.7773  -3.7634  -3.7543  -3.7506  -3.7426  -3.7256  -3.7092  -3.6918
    -3.6892  -3.6848  -3.6724  -3.6696  -3.6671  -3.6616  -3.6607  -3.6520
    -3.6322  -3.6219  -3.6156  -3.5975  -3.5872  -3.5773  -3.5612  -3.5539
    -3.5462  -3.5361  -3.5334  -3.5170  -3.5051  -3.4913  -3.4836  -3.4521
    -3.4479  -3.4391  -3.4324  -3.4286  -3.4174  -3.4052  -3.3999  -3.3902
    -3.3761  -3.3688  -3.3608  -3.3549  -3.3461  -3.3318  -3.3232  -3.3138
    -3.3052  -3.2867  -3.2745  -3.2495  -3.2365  -3.1920  -3.1471  -3.1279
    -3.1250  -3.1153  -3.1107  -3.0958  -3.0864  -3.0810  -3.0761  -3.0701
    -3.0549  -3.0494  -3.0471  -3.0311  -3.0263  -3.0213  -3.0132  -2.9913
    -2.9769  -2.9725  -2.9561  -2.9438  -2.9396  -2.9074  -2.8952  -2.8594
    -2.8340  -2.8152  -2.7866  -2.7681  -2.7461  -2.7390  -2.7210  -2.6951
    -2.6607  -2.6226  -2.6086  -2.5921  -2.5577  -2.5390  -2.5278  -2.4923
    -2.4790  -2.4631  -2.4370  -2.4195  -2.4054  -2.3749  -2.3660  -2.3587
    -2.3431  -2.3262  -2.3187  -2.3141  -2.3107  -2.2978  -2.2832  -2.2660
    -2.2289  -2.2200  -2.2129  -2.1867  -2.1837  -2.1566  -2.1513  -2.1334
    -2.1213  -2.1110  -2.1026  -2.0966  -2.0875  -2.0778  -2.0690  -2.0610
    -2.0443  -2.0239  -2.0186  -2.0067  -1.9969  -1.9923  -1.9689  -1.9588
    -1.9547  -1.9474  -1.9405  -1.9359  -1.9317  -1.9246  -1.9098  -1.9063
    -1.8960  -1.8921  -1.8759  -1.8685  -1.8624  -1.8443  -1.8251  -1.8212
    -1.8100  -1.7989  -1.7905  -1.7830  -1.7759  -1.7738  -1.7655  -1.7573
    -1.7537  -1.7480  -1.7450  -1.7213  -1.7165  -1.7089  -1.7037  -1.7005
    -1.6926  -1.6859  -1.6801  -1.6664  -1.6573  -1.6495  -1.6448  -1.6406
    -1.6336  -1.6252  -1.6162  -1.6132  -1.6073  -1.6048  -1.5954  -1.5830
    -1.5798  -1.5744  -1.5612  -1.5525  -1.5477  -1.5437  -1.5383  -1.5369
    -1.5275  -1.5208  -1.5168  -1.5026  -1.5005  -1.4957  -1.4882  -1.4869
    -1.4739  -1.4560  -1.4432  -1.4346  -1.4255  -1.4140  -1.4086  -1.3882
    -1.3807  -1.3745  -1.3563  -1.3383  -1.3072  -1.2895  -1.2851  -1.2493
    -1.2309  -1.2293  -1.2142  -1.1819  -1.1658  -1.1490  -1.1340  -1.1040
    -1.0915  -1.0818  -1.0756  -1.0635  -1.0384  -1.0094  -0.9924  -0.9868
    -0.9691  -0.9502  -0.9263  -0.9125  -0.8990  -0.8794  -0.8613  -0.8566
    -0.8414  -0.8277  -0.7915  -0.7816  -0.7697  -0.7625  -0.7521  -0.7323
    -0.7291  -0.7074  -0.6886  -0.6697  -0.6518  -0.6294  -0.6201  -0.5537
    -0.5224  -0.4085  -0.3662  -0.1619  -0.1240  -0.0289   0.0132   0.1407
     0.1801   0.2110   0.3144   0.4616   0.5866   0.7077   0.8859   0.9138
     1.0045   1.0539   1.1218

          k = 0.2500-0.3536 0.0000 (128397 PWs)   bands (ev):

   -88.7817 -88.7700 -88.7676 -88.7652 -88.7610 -88.7606 -88.7577 -88.7571
   -88.7543 -88.7511 -88.7474 -88.7439 -88.7423 -88.7406 -88.7403 -88.7366
   -88.7302 -88.7298 -88.7286 -88.7257 -88.7255 -88.7232 -88.7214 -88.7200
   -88.7190 -88.7170 -88.7103 -88.7069 -88.7057 -88.7034 -88.6929 -88.6854
   -88.6853 -88.6309 -88.6212 -88.6198 -88.6081 -88.6069 -88.6055 -88.6024
   -88.5981 -88.5955 -88.5943 -88.5929 -88.5886 -88.5876 -88.5860 -88.5824
   -88.5819 -88.5811 -88.5789 -88.5770 -88.5765 -88.5749 -88.5730 -88.5658
   -88.5645 -88.5626 -88.5574 -88.5543 -88.5481 -88.5442 -88.5402 -88.5365
   -54.9810 -54.9750 -54.9686 -54.9622 -54.9575 -54.9530 -54.9519 -54.9479
   -54.9414 -54.9410 -54.9393 -54.9371 -54.9349 -54.9346 -54.9329 -54.9323
   -54.9314 -54.9301 -54.9242 -54.9227 -54.9215 -54.9180 -54.9168 -54.9136
   -54.9124 -54.9090 -54.9018 -54.8983 -54.8953 -54.8900 -54.8800 -54.8793
   -54.8756 -54.8746 -54.8715 -54.8689 -54.8628 -54.8597 -54.8585 -54.8574
   -54.8542 -54.8536 -54.8502 -54.8465 -54.8445 -54.8352 -54.8313 -54.8201
   -54.8094 -54.8050 -54.8033 -54.8016 -54.7991 -54.7935 -54.7891 -54.7867
   -54.7863 -54.7851 -54.7832 -54.7817 -54.7742 -54.7727 -54.7715 -54.7685
   -54.7678 -54.7664 -54.7645 -54.7617 -54.7597 -54.7587 -54.7550 -54.7534
   -54.7499 -54.7482 -54.7446 -54.7417 -54.7385 -54.7355 -54.7317 -54.7262
   -54.7228 -54.7213 -54.7209 -54.7171 -54.7135 -54.7126 -54.7098 -54.7055
   -54.7044 -54.7007 -54.6991 -54.6962 -54.6932 -54.6906 -54.6879 -54.6850
   -54.6840 -54.6815 -54.6806 -54.6749 -54.6747 -54.6706 -54.6678 -54.6670
   -54.6622 -54.6605 -54.6559 -54.6545 -54.6537 -54.6518 -54.6515 -54.6490
   -54.6481 -54.6471 -54.6450 -54.6448 -54.6438 -54.6395 -54.6383 -54.6379
   -54.6340 -54.6325 -54.6288 -54.6280 -54.6274 -54.6252 -54.6245 -54.6205
   -54.6176 -54.6169 -54.6091 -54.6075 -54.6048 -54.6028 -54.6000 -54.5994
   -54.5986 -54.5957 -54.5932 -54.5922 -54.5890 -54.5857 -54.5838 -54.5794
   -54.5784 -54.5780 -54.5768 -54.5732 -54.5728 -54.5711 -54.5692 -54.5685
   -54.5655 -54.5596 -54.5593 -54.5574 -54.5567 -54.5536 -54.5507 -54.5501
   -54.5465 -54.5400 -54.5377 -54.5357 -54.5337 -54.5309 -54.5299 -54.5270
   -54.5244 -54.5199 -54.5169 -54.5161 -54.5118 -54.5096 -54.5088 -54.5056
   -54.5051 -54.4984 -54.4978 -54.4972 -54.4962 -54.4950 -54.4918 -54.4913
   -54.4904 -54.4900 -54.4892 -54.4860 -54.4848 -54.4841 -54.4831 -54.4785
   -18.1217  -9.3089  -8.3036  -7.9192  -7.6443  -7.5828  -7.2229  -6.7018
    -6.4721  -6.2094  -6.1479  -6.1357  -6.0563  -5.8593  -5.8453  -5.5671
[...]

   -86.0238 -86.0209 -85.8426 -85.8417 -85.7938 -85.7859 -85.7780 -85.7693
   -85.7572 -85.7554 -85.7458 -85.7451 -85.7400 -85.7374 -85.7349 -85.7319
   -85.7280 -85.7268 -85.7258 -85.7251 -85.7221 -85.7178 -85.7160 -85.7120
   -85.7097 -85.7090 -85.7083 -85.7072 -85.7061 -85.7045 -85.7023 -85.6982
   -85.6978 -85.6912 -85.6901 -85.6851 -85.6836 -85.6766 -85.6707 -85.6703
   -85.6693 -85.6687 -85.6667 -85.6662 -85.6641 -85.6584 -85.6566 -85.6513
   -85.6502 -85.6484 -85.6480 -85.6471 -85.6462 -85.6455 -85.6418 -85.6415
   -85.6386 -85.6348 -85.6323 -85.6269 -85.6256 -85.6244 -85.6235 -85.6191
   -52.3454 -52.3300 -52.1399 -52.1328 -52.0893 -52.0741 -52.0572 -52.0527
   -52.0445 -52.0373 -52.0327 -52.0261 -52.0250 -52.0229 -52.0224 -52.0202
   -52.0152 -52.0127 -52.0122 -52.0096 -52.0080 -52.0038 -51.9992 -51.9971
   -51.9968 -51.9925 -51.9923 -51.9917 -51.9883 -51.9808 -51.9778 -51.9750
   -51.9746 -51.9694 -51.9667 -51.9640 -51.9621 -51.9596 -51.9549 -51.9544
   -51.9520 -51.9448 -51.9414 -51.9411 -51.9392 -51.9388 -51.9366 -51.9341
   -51.9308 -51.9277 -51.9239 -51.9236 -51.9224 -51.9204 -51.9204 -51.9183
   -51.9157 -51.9150 -51.9142 -51.9127 -51.9114 -51.9100 -51.9089 -51.9069
   -51.8934 -51.8916 -51.8857 -51.8792 -51.8784 -51.8742 -51.8742 -51.8708
   -51.8677 -51.8597 -51.8592 -51.8515 -51.8474 -51.8452 -51.8450 -51.8369
   -51.8360 -51.8306 -51.8285 -51.8243 -51.8218 -51.8184 -51.8170 -51.8162
   -51.8149 -51.8140 -51.8103 -51.8094 -51.8079 -51.8078 -51.8024 -51.7962
   -51.7946 -51.7930 -51.7918 -51.7897 -51.7871 -51.7870 -51.7830 -51.7810
   -51.7756 -51.7724 -51.7714 -51.7700 -51.7695 -51.7690 -51.7689 -51.7623
   -51.7594 -51.7576 -51.7567 -51.7554 -51.7520 -51.7497 -51.7490 -51.7449
   -51.7448 -51.7433 -51.7426 -51.7417 -51.7397 -51.7387 -51.7345 -51.7343
   -51.7326 -51.7304 -51.7275 -51.7271 -51.7247 -51.7206 -51.7180 -51.7157
   -51.7117 -51.7100 -51.7096 -51.7071 -51.7065 -51.7054 -51.7047 -51.7034
   -51.7033 -51.7020 -51.7005 -51.7005 -51.7003 -51.6964 -51.6956 -51.6951
   -51.6919 -51.6901 -51.6892 -51.6865 -51.6856 -51.6837 -51.6824 -51.6813
   -51.6805 -51.6801 -51.6796 -51.6786 -51.6772 -51.6761 -51.6754 -51.6751
   -51.6742 -51.6740 -51.6723 -51.6722 -51.6719 -51.6682 -51.6653 -51.6641
   -51.6638 -51.6620 -51.6606 -51.6600 -51.6579 -51.6547 -51.6543 -51.6517
   -51.6515 -51.6508 -51.6507 -51.6498 -51.6474 -51.6433 -51.6427 -51.6417
   -18.0718  -9.2115  -7.8929  -7.7229  -7.4676  -7.1516  -7.1442  -6.7575
    -6.4227  -5.9568  -5.9380  -5.5579  -5.2250  -5.1351  -5.1295  -5.0752
    -4.8719  -4.7245  -4.4581  -4.2887  -4.2860  -4.2811  -4.2653  -4.2537
    -4.2178  -4.1673  -4.1571  -4.1495  -4.1481  -4.0765  -3.9157  -3.7366
    -3.7363  -3.7230  -3.7186  -3.6765  -3.6152  -3.5130  -3.4434  -3.2646
    -3.2488  -3.2315  -3.2165  -3.2104  -3.1608  -3.1586  -3.1322  -3.1254
    -3.1047  -3.0854  -3.0381  -2.9622  -2.9620  -2.9465  -2.9408  -2.9063
    -2.8640  -2.6981  -2.6803  -2.6794  -2.6775  -2.6711  -2.6268  -2.4603
    -2.4130  -2.4014  -2.3726  -2.3552  -2.3478  -2.2634  -2.2403  -2.1836
    -2.1694  -2.1680  -2.1513  -2.1483  -2.1459  -2.1368  -2.1332  -2.1308
    -2.1155  -2.0671  -2.0513  -2.0511  -2.0386  -2.0346  -2.0306  -2.0287
    -2.0231  -2.0120  -2.0114  -1.9496  -1.9221  -1.8345  -1.8132  -1.7960
    -1.7911  -1.6962  -1.6861  -1.6860  -1.6735  -1.6600  -1.6446  -1.6323
    -1.6303  -1.6296  -1.6137  -1.6092  -1.6019  -1.5954  -1.5912  -1.5904
    -1.5772  -1.5715  -1.5682  -1.5552  -1.5472  -1.5427  -1.5379  -1.5354
    -1.5349  -1.5259  -1.5244  -1.5157  -1.5088  -1.4901  -1.4846  -1.4838
    -1.4554  -1.4515  -1.4418  -1.4366  -1.4345  -1.4228  -1.4228  -1.4196
    -1.4148  -1.4120  -1.4060  -1.4005  -1.3707  -1.3511  -1.3245  -1.2393
    -1.2200  -1.1741  -1.1740  -1.1686  -1.1664  -1.1509  -1.1356  -1.1210
    -1.1060  -1.0937  -1.0792  -1.0647  -0.9986  -0.9851  -0.9734  -0.9547
    -0.9362  -0.9306  -0.9298  -0.9227  -0.9191  -0.9039  -0.8809  -0.8611
    -0.7689  -0.7440  -0.7349  -0.7175  -0.7169  -0.7110  -0.6775  -0.6632
    -0.6523  -0.6439  -0.6401  -0.6148  -0.5682  -0.5333  -0.5207  -0.5200
    -0.5110  -0.5063  -0.5054  -0.5022  -0.4789  -0.3039  -0.2402  -0.2395
    -0.1888  -0.1304  -0.1261  -0.0761  -0.0114   0.1032   0.1156   0.1294
     0.1486   0.1508   0.1942   0.2048   0.2445   0.2709   0.2798   0.2998
     0.3081   0.3194   0.3395   0.3788   0.3888   0.3976   0.4159   0.4339
     0.4391   0.4639   0.4832   0.5095   0.5327   0.5640   0.5713   0.6000
     0.6083   0.6213   0.6342   0.6384   0.6495   0.6508   0.6576   0.6702
     0.6738   0.6788   0.6809   0.6998   0.7366   0.7401   0.7471   0.7829
     0.8013   0.8019   0.8103   0.8478   0.8584   0.8604   0.9001   0.9267
     0.9381   0.9441   0.9857   0.9866   1.0331   1.0365   1.0572   1.0692
     1.0726   1.0770   1.0779   1.0837   1.0933   1.0970   1.1034   1.1112
     1.1243   1.1296   1.1341   1.1440   1.1441   1.1531   1.1559   1.1606
     1.1735   1.1937   1.1980   1.2052   1.2186   1.2211   1.2257   1.2281
     1.2365   1.2389   1.2449   1.2532   1.2635   1.2674   1.2802   1.2875
     1.2922   1.2956   1.2976   1.3065   1.3166   1.3211   1.3245   1.3256
     1.3265   1.3302   1.3329   1.3370   1.3695   1.3705   1.4254   1.4313
     1.4539   1.4562   1.4566   1.4595   1.4763   1.4776   1.4984   1.5057
     1.5092   1.5109   1.5122   1.5130   1.5182   1.5198   1.5209   1.5214
     1.5273   1.5307   1.5328   1.5368   1.5523   1.5570   1.5627   1.5780
     1.5801   1.5900   1.5946   1.6010   1.6099   1.6154   1.6161   1.6271
     1.6328   1.6349   1.6575   1.7017   1.7033   1.7070   1.7091   1.7144
     1.7241   1.7364   1.9091   1.9399   1.9941   2.0158   2.0564   2.1042
     2.1272   2.1427   2.1437   2.1492   2.1667   2.1853   2.1923   2.1991
     2.2325   2.2359   2.2686

     the Fermi energy is    -0.6105 ev

!    total energy              =  -21096.17541966 Ry
     estimated scf accuracy    <          2.6E-11 Ry
     smearing contrib. (-TS)   =       0.00151504 Ry
     internal energy E=F+TS    =  -21096.17693470 Ry

     The total energy is F=E-TS. E is the sum of the following terms:
     one-electron contribution = -744626.57757239 Ry
     hartree contribution      =  372285.76776789 Ry
     xc contribution           =   -2235.81893167 Ry
     ewald contribution        =  358355.28978189 Ry
     Dispersion Correction     =      -1.40075136 Ry
     one-center paw contrib.   =   -4873.43722906 Ry

     total magnetization       =   161.73 Bohr mag/cell
     absolute magnetization    =   168.53 Bohr mag/cell

     convergence has been achieved in  12 iterations

     negative rho (up, down):  1.132E-02 1.552E-02

     Forces acting on atoms (cartesian axes, Ry/au):

     atom    1 type  1   force =     0.00039192   -0.00000877    0.00921786
     atom    2 type  1   force =    -0.00109204    0.00151757   -0.00500602
     atom    3 type  1   force =    -0.00003869    0.00008520    0.00949871
     atom    4 type  1   force =    -0.00013007    0.00018079   -0.01044669
     atom    5 type  1   force =    -0.00003070   -0.00000728   -0.00001530
     atom    6 type  1   force =     0.00001364   -0.00002162    0.00004678
     atom    7 type  1   force =     0.00002312   -0.00000849   -0.00005734
     atom    8 type  1   force =     0.00002039   -0.00000007    0.00000161
     atom    9 type  1   force =    -0.00005263   -0.00003917    0.00946389
     atom   10 type  1   force =    -0.00009801   -0.00009040    0.00850949
     atom   11 type  1   force =     0.00014167   -0.00033505   -0.01061662
     atom   12 type  1   force =    -0.00052397   -0.00029286   -0.00968277
     atom   13 type  1   force =     0.00000132   -0.00000526   -0.00003781
     atom   14 type  1   force =    -0.00000034   -0.00000152   -0.00004239
     atom   15 type  1   force =     0.00000096   -0.00001392    0.00003331
     atom   16 type  1   force =    -0.00001732   -0.00001259    0.00000248
     atom   17 type  1   force =     0.00007970   -0.00007638    0.00945912
     atom   18 type  1   force =     0.00015630   -0.00016711   -0.01047262
     atom   19 type  1   force =    -0.00006022    0.00012014    0.00957823
     atom   20 type  1   force =     0.00002073   -0.00018963   -0.00625438
     atom   21 type  1   force =    -0.00000190    0.00002589   -0.00005914
     atom   22 type  1   force =     0.00000451    0.00001755    0.00000179
     atom   23 type  1   force =    -0.00001334    0.00001252   -0.00005233
     atom   24 type  1   force =    -0.00007696    0.00012440    0.00015062
     atom   25 type  1   force =     0.00004266    0.00001423    0.00775340
     atom   26 type  1   force =     0.00001773   -0.00026161    0.00945068
     atom   27 type  1   force =     0.00000791   -0.00009838   -0.01064323
     atom   28 type  1   force =     0.00045091   -0.00025632   -0.01001724
     atom   29 type  1   force =     0.00000475    0.00000733   -0.00011844
     atom   30 type  1   force =     0.00002339   -0.00002047   -0.00009013
     atom   31 type  1   force =     0.00005220    0.00003219    0.00005685
     atom   32 type  1   force =     0.00002813   -0.00000785    0.00001035
     atom   33 type  1   force =    -0.00017898   -0.00007741    0.00914390
     atom   34 type  1   force =     0.00030395   -0.00010281   -0.01049719
     atom   35 type  1   force =     0.00014102    0.00037835    0.00930444
     atom   36 type  1   force =     0.00097724   -0.00142437   -0.00501731
     atom   37 type  1   force =     0.00002767    0.00001325   -0.00002389
     atom   38 type  1   force =    -0.00002339   -0.00001450   -0.00000356
     atom   39 type  1   force =    -0.00001644   -0.00002306   -0.00002134
     atom   40 type  1   force =    -0.00001483    0.00002521    0.00004520
     atom   41 type  1   force =     0.00007878    0.00008850    0.00663647
     atom   42 type  1   force =    -0.00023044    0.00009201    0.00947884
     atom   43 type  1   force =     0.00016925    0.00021723   -0.00920855
     atom   44 type  1   force =    -0.00016275    0.00052776   -0.00999420
     atom   45 type  1   force =     0.00000521    0.00000211   -0.00004697
     atom   46 type  1   force =    -0.00000889    0.00002456   -0.00008834
     atom   47 type  1   force =     0.00002589    0.00001845    0.00001373
     atom   48 type  1   force =     0.00000404    0.00003176    0.00001835
     atom   49 type  1   force =     0.00011450   -0.00011971    0.00963473
     atom   50 type  1   force =    -0.00010710   -0.00001901   -0.00622908
     atom   51 type  1   force =    -0.00011889   -0.00012740    0.00908764
     atom   52 type  1   force =     0.00001231    0.00034965   -0.01047183
     atom   53 type  1   force =     0.00001173   -0.00002082   -0.00005675
     atom   54 type  1   force =     0.00009475   -0.00011534    0.00014596
     atom   55 type  1   force =     0.00002164    0.00001779   -0.00002498
     atom   56 type  1   force =    -0.00002280   -0.00001940   -0.00001195
     atom   57 type  1   force =    -0.00006709   -0.00002257    0.00948280
     atom   58 type  1   force =     0.00000229   -0.00002954    0.00849989
     atom   59 type  1   force =    -0.00025740    0.00029446   -0.01060524
     atom   60 type  1   force =    -0.00000123   -0.00009289   -0.01061910
     atom   61 type  1   force =    -0.00000055    0.00000559   -0.00003903
     atom   62 type  1   force =    -0.00000374   -0.00000431   -0.00004285
     atom   63 type  1   force =    -0.00001022    0.00000516    0.00002953
     atom   64 type  1   force =    -0.00004793   -0.00004342    0.00003945
     atom   65 type  2   force =    -0.00005232   -0.00004533    0.00007240
     atom   66 type  3   force =     0.00002556    0.00000802    0.00012324
     atom   67 type  3   force =    -0.00000665   -0.00000304    0.00007460
     atom   68 type  3   force =    -0.00002991   -0.00001797    0.00017730

     Total force =     0.000490     Total SCF correction =     0.000032
     Energy error            =      3.7E-07
     Gradient error          =      1.8E-04

     bfgs converged in  13 scf cycles and  12 bfgs steps
     (criteria: energy <  7.3E-07 Ry, force <  3.9E-04 Ry/Bohr)

     End of BFGS Geometry Optimization

     Final energy   =  -21096.1754196604 Ry

     File ./Fe_NH2_H_paper_480c_ESM_p5.bfgs deleted, as requested
Begin final coordinates

ATOMIC_POSITIONS (angstrom)
Fe            1.6549129530        1.1702001330        0.0000000000    0   0   0
Fe            0.0000000000        0.0000000000        2.0269842320    0   0   0
Fe            4.9647388580        3.5106003990        0.0000000000    0   0   0
Fe            3.3098259060        2.3404002660        2.0269842320    0   0   0
Fe            1.6506659601        1.1679940555        4.0283663925
Fe            3.3063711203        9.3746489737        6.0232622500
Fe            4.9609792596        3.5168565614        4.0165117078
Fe            3.3070981901        2.3318114838        6.0146343153
Fe            2.4823638580        3.5106003990        0.0000000000    0   0   0
Fe            4.1372879530        1.1702001330        0.0000000000    0   0   0
Fe            0.8274509060        2.3404002660        2.0269842320    0   0   0
Fe            2.4823750000        0.0000000000        2.0269842320    0   0   0
Fe            2.4826594780        3.5097550184        4.0326075338
Fe            4.1304246047        1.1653780733        4.0246244577
Fe            0.8211548256        2.3478618046        6.0018332128
Fe            2.4828586679        0.0007530064        6.0163218277
Fe            6.6196629530        1.1702001330        0.0000000000    0   0   0
Fe            4.9647500000        0.0000000000        2.0269842320    0   0   0
Fe            9.9294888580        3.5106003990        0.0000000000    0   0   0
Fe            8.2745759060        2.3404002660        2.0269842320    0   0   0
Fe            6.6242576128        1.1644393023        4.0165606145
Fe            4.9553586672        0.0001320923        6.0145361260
Fe            9.9327212798        3.5035867140        4.0151339256
Fe            8.2868125623        2.3227154911        6.0907578813
Fe            7.4471138580        3.5106003990        0.0000000000    0   0   0
Fe            9.1020379530        1.1702001330        0.0000000000    0   0   0
Fe            5.7922009060        2.3404002660        2.0269842320    0   0   0
Fe            7.4471250000        0.0000000000        2.0269842320    0   0   0
Fe            7.4468172945        3.5101144937        4.0479011286
Fe            9.0945652499        1.1783925012        4.0584997417
Fe            5.7433939281        2.3058332455        5.9424457546
Fe           10.7585249215        9.3730524619        6.0036337490
Fe            3.3098147640        5.8510006640        0.0000000000    0   0   0
Fe            1.6549018110        4.6808005310        2.0269842320    0   0   0
Fe            6.6196406700        8.1914009300        0.0000000000    0   0   0
Fe            4.9647277170        7.0212007970        2.0269842320    0   0   0
Fe            3.3147196156        5.8539906791        4.0324771305
Fe           11.5894612831        4.6818796912        6.0090056166
Fe            6.6158953470        8.1884277832        4.0283698323
Fe            4.9754201903        7.0143571841        6.0235284174
Fe            4.1372656700        8.1914009300        0.0000000000    0   0   0
Fe            5.7921897640        5.8510006640        0.0000000000    0   0   0
Fe            2.4823527170        7.0212007970        2.0269842320    0   0   0
Fe            4.1372768110        4.6808005310        2.0269842320    0   0   0
Fe            4.1354960183        8.1905641942        4.0300225416
Fe            5.7972841484        5.8414699250        4.0586173365
Fe           12.4005567007        7.0136811133        6.0256740127
Fe            4.1487979106        4.6789095984        6.0036484657
Fe            8.2745647640        5.8510006640        0.0000000000    0   0   0
Fe            6.6196518110        4.6808005310        2.0269842320    0   0   0
Fe           11.5843906700        8.1914009300        0.0000000000    0   0   0
Fe            9.9294777170        7.0212007970        2.0269842320    0   0   0
Fe            8.2690636283        5.8562377200        4.0149993739
Fe            6.6074588629        4.6976162461        6.0906272890
Fe           11.5885595736        8.1953532401        4.0324371566
Fe            9.9318108410        7.0254030191        6.0092602293
Fe            9.1020156700        8.1914009300        0.0000000000    0   0   0
Fe           10.7569397640        5.8510006640        0.0000000000    0   0   0
Fe            7.4471027170        7.0212007970        2.0269842320    0   0   0
Fe            9.1020268110        4.6808005310        2.0269842320    0   0   0
Fe            9.1010810729        8.1919788849        4.0326428862
Fe           10.7634908724        5.8556484938        4.0219221767
Fe            7.4516048001        7.0126082472        6.0018056623
Fe            9.1526827908        4.7166197186        5.9423128221
N             7.4468555410        3.5101652460        7.4789625390
H             8.1141025849        3.9824468774        8.1031587794
H             6.7799090734        3.0385623182        8.1040771183
H             4.5437876775        8.4795235335        6.9496738804
End final coordinates



     Writing output data file ./Fe_NH2_H_paper_480c_ESM_p5.save/

     init_run     :     32.00s CPU     33.74s WALL (       1 calls)
     electrons    :  30390.20s CPU  31141.19s WALL (      13 calls)
     update_pot   :     69.49s CPU     69.92s WALL (      12 calls)
     forces       :    232.44s CPU    236.54s WALL (      13 calls)

     Called by init_run:
     wfcinit      :     21.89s CPU     23.32s WALL (       1 calls)
     potinit      :      3.06s CPU      3.16s WALL (       1 calls)
     hinit0       :      5.12s CPU      5.24s WALL (       1 calls)

     Called by electrons:
     c_bands      :  25662.75s CPU  26310.99s WALL (     304 calls)
     sum_band     :   1461.62s CPU   1521.60s WALL (     304 calls)
     v_of_rho     :    255.21s CPU    258.20s WALL (     305 calls)
     newd         :     53.44s CPU     53.99s WALL (     305 calls)
     PAW_pot      :     62.32s CPU     62.89s WALL (     317 calls)
     mix_rho      :   1142.80s CPU   1162.42s WALL (     304 calls)

     Called by c_bands:
     init_us_2    :    134.58s CPU    143.41s WALL (    1902 calls)
     cegterg      :  22289.69s CPU  22589.13s WALL (     912 calls)

     Called by *egterg:
     cdiaghg      :   6331.46s CPU   6377.65s WALL (    7464 calls)
     h_psi        :   6853.15s CPU   6961.94s WALL (    7539 calls)
     s_psi        :   1800.80s CPU   1813.25s WALL (    7539 calls)
     g_psi        :     33.06s CPU     33.54s WALL (    6624 calls)

     Called by h_psi:
     h_psi:calbec :   1970.22s CPU   1983.88s WALL (    7539 calls)
     vloc_psi     :   3022.76s CPU   3057.27s WALL (    7539 calls)
     add_vuspsi   :   1802.58s CPU   1815.11s WALL (    7539 calls)

     General routines
     calbec       :   2806.55s CPU   2825.84s WALL (    8643 calls)
     fft          :    169.94s CPU    171.67s WALL (    7830 calls)
     ffts         :    514.05s CPU    518.71s WALL (  194965 calls)
     fftw         :   3293.51s CPU   3331.37s WALL ( 3654896 calls)
     interpolate  :     20.06s CPU     20.28s WALL (     610 calls)
     davcio       :      1.25s CPU    364.92s WALL (    8057 calls)

     Parallel routines
     fft_scatt_xy :    446.93s CPU    451.69s WALL ( 3857691 calls)
     fft_scatt_yz :   1878.07s CPU   1900.12s WALL ( 3857691 calls)

     PWSCF        :      8h33m CPU      8h45m WALL


   This run was terminated on:   4:15:57  17Jun2022            

=------------------------------------------------------------------------------=
   JOB DONE.
=------------------------------------------------------------------------------=
