
     Program PWSCF v.6.7MaX starts on 16Jun2022 at 19:24:40 

     This program is part of the open-source Quantum ESPRESSO suite
     for quantum simulation of materials; please cite
         "P. Giannozzi et al., J. Phys.:Condens. Matter 21 395502 (2009);
         "P. Giannozzi et al., J. Phys.:Condens. Matter 29 465901 (2017);
          URL http://www.quantum-espresso.org", 
     in publications or presentations arising from this work. More details at
     http://www.quantum-espresso.org/quote

     Parallel version (MPI), running on   256 processors

     MPI processes distributed on     2 nodes
     K-points division:     npool     =       8
     R & G space division:  proc/nbgrp/npool/nimage =      32
     Waiting for input...
     Reading input from standard input
Warning: card &CELL ignored
Warning: card / ignored

     Current dimensions of program PWSCF are:
     Max number of different atomic species (ntypx) = 10
     Max number of k-points (npk) =  40000
     Max angular momentum in pseudopotentials (lmaxx) =  3
     file Fe.pbe-spn-kjpaw_psl.0.2.1.UPF: wavefunction(s)  3D renormalized

     IMPORTANT: XC functional enforced from input :
     Exchange-correlation= PBE
                           (   1   4   3   4   0   0   0)
     Any further DFT definition will be discarded
     Please, verify this is what you really want


     -------------------------------------------------
     Parameters for Dispersion (Grimme-D2) Correction:
     -------------------------------------------------
       atom      VdW radius       C_6     

        Fe         2.952        374.666
        H          1.892          4.857

     Subspace diagonalization in iterative solution of the eigenvalue problem:
     one sub-group per band group will be used
     scalapack distributed-memory algorithm (size of sub-group:  5*  5 procs)


     Parallelization info
     --------------------
     sticks:   dense  smooth     PW     G-vecs:    dense   smooth      PW
     Min         396     198     52                90796    32100    4368
     Max         397     199     53                90807    32109    4377
     Sum       12685    6351   1677              2905599  1027285  139897



     bravais-lattice index     =            0
     lattice parameter (alat)  =      18.7640  a.u.
     unit-cell volume          =   16360.3161 (a.u.)^3
     number of atoms/cell      =           65
     number of atomic types    =            2
     number of electrons       =      1025.00
     number of Kohn-Sham states=          616
     kinetic-energy cutoff     =      60.0000  Ry
     charge density cutoff     =     480.0000  Ry
     scf convergence threshold =      1.0E-08
     mixing beta               =       0.2000
     number of iterations used =           10  local-TF  mixing
     energy convergence thresh.=      7.3E-07
     force convergence thresh. =      3.9E-04
     Exchange-correlation= PBE
                           (   1   4   3   4   0   0   0)
     nstep                     =           50


     Effective Screening Medium Method
     =================================
     Boundary Conditions: Metal-Slab-Metal
     field strength                   =     0.02 Ry/a.u.
     grid points for fit at edges     =        4 


     celldm(1)=  18.764036  celldm(2)=   0.000000  celldm(3)=   0.000000
     celldm(4)=   0.000000  celldm(5)=   0.000000  celldm(6)=   0.000000

     crystal axes: (cart. coord. in units of alat)
               a(1) = (   1.000000   0.000000   0.000000 )  
               a(2) = (   0.333330   0.942807   0.000000 )  
               a(3) = (   0.000000   0.000000   2.626577 )  

     reciprocal axes: (cart. coord. in units 2 pi/alat)
               b(1) = (  1.000000 -0.353551  0.000000 )  
               b(2) = (  0.000000  1.060663  0.000000 )  
               b(3) = (  0.000000  0.000000  0.380724 )  


     PseudoPot. # 1 for Fe read from file:
     ../../SSSP/Fe.pbe-spn-kjpaw_psl.0.2.1.UPF
     MD5 check sum: e86618425769142926afa95317d90200
     Pseudo is Projector augmented-wave + core cor, Zval = 16.0
     Generated using "atomic" code by A. Dal Corso  v.5.0.99 svn rev. 10869
     Shape of augmentation charge: PSQ
     Using radial grid of 1191 points,  6 beta functions with: 
                l(1) =   0
                l(2) =   0
                l(3) =   1
                l(4) =   1
                l(5) =   2
                l(6) =   2
     Q(r) pseudized with 0 coefficients 


     PseudoPot. # 2 for H  read from file:
     ../../SSSP/H.pbe-rrkjus_psl.1.0.0.UPF
     MD5 check sum: f52b6d4d1c606e5624b1dc7b2218f220
     Pseudo is Ultrasoft, Zval =  1.0
     Generated using "atomic" code by A. Dal Corso  v.5.1
     Using radial grid of  929 points,  2 beta functions with: 
                l(1) =   0
                l(2) =   0
     Q(r) pseudized with 0 coefficients 


     atomic species   valence    mass     pseudopotential
        Fe            16.00    55.84500     Fe( 1.00)
        H              1.00     1.00800     H ( 1.00)

     Starting magnetic structure 
     atomic species   magnetization
        Fe           0.100
        H            0.100

     No symmetry found



   Cartesian axes

     site n.     atom                  positions (alat units)
         1           Fe  tau(   1) = (   0.1666663   0.1178509   0.0000000  )
         2           Fe  tau(   2) = (   0.0000000   0.0000000   0.2041376  )
         3           Fe  tau(   3) = (   0.4999989   0.3535526   0.0000000  )
         4           Fe  tau(   4) = (   0.3333326   0.2357017   0.2041376  )
         5           Fe  tau(   5) = (   0.1662697   0.1176895   0.4057409  )
         6           Fe  tau(   6) = (   0.3328001   0.9435636   0.6055491  )
         7           Fe  tau(   7) = (   0.4998147   0.3534052   0.4059474  )
         8           Fe  tau(   8) = (   0.3323733   0.2357733   0.6047738  )
         9           Fe  tau(   9) = (   0.2499989   0.3535526   0.0000000  )
        10           Fe  tau(  10) = (   0.4166663   0.1178509   0.0000000  )
        11           Fe  tau(  11) = (   0.0833326   0.2357017   0.2041376  )
        12           Fe  tau(  12) = (   0.2500000   0.0000000   0.2041376  )
        13           Fe  tau(  13) = (   0.2498711   0.3536030   0.4058033  )
        14           Fe  tau(  14) = (   0.4164180   0.1176920   0.4057822  )
        15           Fe  tau(  15) = (   0.0832191   0.2359435   0.6052304  )
        16           Fe  tau(  16) = (   0.2494796  -0.0002804   0.6058105  )
        17           Fe  tau(  17) = (   0.6666663   0.1178509   0.0000000  )
        18           Fe  tau(  18) = (   0.5000000   0.0000000   0.2041376  )
        19           Fe  tau(  19) = (   0.9999989   0.3535526   0.0000000  )
        20           Fe  tau(  20) = (   0.8333326   0.2357017   0.2041376  )
        21           Fe  tau(  21) = (   0.6664727   0.1177137   0.4059627  )
        22           Fe  tau(  22) = (   0.4996850  -0.0009120   0.6047927  )
        23           Fe  tau(  23) = (   1.0001387   0.3537175   0.4055941  )
        24           Fe  tau(  24) = (   0.8333669   0.2359605   0.6057390  )
        25           Fe  tau(  25) = (   0.7499989   0.3535526   0.0000000  )
        26           Fe  tau(  26) = (   0.9166663   0.1178509   0.0000000  )
        27           Fe  tau(  27) = (   0.5833326   0.2357017   0.2041376  )
        28           Fe  tau(  28) = (   0.7500000   0.0000000   0.2041376  )
        29           Fe  tau(  29) = (   0.7498303   0.3534117   0.4051083  )
        30           Fe  tau(  30) = (   0.9162045   0.1181762   0.4063200  )
        31           Fe  tau(  31) = (   0.5816774   0.2345372   0.6051845  )
        32           Fe  tau(  32) = (   1.0836559   0.9433092   0.6053010  )
        33           Fe  tau(  33) = (   0.3333315   0.5892543   0.0000000  )
        34           Fe  tau(  34) = (   0.1666652   0.4714034   0.2041376  )
        35           Fe  tau(  35) = (   0.6666640   0.8249560   0.0000000  )
        36           Fe  tau(  36) = (   0.4999978   0.7071052   0.2041376  )
        37           Fe  tau(  37) = (   0.3335099   0.5893999   0.4057975  )
        38           Fe  tau(  38) = (   1.1664688   0.4719779   0.6050723  )
        39           Fe  tau(  39) = (   0.6663302   0.8247145   0.4057247  )
        40           Fe  tau(  40) = (   0.5004414   0.7064783   0.6055720  )
        41           Fe  tau(  41) = (   0.4166640   0.8249560   0.0000000  )
        42           Fe  tau(  42) = (   0.5833315   0.5892543   0.0000000  )
        43           Fe  tau(  43) = (   0.2499978   0.7071052   0.2041376  )
        44           Fe  tau(  44) = (   0.4166652   0.4714034   0.2041376  )
        45           Fe  tau(  45) = (   0.4165633   0.8249570   0.4059715  )
        46           Fe  tau(  46) = (   0.5834503   0.5887573   0.4063175  )
        47           Fe  tau(  47) = (   1.2504322   0.7074892   0.6054524  )
        48           Fe  tau(  48) = (   0.4172520   0.4716065   0.6052145  )
        49           Fe  tau(  49) = (   0.8333315   0.5892543   0.0000000  )
        50           Fe  tau(  50) = (   0.6666652   0.4714034   0.2041376  )
        51           Fe  tau(  51) = (   1.1666640   0.8249560   0.0000000  )
        52           Fe  tau(  52) = (   0.9999978   0.7071052   0.2041376  )
        53           Fe  tau(  53) = (   0.8335324   0.5893212   0.4055762  )
        54           Fe  tau(  54) = (   0.6669143   0.4713640   0.6056979  )
        55           Fe  tau(  55) = (   1.1668191   0.8251492   0.4058129  )
        56           Fe  tau(  56) = (   1.0004083   0.7067435   0.6050629  )
        57           Fe  tau(  57) = (   0.9166640   0.8249560   0.0000000  )
        58           Fe  tau(  58) = (   1.0833315   0.5892543   0.0000000  )
        59           Fe  tau(  59) = (   0.7499978   0.7071052   0.2041376  )
        60           Fe  tau(  60) = (   0.9166652   0.4714034   0.2041376  )
        61           Fe  tau(  61) = (   0.9166501   0.8248468   0.4058055  )
        62           Fe  tau(  62) = (   1.0834511   0.5893603   0.4058537  )
        63           Fe  tau(  63) = (   0.7501039   0.7069474   0.6051404  )
        64           Fe  tau(  64) = (   0.9170196   0.4716573   0.6047425  )
        65           H   tau(  65) = (   0.7924110   0.3835857   0.6996458  )

     number of k points=    10  Methfessel-Paxton smearing, width (Ry)=  0.0100
                       cart. coord. in units 2pi/alat
        k(    1) = (   0.0000000   0.0000000   0.0000000), wk =   0.0625000
        k(    2) = (   0.0000000   0.2651656   0.0000000), wk =   0.1250000
        k(    3) = (   0.0000000  -0.5303313   0.0000000), wk =   0.0625000
        k(    4) = (   0.2500000  -0.0883878   0.0000000), wk =   0.1250000
        k(    5) = (   0.2500000   0.1767779   0.0000000), wk =   0.1250000
        k(    6) = (   0.2500000  -0.6187190   0.0000000), wk =   0.1250000
        k(    7) = (   0.2500000  -0.3535534   0.0000000), wk =   0.1250000
        k(    8) = (  -0.5000000   0.1767755   0.0000000), wk =   0.0625000
        k(    9) = (  -0.5000000   0.4419412   0.0000000), wk =   0.1250000
        k(   10) = (  -0.5000000  -0.3535558   0.0000000), wk =   0.0625000

     Dense  grid:  2905599 G-vectors     FFT dimensions: ( 135, 135, 360)

     Smooth grid:  1027285 G-vectors     FFT dimensions: (  96,  96, 243)

     Estimated max dynamical RAM per process >     633.14 MB

     Estimated total dynamical RAM >     158.28 GB

     Check: negative core charge=   -0.000039
     Generating pointlists ...
     new r_m :   0.0741 (alat units)  1.3907 (a.u.) for type    1
     new r_m :   0.0741 (alat units)  1.3907 (a.u.) for type    2

     Initial potential from superposition of free atoms

     starting charge 1024.97193, renormalised to 1025.00000

     negative rho (up, down):  1.363E-02 1.115E-02
     Starting wfcs are  833 randomized atomic wfcs
     Checking if some PAW data can be deallocated... 

     total cpu time spent up to now is       29.6 secs

     Self-consistent Calculation

     iteration #  1     ecut=    60.00 Ry     beta= 0.20
     Davidson diagonalization with overlap
     ethr =  1.00E-04,  avg # of iterations = 18.4

     negative rho (up, down):  8.279E-03 6.790E-03

     total cpu time spent up to now is      341.1 secs

     total energy              =  -21056.76862073 Ry
     estimated scf accuracy    <    1284.94138107 Ry

     total magnetization       =    66.91 Bohr mag/cell
     absolute magnetization    =    68.78 Bohr mag/cell

     iteration #  2     ecut=    60.00 Ry     beta= 0.20
     Davidson diagonalization with overlap
     ethr =  1.00E-02,  avg # of iterations =  1.0

     negative rho (up, down):  6.663E-03 8.223E-03

     total cpu time spent up to now is      392.4 secs

     total energy              =  -21070.52675349 Ry
     estimated scf accuracy    <     371.18620181 Ry

     total magnetization       =    78.41 Bohr mag/cell
     absolute magnetization    =    80.67 Bohr mag/cell

     iteration #  3     ecut=    60.00 Ry     beta= 0.20
     Davidson diagonalization with overlap
     ethr =  1.00E-02,  avg # of iterations =  1.0

     negative rho (up, down):  7.801E-03 1.032E-02

     total cpu time spent up to now is      439.0 secs

     total energy              =  -21073.42643603 Ry
     estimated scf accuracy    <      15.60413166 Ry

     total magnetization       =   121.07 Bohr mag/cell
     absolute magnetization    =   121.69 Bohr mag/cell

     iteration #  4     ecut=    60.00 Ry     beta= 0.20
     Davidson diagonalization with overlap
     ethr =  1.52E-03,  avg # of iterations =  1.0

     negative rho (up, down):  6.636E-03 8.565E-03

     total cpu time spent up to now is      487.7 secs

     total energy              =  -21073.48518461 Ry
     estimated scf accuracy    <      19.10128089 Ry

     total magnetization       =   127.62 Bohr mag/cell
     absolute magnetization    =   128.20 Bohr mag/cell

     iteration #  5     ecut=    60.00 Ry     beta= 0.20
     Davidson diagonalization with overlap
     ethr =  1.52E-03,  avg # of iterations =  1.0

     negative rho (up, down):  3.380E-02 8.670E-02

     total cpu time spent up to now is      532.9 secs

     total energy              =  -21071.75045280 Ry
     estimated scf accuracy    <      23.78136548 Ry

     total magnetization       =   132.29 Bohr mag/cell
     absolute magnetization    =   132.90 Bohr mag/cell

     iteration #  6     ecut=    60.00 Ry     beta= 0.20
     Davidson diagonalization with overlap
     ethr =  1.52E-03,  avg # of iterations =  3.2

     negative rho (up, down):  2.363E-02 7.635E-02

     total cpu time spent up to now is      590.0 secs

     total energy              =  -21072.41609174 Ry
     estimated scf accuracy    <       6.89974231 Ry

     total magnetization       =   153.54 Bohr mag/cell
     absolute magnetization    =   154.79 Bohr mag/cell

     iteration #  7     ecut=    60.00 Ry     beta= 0.20
     Davidson diagonalization with overlap
     ethr =  6.73E-04,  avg # of iterations =  3.4

     negative rho (up, down):  3.034E-04 2.788E-02

     total cpu time spent up to now is      646.8 secs

     total energy              =  -21072.56958562 Ry
     estimated scf accuracy    <       2.66294672 Ry

     total magnetization       =   154.83 Bohr mag/cell
     absolute magnetization    =   156.59 Bohr mag/cell

     iteration #  8     ecut=    60.00 Ry     beta= 0.20
     Davidson diagonalization with overlap
     ethr =  2.60E-04,  avg # of iterations = 13.4

     negative rho (up, down):  4.185E-04 3.706E-03

     total cpu time spent up to now is      844.6 secs

     total energy              =  -21073.01089789 Ry
     estimated scf accuracy    <       9.51483697 Ry

     total magnetization       =   152.66 Bohr mag/cell
     absolute magnetization    =   158.17 Bohr mag/cell

     iteration #  9     ecut=    60.00 Ry     beta= 0.20
     Davidson diagonalization with overlap
     ethr =  2.60E-04,  avg # of iterations =  4.3

     negative rho (up, down):  3.867E-04 1.692E-03

     total cpu time spent up to now is      903.1 secs

     total energy              =  -21073.42157437 Ry
     estimated scf accuracy    <       0.61775754 Ry

     total magnetization       =   147.92 Bohr mag/cell
     absolute magnetization    =   152.62 Bohr mag/cell

     iteration # 10     ecut=    60.00 Ry     beta= 0.20
     Davidson diagonalization with overlap
     ethr =  6.03E-05,  avg # of iterations =  8.9

     negative rho (up, down):  1.080E-03 9.166E-04

     total cpu time spent up to now is      987.7 secs

     total energy              =  -21073.48369966 Ry
     estimated scf accuracy    <       0.64109084 Ry

     total magnetization       =   147.91 Bohr mag/cell
     absolute magnetization    =   152.21 Bohr mag/cell

     iteration # 11     ecut=    60.00 Ry     beta= 0.20
     Davidson diagonalization with overlap
     ethr =  6.03E-05,  avg # of iterations =  2.1

     negative rho (up, down):  1.875E-03 1.224E-03

     total cpu time spent up to now is     1041.5 secs

     total energy              =  -21073.53636395 Ry
     estimated scf accuracy    <       0.85744404 Ry

     total magnetization       =   152.58 Bohr mag/cell
     absolute magnetization    =   156.88 Bohr mag/cell

     iteration # 12     ecut=    60.00 Ry     beta= 0.20
     Davidson diagonalization with overlap
     ethr =  6.03E-05,  avg # of iterations =  1.1

     negative rho (up, down):  1.340E-03 1.801E-03

     total cpu time spent up to now is     1088.7 secs

     total energy              =  -21073.53527919 Ry
     estimated scf accuracy    <       1.04201407 Ry

     total magnetization       =   155.58 Bohr mag/cell
     absolute magnetization    =   159.90 Bohr mag/cell

     iteration # 13     ecut=    60.00 Ry     beta= 0.20
     Davidson diagonalization with overlap
     ethr =  6.03E-05,  avg # of iterations =  1.0

     negative rho (up, down):  2.236E-03 2.421E-03

     total cpu time spent up to now is     1133.5 secs

     total energy              =  -21073.52200625 Ry
     estimated scf accuracy    <       1.10440055 Ry

     total magnetization       =   159.60 Bohr mag/cell
     absolute magnetization    =   163.89 Bohr mag/cell

     iteration # 14     ecut=    60.00 Ry     beta= 0.20
     Davidson diagonalization with overlap
     ethr =  6.03E-05,  avg # of iterations =  1.4

     negative rho (up, down):  1.600E-02 1.997E-02

     total cpu time spent up to now is     1182.5 secs

     total energy              =  -21073.53561501 Ry
     estimated scf accuracy    <       0.63214260 Ry

     total magnetization       =   161.34 Bohr mag/cell
     absolute magnetization    =   165.70 Bohr mag/cell

     iteration # 15     ecut=    60.00 Ry     beta= 0.20
     Davidson diagonalization with overlap
     ethr =  6.03E-05,  avg # of iterations =  1.0

     negative rho (up, down):  4.259E-02 4.722E-02

     total cpu time spent up to now is     1228.0 secs

     total energy              =  -21073.56309599 Ry
     estimated scf accuracy    <       0.30003634 Ry

     total magnetization       =   162.69 Bohr mag/cell
     absolute magnetization    =   167.12 Bohr mag/cell

     iteration # 16     ecut=    60.00 Ry     beta= 0.20
     Davidson diagonalization with overlap
     ethr =  2.93E-05,  avg # of iterations =  6.0

     negative rho (up, down):  7.920E-02 8.314E-02

     total cpu time spent up to now is     1288.8 secs

     total energy              =  -21073.54967295 Ry
     estimated scf accuracy    <       0.38136444 Ry

     total magnetization       =   162.44 Bohr mag/cell
     absolute magnetization    =   167.21 Bohr mag/cell

     iteration # 17     ecut=    60.00 Ry     beta= 0.20
     Davidson diagonalization with overlap
     ethr =  2.93E-05,  avg # of iterations =  1.0

     negative rho (up, down):  7.015E-02 7.397E-02

     total cpu time spent up to now is     1333.5 secs

     total energy              =  -21073.53914437 Ry
     estimated scf accuracy    <       0.30260915 Ry

     total magnetization       =   163.45 Bohr mag/cell
     absolute magnetization    =   168.24 Bohr mag/cell

     iteration # 18     ecut=    60.00 Ry     beta= 0.20
     Davidson diagonalization with overlap
     ethr =  2.93E-05,  avg # of iterations =  1.2

     negative rho (up, down):  8.204E-02 8.704E-02

     total cpu time spent up to now is     1381.0 secs

     total energy              =  -21073.51304185 Ry
     estimated scf accuracy    <       0.27075940 Ry

     total magnetization       =   163.52 Bohr mag/cell
     absolute magnetization    =   168.38 Bohr mag/cell

     iteration # 19     ecut=    60.00 Ry     beta= 0.20
     Davidson diagonalization with overlap
     ethr =  2.64E-05,  avg # of iterations =  5.5

     negative rho (up, down):  5.225E-02 5.647E-02

     total cpu time spent up to now is     1447.5 secs

     total energy              =  -21073.49617297 Ry
     estimated scf accuracy    <       0.13105273 Ry

     total magnetization       =   163.41 Bohr mag/cell
     absolute magnetization    =   168.34 Bohr mag/cell

     iteration # 20     ecut=    60.00 Ry     beta= 0.20
     Davidson diagonalization with overlap
     ethr =  1.28E-05,  avg # of iterations = 19.8

     negative rho (up, down):  3.050E-02 3.323E-02

     total cpu time spent up to now is     1622.3 secs

     total energy              =  -21073.51900677 Ry
     estimated scf accuracy    <       0.04471939 Ry

     total magnetization       =   162.56 Bohr mag/cell
     absolute magnetization    =   167.94 Bohr mag/cell

     iteration # 21     ecut=    60.00 Ry     beta= 0.20
     Davidson diagonalization with overlap
     ethr =  4.36E-06,  avg # of iterations = 14.0

     negative rho (up, down):  2.910E-02 3.199E-02

     total cpu time spent up to now is     1806.2 secs

     total energy              =  -21073.53417258 Ry
     estimated scf accuracy    <       0.02474646 Ry

     total magnetization       =   161.82 Bohr mag/cell
     absolute magnetization    =   167.75 Bohr mag/cell

     iteration # 22     ecut=    60.00 Ry     beta= 0.20
     Davidson diagonalization with overlap
     ethr =  2.41E-06,  avg # of iterations = 10.0

     negative rho (up, down):  2.993E-02 3.295E-02

     total cpu time spent up to now is     1904.0 secs

     total energy              =  -21073.53543116 Ry
     estimated scf accuracy    <       0.02021942 Ry

     total magnetization       =   161.96 Bohr mag/cell
     absolute magnetization    =   167.92 Bohr mag/cell

     iteration # 23     ecut=    60.00 Ry     beta= 0.20
     Davidson diagonalization with overlap
     ethr =  1.97E-06,  avg # of iterations =  1.6

     negative rho (up, down):  3.318E-02 3.632E-02

     total cpu time spent up to now is     1957.3 secs

     total energy              =  -21073.53414423 Ry
     estimated scf accuracy    <       0.02047993 Ry

     total magnetization       =   161.96 Bohr mag/cell
     absolute magnetization    =   167.92 Bohr mag/cell

     iteration # 24     ecut=    60.00 Ry     beta= 0.20
     Davidson diagonalization with overlap
     ethr =  1.97E-06,  avg # of iterations =  2.0

     negative rho (up, down):  5.130E-02 5.383E-02

     total cpu time spent up to now is     2008.2 secs

     total energy              =  -21073.52969337 Ry
     estimated scf accuracy    <       0.01633211 Ry

     total magnetization       =   162.38 Bohr mag/cell
     absolute magnetization    =   168.42 Bohr mag/cell

     iteration # 25     ecut=    60.00 Ry     beta= 0.20
     Davidson diagonalization with overlap
     c_bands:  1 eigenvalues not converged
     c_bands:  2 eigenvalues not converged
     ethr =  1.59E-06,  avg # of iterations = 15.7

     negative rho (up, down):  4.333E-02 4.593E-02

     total cpu time spent up to now is     2244.7 secs

     total energy              =  -21073.53593691 Ry
     estimated scf accuracy    <       0.03171974 Ry

     total magnetization       =   162.24 Bohr mag/cell
     absolute magnetization    =   168.95 Bohr mag/cell

     iteration # 26     ecut=    60.00 Ry     beta= 0.20
     Davidson diagonalization with overlap
     c_bands:  1 eigenvalues not converged
     ethr =  1.59E-06,  avg # of iterations = 10.1

     negative rho (up, down):  2.480E-02 2.771E-02

     total cpu time spent up to now is     2330.5 secs

     total energy              =  -21073.53137846 Ry
     estimated scf accuracy    <       0.02180469 Ry

     total magnetization       =   162.42 Bohr mag/cell
     absolute magnetization    =   169.12 Bohr mag/cell

     iteration # 27     ecut=    60.00 Ry     beta= 0.20
     Davidson diagonalization with overlap
     ethr =  1.59E-06,  avg # of iterations = 14.5

     negative rho (up, down):  3.212E-02 3.493E-02

     total cpu time spent up to now is     2487.9 secs

     total energy              =  -21073.53435150 Ry
     estimated scf accuracy    <       0.00455870 Ry

     total magnetization       =   162.72 Bohr mag/cell
     absolute magnetization    =   169.41 Bohr mag/cell

     iteration # 28     ecut=    60.00 Ry     beta= 0.20
     Davidson diagonalization with overlap
     ethr =  4.45E-07,  avg # of iterations = 10.4

     negative rho (up, down):  2.667E-02 2.955E-02

     total cpu time spent up to now is     2591.1 secs

     total energy              =  -21073.53403553 Ry
     estimated scf accuracy    <       0.00303110 Ry

     total magnetization       =   162.66 Bohr mag/cell
     absolute magnetization    =   169.27 Bohr mag/cell

     iteration # 29     ecut=    60.00 Ry     beta= 0.20
     Davidson diagonalization with overlap
     ethr =  2.96E-07,  avg # of iterations =  6.1

     negative rho (up, down):  1.560E-02 1.914E-02

     total cpu time spent up to now is     2652.7 secs

     total energy              =  -21073.53141250 Ry
     estimated scf accuracy    <       0.00405149 Ry

     total magnetization       =   162.57 Bohr mag/cell
     absolute magnetization    =   169.20 Bohr mag/cell

     iteration # 30     ecut=    60.00 Ry     beta= 0.20
     Davidson diagonalization with overlap
     ethr =  2.96E-07,  avg # of iterations =  4.8

     negative rho (up, down):  1.491E-02 1.843E-02

     total cpu time spent up to now is     2734.7 secs

     total energy              =  -21073.53068212 Ry
     estimated scf accuracy    <       0.00120205 Ry

     total magnetization       =   162.47 Bohr mag/cell
     absolute magnetization    =   169.02 Bohr mag/cell

     iteration # 31     ecut=    60.00 Ry     beta= 0.20
     Davidson diagonalization with overlap
     ethr =  1.17E-07,  avg # of iterations = 13.2

     negative rho (up, down):  1.513E-02 1.879E-02

     total cpu time spent up to now is     2849.0 secs

     total energy              =  -21073.52923440 Ry
     estimated scf accuracy    <       0.00073012 Ry

     total magnetization       =   162.63 Bohr mag/cell
     absolute magnetization    =   169.16 Bohr mag/cell

     iteration # 32     ecut=    60.00 Ry     beta= 0.20
     Davidson diagonalization with overlap
     ethr =  7.12E-08,  avg # of iterations =  9.8

     negative rho (up, down):  1.375E-02 1.768E-02

     total cpu time spent up to now is     2934.5 secs

     total energy              =  -21073.52655224 Ry
     estimated scf accuracy    <       0.00046404 Ry

     total magnetization       =   162.69 Bohr mag/cell
     absolute magnetization    =   169.22 Bohr mag/cell

     iteration # 33     ecut=    60.00 Ry     beta= 0.20
     Davidson diagonalization with overlap
     ethr =  4.53E-08,  avg # of iterations = 12.4

     negative rho (up, down):  1.289E-02 1.701E-02

     total cpu time spent up to now is     3072.7 secs

     total energy              =  -21073.52521863 Ry
     estimated scf accuracy    <       0.00020623 Ry

     total magnetization       =   162.69 Bohr mag/cell
     absolute magnetization    =   169.25 Bohr mag/cell

     iteration # 34     ecut=    60.00 Ry     beta= 0.20
     Davidson diagonalization with overlap
     ethr =  2.01E-08,  avg # of iterations = 12.3

     negative rho (up, down):  1.346E-02 1.772E-02

     total cpu time spent up to now is     3256.1 secs

     total energy              =  -21073.52475695 Ry
     estimated scf accuracy    <       0.00011614 Ry

     total magnetization       =   162.65 Bohr mag/cell
     absolute magnetization    =   169.22 Bohr mag/cell

     iteration # 35     ecut=    60.00 Ry     beta= 0.20
     Davidson diagonalization with overlap
     ethr =  1.13E-08,  avg # of iterations =  4.8

     negative rho (up, down):  1.293E-02 1.722E-02

     total cpu time spent up to now is     3322.5 secs

     total energy              =  -21073.52405089 Ry
     estimated scf accuracy    <       0.00004912 Ry

     total magnetization       =   162.69 Bohr mag/cell
     absolute magnetization    =   169.26 Bohr mag/cell

     iteration # 36     ecut=    60.00 Ry     beta= 0.20
     Davidson diagonalization with overlap
     ethr =  4.79E-09,  avg # of iterations =  9.1

     negative rho (up, down):  1.286E-02 1.712E-02

     total cpu time spent up to now is     3419.0 secs

     total energy              =  -21073.52317272 Ry
     estimated scf accuracy    <       0.00002571 Ry

     total magnetization       =   162.69 Bohr mag/cell
     absolute magnetization    =   169.28 Bohr mag/cell

     iteration # 37     ecut=    60.00 Ry     beta= 0.20
     Davidson diagonalization with overlap
     ethr =  2.51E-09,  avg # of iterations =  9.8

     negative rho (up, down):  1.174E-02 1.600E-02

     total cpu time spent up to now is     3535.7 secs

     total energy              =  -21073.52262873 Ry
     estimated scf accuracy    <       0.00001649 Ry

     total magnetization       =   162.70 Bohr mag/cell
     absolute magnetization    =   169.29 Bohr mag/cell

     iteration # 38     ecut=    60.00 Ry     beta= 0.20
     Davidson diagonalization with overlap
     ethr =  1.61E-09,  avg # of iterations =  6.6

     negative rho (up, down):  1.141E-02 1.562E-02

     total cpu time spent up to now is     3606.6 secs

     total energy              =  -21073.52209800 Ry
     estimated scf accuracy    <       0.00000558 Ry

     total magnetization       =   162.71 Bohr mag/cell
     absolute magnetization    =   169.30 Bohr mag/cell

     iteration # 39     ecut=    60.00 Ry     beta= 0.20
     Davidson diagonalization with overlap
     ethr =  5.45E-10,  avg # of iterations = 10.1

     negative rho (up, down):  1.137E-02 1.558E-02

     total cpu time spent up to now is     3775.8 secs

     total energy              =  -21073.52206826 Ry
     estimated scf accuracy    <       0.00000263 Ry

     total magnetization       =   162.71 Bohr mag/cell
     absolute magnetization    =   169.31 Bohr mag/cell

     iteration # 40     ecut=    60.00 Ry     beta= 0.20
     Davidson diagonalization with overlap
     ethr =  2.56E-10,  avg # of iterations =  7.7

     negative rho (up, down):  1.136E-02 1.554E-02

     total cpu time spent up to now is     3859.4 secs

     total energy              =  -21073.52183667 Ry
     estimated scf accuracy    <       0.00000173 Ry

     total magnetization       =   162.71 Bohr mag/cell
     absolute magnetization    =   169.31 Bohr mag/cell

     iteration # 41     ecut=    60.00 Ry     beta= 0.20
     Davidson diagonalization with overlap
     ethr =  1.69E-10,  avg # of iterations =  8.2

     negative rho (up, down):  1.143E-02 1.560E-02

     total cpu time spent up to now is     3954.6 secs

     total energy              =  -21073.52173798 Ry
     estimated scf accuracy    <       0.00000056 Ry

     total magnetization       =   162.71 Bohr mag/cell
     absolute magnetization    =   169.32 Bohr mag/cell

     iteration # 42     ecut=    60.00 Ry     beta= 0.20
     Davidson diagonalization with overlap
     ethr =  5.51E-11,  avg # of iterations = 10.4

     negative rho (up, down):  1.140E-02 1.557E-02

     total cpu time spent up to now is     4107.8 secs

     total energy              =  -21073.52175498 Ry
     estimated scf accuracy    <       0.00000033 Ry

     total magnetization       =   162.72 Bohr mag/cell
     absolute magnetization    =   169.32 Bohr mag/cell

     iteration # 43     ecut=    60.00 Ry     beta= 0.20
     Davidson diagonalization with overlap
     ethr =  3.18E-11,  avg # of iterations =  6.3

     negative rho (up, down):  1.143E-02 1.559E-02

     total cpu time spent up to now is     4174.1 secs

     total energy              =  -21073.52173911 Ry
     estimated scf accuracy    <       0.00000023 Ry

     total magnetization       =   162.72 Bohr mag/cell
     absolute magnetization    =   169.32 Bohr mag/cell

     iteration # 44     ecut=    60.00 Ry     beta= 0.20
     Davidson diagonalization with overlap
     ethr =  2.24E-11,  avg # of iterations =  8.8

     negative rho (up, down):  1.146E-02 1.562E-02

     total cpu time spent up to now is     4268.4 secs

     total energy              =  -21073.52171987 Ry
     estimated scf accuracy    <       0.00000012 Ry

     total magnetization       =   162.72 Bohr mag/cell
     absolute magnetization    =   169.33 Bohr mag/cell

     iteration # 45     ecut=    60.00 Ry     beta= 0.20
     Davidson diagonalization with overlap
     ethr =  1.17E-11,  avg # of iterations =  8.9

     negative rho (up, down):  1.148E-02 1.564E-02

     total cpu time spent up to now is     4430.6 secs

     total energy              =  -21073.52170791 Ry
     estimated scf accuracy    <       0.00000007 Ry

     total magnetization       =   162.72 Bohr mag/cell
     absolute magnetization    =   169.33 Bohr mag/cell

     iteration # 46     ecut=    60.00 Ry     beta= 0.20
     Davidson diagonalization with overlap
     ethr =  7.30E-12,  avg # of iterations =  6.5

     negative rho (up, down):  1.147E-02 1.562E-02

     total cpu time spent up to now is     4503.0 secs

     total energy              =  -21073.52172589 Ry
     estimated scf accuracy    <       0.00000004 Ry

     total magnetization       =   162.72 Bohr mag/cell
     absolute magnetization    =   169.33 Bohr mag/cell

     iteration # 47     ecut=    60.00 Ry     beta= 0.20
     Davidson diagonalization with overlap
     ethr =  4.17E-12,  avg # of iterations =  7.8

     negative rho (up, down):  1.146E-02 1.561E-02

     total cpu time spent up to now is     4611.1 secs

     total energy              =  -21073.52173992 Ry
     estimated scf accuracy    <       0.00000001 Ry

     total magnetization       =   162.72 Bohr mag/cell
     absolute magnetization    =   169.33 Bohr mag/cell

     iteration # 48     ecut=    60.00 Ry     beta= 0.20
     Davidson diagonalization with overlap
     ethr =  1.12E-12,  avg # of iterations = 10.1

     negative rho (up, down):  1.146E-02 1.562E-02

     Magnetic moment per site:
     atom:    1    charge:   12.6234    magn:    2.3685    constr:    0.0000
     atom:    2    charge:   12.6106    magn:    2.2131    constr:    0.0000
     atom:    3    charge:   12.6233    magn:    2.3712    constr:    0.0000
     atom:    4    charge:   12.6108    magn:    2.1941    constr:    0.0000
     atom:    5    charge:   12.6119    magn:    2.1862    constr:    0.0000
     atom:    6    charge:   12.6213    magn:    2.3527    constr:    0.0000
     atom:    7    charge:   12.6124    magn:    2.1905    constr:    0.0000
     atom:    8    charge:   12.6225    magn:    2.3445    constr:    0.0000
     atom:    9    charge:   12.6232    magn:    2.3659    constr:    0.0000
     atom:   10    charge:   12.6231    magn:    2.3685    constr:    0.0000
     atom:   11    charge:   12.6113    magn:    2.2059    constr:    0.0000
     atom:   12    charge:   12.6109    magn:    2.1928    constr:    0.0000
     atom:   13    charge:   12.6122    magn:    2.1840    constr:    0.0000
     atom:   14    charge:   12.6116    magn:    2.1831    constr:    0.0000
     atom:   15    charge:   12.6222    magn:    2.3559    constr:    0.0000
     atom:   16    charge:   12.6219    magn:    2.3574    constr:    0.0000
     atom:   17    charge:   12.6231    magn:    2.3712    constr:    0.0000
     atom:   18    charge:   12.6108    magn:    2.1941    constr:    0.0000
     atom:   19    charge:   12.6230    magn:    2.3715    constr:    0.0000
     atom:   20    charge:   12.6111    magn:    2.2011    constr:    0.0000
     atom:   21    charge:   12.6124    magn:    2.1904    constr:    0.0000
     atom:   22    charge:   12.6225    magn:    2.3447    constr:    0.0000
     atom:   23    charge:   12.6123    magn:    2.2025    constr:    0.0000
     atom:   24    charge:   12.6222    magn:    2.2196    constr:    0.0000
     atom:   25    charge:   12.6232    magn:    2.3732    constr:    0.0000
     atom:   26    charge:   12.6231    magn:    2.3686    constr:    0.0000
     atom:   27    charge:   12.6110    magn:    2.2045    constr:    0.0000
     atom:   28    charge:   12.6111    magn:    2.2022    constr:    0.0000
     atom:   29    charge:   12.6129    magn:    2.2103    constr:    0.0000
     atom:   30    charge:   12.6119    magn:    2.1702    constr:    0.0000
     atom:   31    charge:   12.6229    magn:    2.3870    constr:    0.0000
     atom:   32    charge:   12.6215    magn:    2.3552    constr:    0.0000
     atom:   33    charge:   12.6232    magn:    2.3675    constr:    0.0000
     atom:   34    charge:   12.6108    magn:    2.1980    constr:    0.0000
     atom:   35    charge:   12.6232    magn:    2.3685    constr:    0.0000
     atom:   36    charge:   12.6110    magn:    2.2133    constr:    0.0000
     atom:   37    charge:   12.6120    magn:    2.1847    constr:    0.0000
     atom:   38    charge:   12.6211    magn:    2.3581    constr:    0.0000
     atom:   39    charge:   12.6120    magn:    2.1861    constr:    0.0000
     atom:   40    charge:   12.6215    magn:    2.3531    constr:    0.0000
     atom:   41    charge:   12.6233    magn:    2.3781    constr:    0.0000
     atom:   42    charge:   12.6237    magn:    2.3688    constr:    0.0000
     atom:   43    charge:   12.6108    magn:    2.1917    constr:    0.0000
     atom:   44    charge:   12.6110    magn:    2.2024    constr:    0.0000
     atom:   45    charge:   12.6129    magn:    2.1838    constr:    0.0000
     atom:   46    charge:   12.6113    magn:    2.1708    constr:    0.0000
     atom:   47    charge:   12.6223    magn:    2.3490    constr:    0.0000
     atom:   48    charge:   12.6214    magn:    2.3550    constr:    0.0000
     atom:   49    charge:   12.6232    magn:    2.3716    constr:    0.0000
     atom:   50    charge:   12.6117    magn:    2.2014    constr:    0.0000
     atom:   51    charge:   12.6233    magn:    2.3676    constr:    0.0000
     atom:   52    charge:   12.6109    magn:    2.1980    constr:    0.0000
     atom:   53    charge:   12.6121    magn:    2.2026    constr:    0.0000
     atom:   54    charge:   12.6228    magn:    2.2195    constr:    0.0000
     atom:   55    charge:   12.6121    magn:    2.1847    constr:    0.0000
     atom:   56    charge:   12.6212    magn:    2.3581    constr:    0.0000
     atom:   57    charge:   12.6232    magn:    2.3659    constr:    0.0000
     atom:   58    charge:   12.6232    magn:    2.3685    constr:    0.0000
     atom:   59    charge:   12.6112    magn:    2.2061    constr:    0.0000
     atom:   60    charge:   12.6113    magn:    2.2017    constr:    0.0000
     atom:   61    charge:   12.6122    magn:    2.1841    constr:    0.0000
     atom:   62    charge:   12.6117    magn:    2.1713    constr:    0.0000
     atom:   63    charge:   12.6221    magn:    2.3557    constr:    0.0000
     atom:   64    charge:   12.6203    magn:    2.2563    constr:    0.0000
     atom:   65    charge:    0.9827    magn:   -0.0221    constr:    0.0000

     total cpu time spent up to now is     4744.9 secs

     End of self-consistent calculation

 ------ SPIN UP ------------


          k = 0.0000 0.0000 0.0000 (128403 PWs)   bands (ev):

   -89.0358 -89.0348 -89.0180 -89.0170 -89.0168 -89.0161 -89.0100 -89.0050
   -89.0047 -88.9997 -88.9991 -88.9990 -88.9980 -88.9977 -88.9946 -88.9941
   -88.9881 -88.9869 -88.9866 -88.9859 -88.9849 -88.9808 -88.9797 -88.9773
   -88.9748 -88.9703 -88.9660 -88.9615 -88.9583 -88.9546 -88.9450 -88.9369
   -88.8920 -88.8750 -88.8716 -88.8690 -88.8686 -88.8610 -88.8597 -88.8541
   -88.8523 -88.8478 -88.8456 -88.8443 -88.8418 -88.8417 -88.8406 -88.8403
   -88.8395 -88.8394 -88.8374 -88.8363 -88.8357 -88.8348 -88.8335 -88.8319
   -88.8272 -88.8268 -88.8244 -88.8176 -88.8171 -88.8157 -88.8142 -88.7992
   -55.2326 -55.2165 -55.2083 -55.2077 -55.2076 -55.2065 -55.1995 -55.1989
   -55.1965 -55.1954 -55.1953 -55.1877 -55.1876 -55.1838 -55.1806 -55.1806
   -55.1802 -55.1796 -55.1791 -55.1787 -55.1765 -55.1689 -55.1673 -55.1667
   -55.1650 -55.1571 -55.1566 -55.1528 -55.1492 -55.1424 -55.1409 -55.1400
   -55.1396 -55.1385 -55.1325 -55.1314 -55.1295 -55.1190 -55.1184 -55.1178
   -55.1173 -55.1165 -55.1086 -55.1054 -55.1014 -55.0971 -55.0720 -55.0472
   -55.0456 -55.0435 -55.0421 -55.0420 -55.0406 -55.0371 -55.0362 -55.0346
   -55.0346 -55.0333 -55.0312 -55.0301 -55.0253 -55.0244 -55.0234 -55.0216
   -55.0159 -55.0127 -55.0099 -55.0097 -55.0087 -55.0081 -55.0050 -55.0049
   -55.0007 -54.9968 -54.9957 -54.9952 -54.9890 -54.9889 -54.9884 -54.9741
   -54.9715 -54.9713 -54.9708 -54.9705 -54.9678 -54.9673 -54.9650 -54.9629
   -54.9623 -54.9619 -54.9617 -54.9582 -54.9539 -54.9513 -54.9468 -54.9459
   -54.9450 -54.9403 -54.9386 -54.9337 -54.9324 -54.9321 -54.9304 -54.9274
   -54.9160 -54.9150 -54.9125 -54.9124 -54.9121 -54.9104 -54.9062 -54.9056
   -54.9030 -54.9010 -54.9002 -54.8992 -54.8977 -54.8956 -54.8947 -54.8945
   -54.8915 -54.8899 -54.8863 -54.8858 -54.8840 -54.8839 -54.8833 -54.8811
   -54.8807 -54.8797 -54.8797 -54.8764 -54.8748 -54.8659 -54.8651 -54.8623
   -54.8621 -54.8619 -54.8615 -54.8606 -54.8499 -54.8498 -54.8498 -54.8477
   -54.8472 -54.8431 -54.8347 -54.8346 -54.8327 -54.8322 -54.8322 -54.8213
   -54.8190 -54.8189 -54.8160 -54.8148 -54.8120 -54.8027 -54.8026 -54.8020
   -54.7999 -54.7991 -54.7975 -54.7951 -54.7928 -54.7926 -54.7915 -54.7910
   -54.7890 -54.7856 -54.7819 -54.7796 -54.7794 -54.7782 -54.7750 -54.7741
   -54.7690 -54.7545 -54.7541 -54.7529 -54.7512 -54.7472 -54.7470 -54.7454
   -54.7452 -54.7426 -54.7416 -54.7416 -54.7403 -54.7390 -54.7367 -54.7351
    -8.8225  -7.8074  -7.2841  -7.1089  -7.1089  -7.1080  -6.9006  -6.6348
    -6.5870  -6.1574  -6.1303  -6.1290  -6.1275  -5.9017  -5.7008  -5.6931
    -5.5929  -5.4857  -5.4832  -5.4682  -5.4636  -5.4426  -5.3884  -5.3739
    -5.3025  -5.2981  -5.0595  -5.0552  -5.0543  -5.0193  -4.9887  -4.9493
    -4.9081  -4.9070  -4.9056  -4.9054  -4.9031  -4.9023  -4.8964  -4.8942
    -4.8937  -4.8921  -4.8906  -4.8887  -4.8832  -4.8523  -4.8493  -4.8352
    -4.8287  -4.8111  -4.8102  -4.8099  -4.8086  -4.7824  -4.7487  -4.7014
    -4.6993  -4.6992  -4.6318  -4.6264  -4.6242  -4.6241  -4.5397  -4.3490
    -4.3464  -4.3148  -4.3139  -4.3120  -4.3102  -4.1992  -4.1861  -4.1503
    -4.1490  -4.1443  -4.1437  -4.1326  -4.1254  -4.1188  -4.1167  -4.1153
    -4.1026  -4.0971  -4.0863  -4.0856  -4.0802  -4.0798  -4.0784  -4.0737
    -4.0643  -4.0638  -4.0575  -4.0428  -4.0377  -4.0370  -4.0328  -4.0279
    -4.0011  -4.0002  -3.9978  -3.9840  -3.9793  -3.9785  -3.9678  -3.9670
    -3.9449  -3.9443  -3.9425  -3.9419  -3.9071  -3.8670  -3.7963  -3.7665
    -3.7642  -3.7624  -3.7601  -3.7545  -3.7165  -3.6544  -3.6515  -3.5627
    -3.5611  -3.5578  -3.5577  -3.5539  -3.5482  -3.5264  -3.5234  -3.5207
    -3.4820  -3.4819  -3.4790  -3.4787  -3.4709  -3.4605  -3.4245  -3.4224
    -3.4216  -3.4194  -3.4180  -3.4172  -3.4163  -3.4101  -3.3831  -3.3624
    -3.3451  -3.2815  -3.2725  -3.2718  -3.2698  -3.2674  -3.2574  -3.2479
    -3.2460  -3.2319  -3.2064  -3.1980  -3.1852  -3.1512  -3.1331  -3.1297
    -3.1179  -3.1170  -3.1145  -3.1137  -3.1021  -3.0745  -3.0567  -3.0482
    -3.0449  -3.0433  -3.0381  -3.0193  -3.0157  -3.0070  -2.9950  -2.9935
    -2.9924  -2.9881  -2.9809  -2.9794  -2.9737  -2.9446  -2.9425  -2.9410
    -2.9380  -2.8579  -2.8538  -2.7377  -2.7353  -2.5958  -2.5903  -2.4647
    -2.4546  -2.4521  -2.4510  -2.4505  -2.4466  -2.4455  -2.4299  -2.4192
    -2.4128  -2.4103  -2.4035  -2.3799  -2.3678  -2.3615  -2.3351  -2.3271
    -2.3113  -2.2802  -2.2789  -2.2786  -2.2656  -2.2563  -2.2503  -2.2421
    -2.2419  -2.2397  -2.2316  -2.2307  -2.2304  -2.1779  -2.1730  -2.1657
    -2.1525  -2.1429  -2.1416  -2.1409  -2.1355  -2.1069  -2.1048  -2.1035
    -2.1034  -2.1002  -2.0996  -2.0905  -2.0837  -2.0678  -2.0563  -2.0497
    -2.0484  -2.0441  -2.0353  -2.0239  -2.0222  -2.0211  -2.0191  -2.0191
    -2.0187  -2.0179  -2.0170  -2.0070  -2.0015  -1.9984  -1.9970  -1.9956
    -1.9949  -1.9936  -1.9929  -1.9750  -1.9724  -1.9712  -1.9594  -1.9585
    -1.9571  -1.9518  -1.9154  -1.9105  -1.9097  -1.9084  -1.9081  -1.9062
    -1.9044  -1.9023  -1.8972  -1.8967  -1.8954  -1.8801  -1.8560  -1.8530
    -1.8518  -1.8508  -1.8029  -1.8008  -1.7941  -1.7923  -1.7915  -1.7700
    -1.7691  -1.7560  -1.7557  -1.6807  -1.6386  -1.6379  -1.6326  -1.6323
    -1.6304  -1.6139  -1.6114  -1.6068  -1.6067  -1.6041  -1.6031  -1.5995
    -1.5846  -1.5710  -1.5703  -1.5685  -1.5602  -1.5453  -1.5444  -1.5422
    -1.5398  -1.4554  -1.4492  -1.1901  -1.1740  -1.1377  -1.1124  -1.0982
    -1.0954  -1.0336  -1.0235  -1.0233  -1.0218  -0.9595  -0.9589  -0.9456
    -0.8866  -0.8832  -0.8827  -0.8826  -0.8232  -0.8215  -0.8147  -0.7998
    -0.7971  -0.7619  -0.6592  -0.6181  -0.5946  -0.5569  -0.5488  -0.4870
    -0.4839  -0.0480   0.1229   0.1445   0.1720   0.1800   0.1817   0.3297
     0.7239   0.9668   0.9751   0.9854   1.0544   1.0892   1.0894   1.0981

          k = 0.0000 0.2652 0.0000 (128375 PWs)   bands (ev):

   -89.0357 -89.0335 -89.0238 -89.0169 -89.0148 -89.0105 -89.0098 -89.0093
   -89.0051 -89.0005 -89.0005 -88.9990 -88.9978 -88.9942 -88.9936 -88.9921
   -88.9916 -88.9889 -88.9869 -88.9855 -88.9822 -88.9819 -88.9787 -88.9767
   -88.9757 -88.9706 -88.9656 -88.9616 -88.9586 -88.9546 -88.9448 -88.9371
   -88.8906 -88.8794 -88.8717 -88.8688 -88.8651 -88.8622 -88.8559 -88.8540
   -88.8527 -88.8487 -88.8472 -88.8456 -88.8441 -88.8431 -88.8414 -88.8401
   -88.8382 -88.8379 -88.8371 -88.8358 -88.8341 -88.8328 -88.8321 -88.8316
   -88.8295 -88.8276 -88.8231 -88.8212 -88.8186 -88.8156 -88.8095 -88.8004
   -55.2306 -55.2171 -55.2153 -55.2088 -55.2050 -55.2038 -55.2009 -55.1964
   -55.1957 -55.1945 -55.1932 -55.1922 -55.1867 -55.1858 -55.1834 -55.1814
   -55.1798 -55.1794 -55.1779 -55.1755 -55.1741 -55.1683 -55.1674 -55.1662
   -55.1651 -55.1577 -55.1516 -55.1503 -55.1485 -55.1429 -55.1391 -55.1372
   -55.1347 -55.1324 -55.1307 -55.1286 -55.1252 -55.1227 -55.1204 -55.1169
   -55.1133 -55.1118 -55.1050 -55.1037 -55.0989 -55.0886 -55.0724 -55.0663
   -55.0605 -55.0566 -55.0523 -55.0513 -55.0467 -55.0429 -55.0365 -55.0358
   -55.0336 -55.0328 -55.0309 -55.0279 -55.0262 -55.0247 -55.0216 -55.0199
   -55.0184 -55.0171 -55.0156 -55.0121 -55.0091 -55.0080 -55.0074 -55.0055
   -55.0035 -55.0015 -55.0001 -54.9986 -54.9952 -54.9898 -54.9868 -54.9821
   -54.9793 -54.9781 -54.9746 -54.9716 -54.9693 -54.9658 -54.9647 -54.9616
   -54.9555 -54.9540 -54.9527 -54.9500 -54.9491 -54.9451 -54.9446 -54.9410
   -54.9406 -54.9394 -54.9366 -54.9333 -54.9324 -54.9301 -54.9259 -54.9218
   -54.9203 -54.9175 -54.9164 -54.9127 -54.9113 -54.9111 -54.9100 -54.9085
   -54.9074 -54.9066 -54.9060 -54.9020 -54.9008 -54.8989 -54.8965 -54.8956
   -54.8918 -54.8894 -54.8883 -54.8871 -54.8805 -54.8781 -54.8773 -54.8763
   -54.8756 -54.8746 -54.8721 -54.8705 -54.8683 -54.8651 -54.8646 -54.8641
   -54.8589 -54.8565 -54.8550 -54.8546 -54.8510 -54.8490 -54.8458 -54.8420
   -54.8407 -54.8380 -54.8370 -54.8354 -54.8343 -54.8321 -54.8295 -54.8214
   -54.8177 -54.8145 -54.8132 -54.8127 -54.8108 -54.8085 -54.8065 -54.8051
   -54.8025 -54.8012 -54.7981 -54.7959 -54.7942 -54.7891 -54.7862 -54.7835
   -54.7817 -54.7795 -54.7792 -54.7776 -54.7772 -54.7760 -54.7745 -54.7733
   -54.7695 -54.7617 -54.7574 -54.7563 -54.7542 -54.7517 -54.7515 -54.7503
   -54.7475 -54.7472 -54.7456 -54.7449 -54.7436 -54.7421 -54.7397 -54.7365
    -8.7081  -7.8816  -7.6572  -7.2879  -7.1004  -6.9333  -6.7671  -6.5461
    -6.3794  -6.1999  -6.1630  -6.0122  -5.9188  -5.8167  -5.7711  -5.7008
    -5.5894  -5.5255  -5.4826  -5.4265  -5.4075  -5.3992  -5.3842  -5.3525
    -5.3355  -5.2916  -5.1956  -5.1242  -5.0766  -5.0536  -5.0519  -5.0324
    -5.0187  -5.0132  -5.0051  -4.9938  -4.9850  -4.9773  -4.9546  -4.9456
    -4.9343  -4.9121  -4.9090  -4.8797  -4.8719  -4.8599  -4.8389  -4.8316
    -4.8139  -4.7991  -4.7800  -4.7606  -4.7414  -4.7382  -4.7294  -4.7223
    -4.7041  -4.6512  -4.5923  -4.5771  -4.5576  -4.5471  -4.5191  -4.4943
    -4.4280  -4.3935  -4.3538  -4.3115  -4.2906  -4.2549  -4.2460  -4.2031
    -4.1621  -4.1516  -4.1489  -4.1363  -4.1303  -4.1187  -4.1076  -4.0994
    -4.0953  -4.0889  -4.0835  -4.0811  -4.0745  -4.0552  -4.0514  -4.0502
    -4.0446  -4.0364  -4.0287  -4.0154  -4.0068  -4.0037  -4.0026  -3.9989
    -3.9958  -3.9938  -3.9903  -3.9830  -3.9546  -3.9265  -3.9183  -3.8995
    -3.8966  -3.8910  -3.8743  -3.8661  -3.8581  -3.8554  -3.8345  -3.8298
    -3.8157  -3.7482  -3.7348  -3.7164  -3.6886  -3.6648  -3.6590  -3.6422
    -3.6311  -3.6269  -3.5584  -3.5534  -3.5384  -3.5323  -3.5298  -3.5214
    -3.5173  -3.5146  -3.5071  -3.4969  -3.4854  -3.4805  -3.4572  -3.4491
    -3.4461  -3.4364  -3.4126  -3.4065  -3.3984  -3.3901  -3.3525  -3.3330
    -3.3195  -3.3149  -3.2933  -3.2887  -3.2653  -3.2600  -3.2572  -3.2534
    -3.2437  -3.2388  -3.2346  -3.2211  -3.2176  -3.2061  -3.1999  -3.1944
    -3.1898  -3.1677  -3.1542  -3.1371  -3.1134  -3.0958  -3.0802  -3.0591
    -3.0495  -3.0418  -3.0275  -3.0079  -3.0011  -2.9987  -2.9859  -2.9759
    -2.9623  -2.9223  -2.9139  -2.8841  -2.8733  -2.8681  -2.8469  -2.8106
    -2.7860  -2.7819  -2.7628  -2.7098  -2.5994  -2.5797  -2.5717  -2.5392
    -2.5315  -2.5120  -2.4988  -2.4833  -2.4620  -2.4451  -2.4408  -2.4226
    -2.4163  -2.4090  -2.3946  -2.3893  -2.3857  -2.3772  -2.3725  -2.3665
    -2.3353  -2.3281  -2.3056  -2.2809  -2.2658  -2.2495  -2.2420  -2.2391
    -2.2379  -2.2320  -2.2153  -2.2137  -2.2062  -2.2047  -2.2030  -2.1914
    -2.1827  -2.1777  -2.1485  -2.1383  -2.1289  -2.1209  -2.1110  -2.1018
    -2.0924  -2.0896  -2.0834  -2.0824  -2.0747  -2.0696  -2.0657  -2.0604
    -2.0589  -2.0474  -2.0415  -2.0364  -2.0334  -2.0245  -2.0230  -2.0137
    -2.0018  -1.9942  -1.9914  -1.9827  -1.9802  -1.9772  -1.9723  -1.9691
    -1.9647  -1.9624  -1.9603  -1.9571  -1.9431  -1.9378  -1.9344  -1.9294
    -1.9163  -1.9109  -1.9092  -1.9061  -1.9030  -1.8984  -1.8953  -1.8933
    -1.8897  -1.8697  -1.8678  -1.8542  -1.8442  -1.8411  -1.8339  -1.8140
    -1.7884  -1.7852  -1.7654  -1.7500  -1.7462  -1.7444  -1.7387  -1.7342
    -1.7207  -1.7158  -1.7080  -1.7044  -1.7033  -1.7000  -1.6802  -1.6505
    -1.6319  -1.6277  -1.6247  -1.6227  -1.6205  -1.6033  -1.5993  -1.5909
    -1.5795  -1.5761  -1.5674  -1.5520  -1.5337  -1.4808  -1.4393  -1.4351
    -1.4323  -1.3092  -1.2181  -1.2050  -1.1972  -1.1759  -1.1590  -1.1493
    -1.1370  -1.1273  -1.1236  -1.0499  -1.0404  -1.0366  -1.0242  -1.0172
    -1.0053  -1.0018  -0.9935  -0.9676  -0.9588  -0.9549  -0.9116  -0.9034
    -0.8916  -0.8219  -0.7946  -0.7880  -0.7206  -0.6665  -0.5061  -0.4197
    -0.1744  -0.0816  -0.0089   0.0498   0.1753   0.2552   0.3485   0.4183
     0.4680   0.5435   0.6053   0.6938   0.7709   0.9117   0.9824   1.0953

          k = 0.0000-0.5303 0.0000 (128388 PWs)   bands (ev):

   -89.0357 -89.0303 -89.0290 -89.0150 -89.0143 -89.0109 -89.0101 -89.0081
   -89.0050 -89.0035 -89.0030 -88.9960 -88.9953 -88.9936 -88.9934 -88.9931
   -88.9913 -88.9893 -88.9889 -88.9861 -88.9827 -88.9788 -88.9779 -88.9778
   -88.9761 -88.9711 -88.9647 -88.9620 -88.9587 -88.9547 -88.9446 -88.9373
   -88.8881 -88.8838 -88.8705 -88.8701 -88.8629 -88.8619 -88.8554 -88.8524
   -88.8510 -88.8503 -88.8488 -88.8469 -88.8462 -88.8429 -88.8425 -88.8399
   -88.8387 -88.8371 -88.8360 -88.8355 -88.8337 -88.8326 -88.8317 -88.8293
   -88.8282 -88.8277 -88.8258 -88.8235 -88.8176 -88.8166 -88.8051 -88.8031
   -55.2254 -55.2236 -55.2161 -55.2080 -55.2077 -55.1996 -55.1992 -55.1979
   -55.1963 -55.1950 -55.1913 -55.1905 -55.1891 -55.1863 -55.1859 -55.1806
   -55.1801 -55.1790 -55.1779 -55.1731 -55.1705 -55.1695 -55.1687 -55.1661
   -55.1639 -55.1582 -55.1507 -55.1474 -55.1438 -55.1370 -55.1351 -55.1345
   -55.1340 -55.1329 -55.1306 -55.1274 -55.1216 -55.1203 -55.1161 -55.1125
   -55.1089 -55.1066 -55.0977 -55.0916 -55.0911 -55.0909 -55.0849 -55.0775
   -55.0763 -55.0757 -55.0644 -55.0582 -55.0548 -55.0537 -55.0486 -55.0450
   -55.0328 -55.0295 -55.0282 -55.0266 -55.0243 -55.0228 -55.0221 -55.0201
   -55.0184 -55.0159 -55.0098 -55.0083 -55.0079 -55.0071 -55.0024 -55.0018
   -55.0003 -54.9993 -54.9983 -54.9971 -54.9960 -54.9914 -54.9886 -54.9875
   -54.9853 -54.9851 -54.9848 -54.9795 -54.9773 -54.9761 -54.9750 -54.9744
   -54.9674 -54.9623 -54.9532 -54.9513 -54.9434 -54.9408 -54.9377 -54.9372
   -54.9361 -54.9329 -54.9289 -54.9272 -54.9242 -54.9214 -54.9194 -54.9176
   -54.9138 -54.9130 -54.9126 -54.9108 -54.9096 -54.9083 -54.9078 -54.9073
   -54.9060 -54.9047 -54.9031 -54.9011 -54.9000 -54.8994 -54.8967 -54.8957
   -54.8940 -54.8922 -54.8911 -54.8895 -54.8873 -54.8868 -54.8840 -54.8792
   -54.8720 -54.8715 -54.8709 -54.8704 -54.8657 -54.8656 -54.8591 -54.8572
   -54.8545 -54.8538 -54.8508 -54.8503 -54.8498 -54.8483 -54.8411 -54.8396
   -54.8382 -54.8367 -54.8355 -54.8333 -54.8314 -54.8300 -54.8282 -54.8275
   -54.8214 -54.8153 -54.8146 -54.8142 -54.8106 -54.8097 -54.8076 -54.8073
   -54.7998 -54.7989 -54.7920 -54.7906 -54.7799 -54.7784 -54.7780 -54.7765
   -54.7757 -54.7751 -54.7741 -54.7734 -54.7727 -54.7721 -54.7714 -54.7704
   -54.7692 -54.7686 -54.7682 -54.7672 -54.7655 -54.7648 -54.7617 -54.7614
   -54.7567 -54.7538 -54.7491 -54.7475 -54.7447 -54.7429 -54.7392 -54.7372
    -8.4117  -8.3306  -7.6094  -7.2128  -7.1975  -7.1352  -6.7162  -6.3143
    -6.3003  -6.1676  -6.0779  -5.8040  -5.8024  -5.7797  -5.6852  -5.6701
    -5.6250  -5.5398  -5.5343  -5.5101  -5.4659  -5.3815  -5.3357  -5.2652
    -5.2639  -5.2539  -5.2495  -5.2393  -5.2354  -5.2072  -5.2055  -5.1957
    -5.1796  -5.1107  -5.1080  -5.0480  -5.0418  -5.0372  -4.9430  -4.8858
    -4.8848  -4.8774  -4.8750  -4.8126  -4.8075  -4.7977  -4.7908  -4.7830
    -4.7763  -4.7748  -4.7640  -4.7563  -4.7548  -4.7531  -4.7182  -4.6411
    -4.6391  -4.6385  -4.6222  -4.6176  -4.6143  -4.6103  -4.5141  -4.5093
    -4.4828  -4.4424  -4.4209  -4.4023  -4.3936  -4.3296  -4.2930  -4.1794
    -4.1715  -4.1481  -4.1474  -4.1216  -4.1195  -4.1065  -4.1000  -4.0983
    -4.0816  -4.0805  -4.0735  -4.0703  -4.0628  -4.0608  -4.0555  -4.0358
    -4.0339  -4.0333  -4.0323  -4.0315  -4.0184  -3.9939  -3.9843  -3.9403
    -3.9221  -3.9068  -3.9050  -3.8969  -3.8834  -3.8693  -3.8609  -3.8476
    -3.8446  -3.8412  -3.8385  -3.8377  -3.8363  -3.8341  -3.8297  -3.8254
    -3.8089  -3.7770  -3.7758  -3.7749  -3.7722  -3.7698  -3.7082  -3.6198
    -3.6177  -3.5724  -3.5598  -3.5221  -3.5202  -3.5185  -3.5156  -3.5033
    -3.5011  -3.4951  -3.4942  -3.4896  -3.4861  -3.4825  -3.4738  -3.4709
    -3.4610  -3.4593  -3.4562  -3.4314  -3.4266  -3.4247  -3.4165  -3.4147
    -3.3950  -3.3670  -3.3611  -3.3557  -3.3498  -3.3293  -3.3236  -3.2954
    -3.2912  -3.2868  -3.2835  -3.2795  -3.2473  -3.2320  -3.2202  -3.1991
    -3.1790  -3.1759  -3.1620  -3.1519  -3.0868  -3.0419  -3.0309  -3.0253
    -3.0194  -3.0181  -3.0026  -2.9907  -2.9855  -2.9815  -2.9618  -2.9480
    -2.8804  -2.8457  -2.7407  -2.7157  -2.7127  -2.7107  -2.6993  -2.6948
    -2.6784  -2.6498  -2.6453  -2.6343  -2.6050  -2.5589  -2.5540  -2.5445
    -2.5423  -2.5300  -2.5199  -2.5177  -2.5142  -2.5125  -2.4963  -2.4906
    -2.4880  -2.4845  -2.4771  -2.4643  -2.3808  -2.3784  -2.3548  -2.3503
    -2.3482  -2.3465  -2.3396  -2.3383  -2.3154  -2.3066  -2.2385  -2.2332
    -2.2190  -2.2138  -2.2097  -2.2089  -2.2041  -2.2002  -2.1978  -2.1962
    -2.1954  -2.1926  -2.1869  -2.1856  -2.1703  -2.1663  -2.1630  -2.1625
    -2.1589  -2.1563  -2.1538  -2.1483  -2.0752  -2.0721  -2.0416  -2.0356
    -2.0332  -2.0318  -2.0308  -2.0294  -2.0125  -2.0083  -2.0037  -1.9990
    -1.9954  -1.9944  -1.9886  -1.9862  -1.9820  -1.9791  -1.9697  -1.9675
    -1.9664  -1.9549  -1.9533  -1.9482  -1.9175  -1.9147  -1.9067  -1.9040
    -1.8980  -1.8961  -1.8520  -1.8495  -1.8445  -1.8406  -1.8375  -1.8350
    -1.8180  -1.8038  -1.8012  -1.7818  -1.7597  -1.7547  -1.7536  -1.7502
    -1.7491  -1.7483  -1.7429  -1.7360  -1.7341  -1.7326  -1.7306  -1.7293
    -1.7257  -1.7226  -1.7212  -1.7181  -1.7168  -1.7142  -1.7105  -1.7095
    -1.6527  -1.6454  -1.6225  -1.6192  -1.5590  -1.5484  -1.5053  -1.4997
    -1.4648  -1.4582  -1.4542  -1.4515  -1.3523  -1.3347  -1.3324  -1.3301
    -1.3193  -1.3038  -1.3005  -1.2511  -1.2493  -1.2478  -1.2350  -1.2308
    -1.2061  -1.2037  -1.1774  -1.1743  -1.1606  -1.1581  -1.0827  -1.0789
    -1.0465  -1.0436  -1.0109  -1.0044  -0.9829  -0.9700  -0.9636  -0.9612
    -0.9373  -0.9321  -0.9307  -0.9180  -0.9142  -0.8958  -0.6210  -0.5767
    -0.4986  -0.4347  -0.0854   0.0653   0.0844   0.0902   0.5183   0.7115
     0.7327   0.7444   0.8453   0.8794   0.8879   0.8960   0.9224   0.9375

          k = 0.2500-0.0884 0.0000 (128371 PWs)   bands (ev):

   -89.0357 -89.0335 -89.0238 -89.0169 -89.0148 -89.0105 -89.0098 -89.0093
   -89.0051 -89.0005 -89.0005 -88.9990 -88.9978 -88.9942 -88.9936 -88.9921
   -88.9916 -88.9889 -88.9869 -88.9855 -88.9822 -88.9819 -88.9786 -88.9768
   -88.9757 -88.9706 -88.9655 -88.9616 -88.9586 -88.9546 -88.9448 -88.9371
   -88.8906 -88.8794 -88.8717 -88.8688 -88.8651 -88.8622 -88.8559 -88.8540
   -88.8527 -88.8487 -88.8472 -88.8456 -88.8441 -88.8431 -88.8414 -88.8402
   -88.8382 -88.8380 -88.8371 -88.8358 -88.8341 -88.8329 -88.8321 -88.8316
   -88.8295 -88.8276 -88.8231 -88.8213 -88.8186 -88.8156 -88.8095 -88.8004
   -55.2306 -55.2171 -55.2153 -55.2088 -55.2050 -55.2038 -55.2009 -55.1964
   -55.1957 -55.1945 -55.1932 -55.1922 -55.1866 -55.1858 -55.1834 -55.1814
   -55.1798 -55.1794 -55.1780 -55.1755 -55.1741 -55.1683 -55.1674 -55.1662
   -55.1651 -55.1577 -55.1516 -55.1503 -55.1485 -55.1429 -55.1391 -55.1372
   -55.1348 -55.1324 -55.1306 -55.1287 -55.1252 -55.1227 -55.1204 -55.1169
   -55.1133 -55.1119 -55.1050 -55.1037 -55.0989 -55.0886 -55.0724 -55.0663
   -55.0605 -55.0566 -55.0523 -55.0513 -55.0467 -55.0429 -55.0365 -55.0358
   -55.0336 -55.0328 -55.0309 -55.0279 -55.0262 -55.0247 -55.0216 -55.0199
   -55.0184 -55.0171 -55.0156 -55.0121 -55.0091 -55.0080 -55.0074 -55.0055
   -55.0035 -55.0015 -55.0001 -54.9987 -54.9952 -54.9898 -54.9868 -54.9821
   -54.9793 -54.9781 -54.9745 -54.9716 -54.9693 -54.9658 -54.9647 -54.9616
   -54.9555 -54.9540 -54.9527 -54.9499 -54.9491 -54.9451 -54.9446 -54.9410
   -54.9406 -54.9394 -54.9366 -54.9333 -54.9324 -54.9301 -54.9259 -54.9218
   -54.9203 -54.9175 -54.9164 -54.9127 -54.9113 -54.9111 -54.9100 -54.9085
   -54.9074 -54.9066 -54.9060 -54.9020 -54.9008 -54.8989 -54.8965 -54.8956
   -54.8918 -54.8894 -54.8883 -54.8871 -54.8805 -54.8781 -54.8773 -54.8763
   -54.8757 -54.8746 -54.8721 -54.8705 -54.8683 -54.8651 -54.8646 -54.8640
   -54.8589 -54.8565 -54.8550 -54.8546 -54.8510 -54.8490 -54.8458 -54.8420
   -54.8407 -54.8380 -54.8370 -54.8354 -54.8342 -54.8321 -54.8295 -54.8213
   -54.8177 -54.8145 -54.8131 -54.8127 -54.8108 -54.8085 -54.8065 -54.8051
   -54.8025 -54.8012 -54.7981 -54.7959 -54.7942 -54.7891 -54.7862 -54.7835
   -54.7817 -54.7795 -54.7792 -54.7775 -54.7773 -54.7761 -54.7744 -54.7733
   -54.7695 -54.7617 -54.7574 -54.7563 -54.7542 -54.7517 -54.7516 -54.7503
   -54.7475 -54.7472 -54.7456 -54.7449 -54.7436 -54.7421 -54.7397 -54.7365
    -8.7081  -7.8816  -7.6572  -7.2879  -7.1004  -6.9333  -6.7671  -6.5461
    -6.3794  -6.1999  -6.1630  -6.0122  -5.9188  -5.8167  -5.7711  -5.7008
    -5.5894  -5.5255  -5.4826  -5.4265  -5.4075  -5.3992  -5.3842  -5.3525
    -5.3355  -5.2916  -5.1956  -5.1242  -5.0766  -5.0536  -5.0519  -5.0324
    -5.0187  -5.0132  -5.0052  -4.9937  -4.9850  -4.9773  -4.9546  -4.9456
    -4.9343  -4.9121  -4.9090  -4.8797  -4.8719  -4.8599  -4.8389  -4.8316
    -4.8139  -4.7992  -4.7800  -4.7607  -4.7413  -4.7382  -4.7294  -4.7223
    -4.7041  -4.6512  -4.5923  -4.5771  -4.5576  -4.5471  -4.5192  -4.4943
    -4.4280  -4.3935  -4.3538  -4.3115  -4.2906  -4.2549  -4.2460  -4.2031
    -4.1621  -4.1517  -4.1489  -4.1363  -4.1303  -4.1187  -4.1075  -4.0994
    -4.0952  -4.0889  -4.0835  -4.0811  -4.0745  -4.0552  -4.0514  -4.0502
    -4.0446  -4.0364  -4.0288  -4.0154  -4.0068  -4.0038  -4.0026  -3.9989
    -3.9958  -3.9938  -3.9904  -3.9830  -3.9546  -3.9265  -3.9183  -3.8996
    -3.8966  -3.8910  -3.8743  -3.8662  -3.8582  -3.8554  -3.8345  -3.8298
    -3.8156  -3.7482  -3.7348  -3.7164  -3.6886  -3.6648  -3.6589  -3.6422
    -3.6311  -3.6269  -3.5584  -3.5534  -3.5384  -3.5323  -3.5297  -3.5213
    -3.5173  -3.5146  -3.5071  -3.4969  -3.4854  -3.4804  -3.4572  -3.4491
    -3.4461  -3.4364  -3.4126  -3.4065  -3.3984  -3.3902  -3.3525  -3.3330
    -3.3194  -3.3149  -3.2933  -3.2887  -3.2653  -3.2600  -3.2572  -3.2534
    -3.2437  -3.2388  -3.2346  -3.2211  -3.2176  -3.2061  -3.2000  -3.1943
    -3.1898  -3.1677  -3.1542  -3.1371  -3.1133  -3.0958  -3.0802  -3.0591
    -3.0495  -3.0419  -3.0275  -3.0080  -3.0011  -2.9987  -2.9859  -2.9759
    -2.9623  -2.9223  -2.9139  -2.8841  -2.8733  -2.8681  -2.8469  -2.8106
    -2.7859  -2.7819  -2.7628  -2.7098  -2.5995  -2.5797  -2.5717  -2.5391
    -2.5316  -2.5120  -2.4988  -2.4833  -2.4620  -2.4452  -2.4408  -2.4226
    -2.4163  -2.4090  -2.3945  -2.3893  -2.3857  -2.3772  -2.3725  -2.3665
    -2.3353  -2.3281  -2.3056  -2.2809  -2.2658  -2.2496  -2.2420  -2.2391
    -2.2379  -2.2320  -2.2153  -2.2137  -2.2062  -2.2047  -2.2030  -2.1914
    -2.1827  -2.1777  -2.1485  -2.1383  -2.1289  -2.1210  -2.1110  -2.1019
    -2.0924  -2.0897  -2.0834  -2.0824  -2.0747  -2.0695  -2.0658  -2.0604
    -2.0589  -2.0473  -2.0415  -2.0364  -2.0334  -2.0245  -2.0230  -2.0137
    -2.0018  -1.9942  -1.9914  -1.9827  -1.9803  -1.9772  -1.9723  -1.9691
    -1.9646  -1.9624  -1.9603  -1.9571  -1.9431  -1.9378  -1.9344  -1.9294
    -1.9162  -1.9109  -1.9093  -1.9061  -1.9030  -1.8984  -1.8953  -1.8933
    -1.8897  -1.8696  -1.8678  -1.8542  -1.8442  -1.8411  -1.8339  -1.8140
    -1.7883  -1.7852  -1.7654  -1.7499  -1.7462  -1.7445  -1.7388  -1.7342
    -1.7208  -1.7158  -1.7080  -1.7044  -1.7033  -1.7000  -1.6802  -1.6505
    -1.6318  -1.6277  -1.6247  -1.6228  -1.6205  -1.6033  -1.5993  -1.5909
    -1.5795  -1.5761  -1.5674  -1.5520  -1.5337  -1.4808  -1.4393  -1.4351
    -1.4323  -1.3092  -1.2182  -1.2049  -1.1972  -1.1759  -1.1590  -1.1493
    -1.1370  -1.1273  -1.1236  -1.0499  -1.0404  -1.0366  -1.0242  -1.0172
    -1.0053  -1.0018  -0.9935  -0.9676  -0.9588  -0.9550  -0.9116  -0.9034
    -0.8915  -0.8219  -0.7946  -0.7880  -0.7206  -0.6665  -0.5061  -0.4197
    -0.1745  -0.0816  -0.0089   0.0498   0.1753   0.2552   0.3485   0.4183
     0.4680   0.5435   0.6053   0.6938   0.7709   0.9117   0.9825   1.0948

          k = 0.2500 0.1768 0.0000 (128340 PWs)   bands (ev):

   -89.0357 -89.0326 -89.0221 -89.0211 -89.0162 -89.0105 -89.0096 -89.0085
   -89.0005 -89.0000 -88.9992 -88.9990 -88.9981 -88.9977 -88.9945 -88.9931
   -88.9930 -88.9894 -88.9869 -88.9829 -88.9817 -88.9805 -88.9785 -88.9770
   -88.9767 -88.9714 -88.9642 -88.9614 -88.9599 -88.9544 -88.9446 -88.9373
   -88.8899 -88.8775 -88.8751 -88.8713 -88.8641 -88.8630 -88.8534 -88.8527
   -88.8516 -88.8481 -88.8465 -88.8454 -88.8433 -88.8417 -88.8409 -88.8403
   -88.8397 -88.8390 -88.8375 -88.8367 -88.8354 -88.8352 -88.8329 -88.8306
   -88.8301 -88.8282 -88.8220 -88.8218 -88.8164 -88.8125 -88.8115 -88.8012
   -55.2302 -55.2168 -55.2123 -55.2112 -55.2105 -55.2018 -55.2011 -55.1953
   -55.1944 -55.1940 -55.1889 -55.1887 -55.1874 -55.1867 -55.1863 -55.1857
   -55.1835 -55.1765 -55.1763 -55.1743 -55.1733 -55.1693 -55.1684 -55.1666
   -55.1645 -55.1589 -55.1495 -55.1479 -55.1442 -55.1436 -55.1366 -55.1331
   -55.1311 -55.1299 -55.1279 -55.1257 -55.1215 -55.1154 -55.1132 -55.1122
   -55.1107 -55.1104 -55.1029 -55.0991 -55.0956 -55.0913 -55.0688 -55.0678
   -55.0643 -55.0626 -55.0615 -55.0602 -55.0599 -55.0565 -55.0511 -55.0508
   -55.0431 -55.0424 -55.0368 -55.0289 -55.0245 -55.0237 -55.0227 -55.0227
   -55.0196 -55.0166 -55.0163 -55.0136 -55.0116 -55.0107 -55.0080 -55.0058
   -55.0049 -55.0037 -54.9989 -54.9986 -54.9910 -54.9851 -54.9843 -54.9819
   -54.9799 -54.9737 -54.9724 -54.9705 -54.9674 -54.9661 -54.9643 -54.9639
   -54.9601 -54.9594 -54.9535 -54.9484 -54.9483 -54.9434 -54.9419 -54.9379
   -54.9357 -54.9329 -54.9322 -54.9318 -54.9312 -54.9296 -54.9273 -54.9244
   -54.9219 -54.9211 -54.9201 -54.9177 -54.9157 -54.9128 -54.9128 -54.9108
   -54.9074 -54.9069 -54.9050 -54.9004 -54.8983 -54.8973 -54.8934 -54.8907
   -54.8895 -54.8862 -54.8855 -54.8809 -54.8801 -54.8794 -54.8792 -54.8788
   -54.8749 -54.8730 -54.8683 -54.8675 -54.8670 -54.8659 -54.8627 -54.8618
   -54.8581 -54.8535 -54.8501 -54.8447 -54.8441 -54.8431 -54.8409 -54.8401
   -54.8396 -54.8392 -54.8372 -54.8365 -54.8302 -54.8292 -54.8286 -54.8263
   -54.8230 -54.8182 -54.8139 -54.8129 -54.8129 -54.8032 -54.8004 -54.7991
   -54.7950 -54.7940 -54.7926 -54.7920 -54.7904 -54.7886 -54.7866 -54.7860
   -54.7846 -54.7815 -54.7804 -54.7782 -54.7763 -54.7747 -54.7738 -54.7731
   -54.7693 -54.7593 -54.7593 -54.7578 -54.7559 -54.7543 -54.7543 -54.7524
   -54.7524 -54.7518 -54.7511 -54.7507 -54.7491 -54.7467 -54.7461 -54.7399
    -8.6696  -7.7843  -7.4832  -7.4769  -7.4542  -6.9908  -6.5299  -6.5198
    -6.3802  -6.3693  -6.2184  -5.9359  -5.8750  -5.7701  -5.7126  -5.5697
    -5.4511  -5.4435  -5.4403  -5.4117  -5.4072  -5.3315  -5.3212  -5.3164
    -5.3140  -5.2246  -5.2155  -5.2145  -5.1801  -5.1208  -5.0869  -5.0860
    -5.0585  -4.9989  -4.9975  -4.9914  -4.9722  -4.9562  -4.9423  -4.9366
    -4.9337  -4.9299  -4.9282  -4.9194  -4.9185  -4.9168  -4.9160  -4.8639
    -4.8437  -4.8341  -4.8331  -4.7922  -4.7623  -4.7513  -4.7467  -4.7170
    -4.6457  -4.5781  -4.5763  -4.5538  -4.5432  -4.4751  -4.4561  -4.4556
    -4.4515  -4.4460  -4.4248  -4.3785  -4.2784  -4.2762  -4.2403  -4.2203
    -4.1763  -4.1732  -4.1600  -4.1567  -4.1542  -4.1435  -4.1414  -4.1363
    -4.1362  -4.1327  -4.1280  -4.1212  -4.1176  -4.1110  -4.0938  -4.0756
    -4.0609  -4.0152  -4.0126  -4.0077  -3.9989  -3.9835  -3.9498  -3.9440
    -3.9437  -3.9405  -3.9377  -3.9334  -3.9180  -3.9166  -3.8984  -3.8878
    -3.8696  -3.8435  -3.8356  -3.8026  -3.7956  -3.7939  -3.7784  -3.7579
    -3.7474  -3.7392  -3.7297  -3.7248  -3.7244  -3.7221  -3.7198  -3.7136
    -3.7007  -3.6975  -3.6383  -3.6293  -3.6141  -3.5999  -3.5350  -3.5332
    -3.5269  -3.5231  -3.5203  -3.5183  -3.5048  -3.4960  -3.4635  -3.4561
    -3.4494  -3.4442  -3.4409  -3.4186  -3.4176  -3.3911  -3.3830  -3.3807
    -3.3654  -3.3622  -3.3461  -3.3350  -3.2967  -3.2715  -3.2556  -3.2536
    -3.2497  -3.2450  -3.2354  -3.2245  -3.2206  -3.1854  -3.1536  -3.1283
    -3.1273  -3.1267  -3.1196  -3.1144  -3.1087  -3.1066  -3.1027  -3.0967
    -3.0937  -3.0931  -3.0929  -3.0801  -3.0756  -3.0701  -3.0403  -3.0255
    -2.9768  -2.9591  -2.8608  -2.8101  -2.7892  -2.7809  -2.7720  -2.7701
    -2.7570  -2.7032  -2.6451  -2.6303  -2.6008  -2.5845  -2.5612  -2.5341
    -2.5268  -2.5265  -2.5098  -2.5052  -2.4642  -2.4547  -2.4364  -2.4339
    -2.4236  -2.4159  -2.4065  -2.4036  -2.3580  -2.3446  -2.3418  -2.3334
    -2.3262  -2.3230  -2.3087  -2.3072  -2.3038  -2.2939  -2.2872  -2.2729
    -2.2617  -2.2535  -2.2176  -2.2018  -2.1890  -2.1859  -2.1808  -2.1724
    -2.1640  -2.1564  -2.1555  -2.1541  -2.1471  -2.1344  -2.1298  -2.1163
    -2.0881  -2.0859  -2.0845  -2.0781  -2.0760  -2.0646  -2.0619  -2.0580
    -2.0549  -2.0482  -2.0479  -2.0089  -2.0059  -2.0001  -1.9993  -1.9970
    -1.9944  -1.9855  -1.9823  -1.9578  -1.9524  -1.9479  -1.9347  -1.9304
    -1.9295  -1.9211  -1.9204  -1.9140  -1.9006  -1.8978  -1.8846  -1.8816
    -1.8664  -1.8578  -1.8561  -1.8536  -1.8520  -1.8504  -1.8487  -1.8446
    -1.8435  -1.8202  -1.8190  -1.8159  -1.8141  -1.8073  -1.8037  -1.7899
    -1.7661  -1.7655  -1.7638  -1.7624  -1.7622  -1.7612  -1.7467  -1.7460
    -1.7382  -1.7253  -1.7238  -1.7160  -1.7150  -1.6892  -1.6890  -1.6634
    -1.6548  -1.6519  -1.6196  -1.6017  -1.6013  -1.5790  -1.5771  -1.5625
    -1.5377  -1.5353  -1.5239  -1.5204  -1.4700  -1.4408  -1.4321  -1.4140
    -1.4116  -1.3119  -1.2657  -1.2433  -1.1900  -1.1855  -1.1576  -1.1539
    -1.0844  -1.0754  -1.0728  -1.0229  -1.0197  -1.0141  -0.9981  -0.9917
    -0.9842  -0.9823  -0.9821  -0.9711  -0.9384  -0.9001  -0.8972  -0.8884
    -0.8102  -0.7878  -0.6794  -0.6775  -0.5874  -0.5752  -0.5752  -0.3540
    -0.2417  -0.1487  -0.0446  -0.0037  -0.0035   0.0548   0.0861   0.1243
     0.1268   0.1613   0.1825   0.3637   0.4434   0.6134   0.6754   0.8485

          k = 0.2500-0.6187 0.0000 (128424 PWs)   bands (ev):

   -89.0356 -89.0294 -89.0274 -89.0209 -89.0171 -89.0081 -89.0069 -89.0046
   -89.0041 -89.0031 -89.0021 -88.9985 -88.9981 -88.9973 -88.9960 -88.9940
   -88.9884 -88.9878 -88.9861 -88.9844 -88.9820 -88.9802 -88.9786 -88.9783
   -88.9762 -88.9714 -88.9644 -88.9615 -88.9589 -88.9551 -88.9445 -88.9374
   -88.8874 -88.8821 -88.8765 -88.8702 -88.8628 -88.8590 -88.8544 -88.8534
   -88.8501 -88.8489 -88.8475 -88.8469 -88.8462 -88.8439 -88.8422 -88.8398
   -88.8391 -88.8380 -88.8364 -88.8355 -88.8336 -88.8327 -88.8318 -88.8308
   -88.8296 -88.8277 -88.8269 -88.8229 -88.8176 -88.8119 -88.8066 -88.8039
   -55.2259 -55.2200 -55.2175 -55.2138 -55.2059 -55.2002 -55.1972 -55.1953
   -55.1942 -55.1936 -55.1918 -55.1906 -55.1902 -55.1892 -55.1858 -55.1834
   -55.1813 -55.1754 -55.1746 -55.1738 -55.1724 -55.1695 -55.1690 -55.1670
   -55.1632 -55.1591 -55.1493 -55.1474 -55.1429 -55.1367 -55.1308 -55.1280
   -55.1268 -55.1258 -55.1243 -55.1201 -55.1183 -55.1126 -55.1098 -55.1071
   -55.1070 -55.1018 -55.0988 -55.0978 -55.0920 -55.0886 -55.0870 -55.0856
   -55.0794 -55.0764 -55.0736 -55.0691 -55.0629 -55.0602 -55.0516 -55.0490
   -55.0475 -55.0464 -55.0359 -55.0335 -55.0315 -55.0283 -55.0249 -55.0223
   -55.0194 -55.0174 -55.0154 -55.0122 -55.0046 -55.0030 -55.0015 -55.0010
   -54.9995 -54.9987 -54.9966 -54.9955 -54.9940 -54.9934 -54.9913 -54.9886
   -54.9853 -54.9830 -54.9816 -54.9778 -54.9761 -54.9682 -54.9675 -54.9660
   -54.9644 -54.9634 -54.9606 -54.9588 -54.9530 -54.9448 -54.9395 -54.9373
   -54.9351 -54.9307 -54.9292 -54.9229 -54.9223 -54.9204 -54.9194 -54.9178
   -54.9158 -54.9149 -54.9131 -54.9118 -54.9114 -54.9101 -54.9086 -54.9080
   -54.9054 -54.9013 -54.8997 -54.8983 -54.8961 -54.8949 -54.8946 -54.8936
   -54.8918 -54.8906 -54.8890 -54.8881 -54.8864 -54.8842 -54.8820 -54.8789
   -54.8769 -54.8740 -54.8676 -54.8659 -54.8627 -54.8595 -54.8589 -54.8571
   -54.8549 -54.8510 -54.8496 -54.8486 -54.8451 -54.8422 -54.8414 -54.8398
   -54.8385 -54.8372 -54.8364 -54.8320 -54.8304 -54.8260 -54.8228 -54.8212
   -54.8202 -54.8193 -54.8161 -54.8125 -54.8102 -54.8077 -54.8062 -54.7946
   -54.7928 -54.7903 -54.7886 -54.7870 -54.7805 -54.7800 -54.7787 -54.7777
   -54.7768 -54.7754 -54.7744 -54.7738 -54.7732 -54.7721 -54.7712 -54.7706
   -54.7695 -54.7684 -54.7678 -54.7671 -54.7665 -54.7643 -54.7635 -54.7624
   -54.7596 -54.7589 -54.7556 -54.7538 -54.7522 -54.7499 -54.7488 -54.7424
    -8.4135  -8.1192  -7.8374  -7.4959  -7.0623  -6.9737  -6.7579  -6.5446
    -6.4118  -5.9293  -5.8726  -5.7700  -5.7463  -5.7179  -5.6761  -5.6229
    -5.6023  -5.5215  -5.4891  -5.4396  -5.4220  -5.4141  -5.3677  -5.3151
    -5.2863  -5.2764  -5.2633  -5.2360  -5.2303  -5.2261  -5.2108  -5.1640
    -5.1097  -5.1042  -5.0902  -5.0825  -5.0673  -5.0385  -5.0152  -4.9927
    -4.9872  -4.9775  -4.9583  -4.9258  -4.8637  -4.8436  -4.8226  -4.7995
    -4.7871  -4.7500  -4.7416  -4.7175  -4.6885  -4.6629  -4.6474  -4.6358
    -4.6277  -4.6165  -4.5885  -4.5651  -4.5561  -4.5437  -4.5010  -4.4893
    -4.4703  -4.4549  -4.4458  -4.4397  -4.3933  -4.3499  -4.3400  -4.2841
    -4.2488  -4.1833  -4.1740  -4.1626  -4.1530  -4.1497  -4.1493  -4.1350
    -4.1284  -4.1261  -4.0961  -4.0533  -4.0495  -4.0155  -4.0067  -4.0040
    -3.9978  -3.9877  -3.9777  -3.9489  -3.9469  -3.9392  -3.9343  -3.9310
    -3.9284  -3.9222  -3.9169  -3.9149  -3.9012  -3.8879  -3.8749  -3.8551
    -3.8476  -3.8422  -3.8236  -3.8140  -3.8060  -3.7993  -3.7938  -3.7850
    -3.7711  -3.7589  -3.7360  -3.7125  -3.7027  -3.6983  -3.6953  -3.6817
    -3.6763  -3.6701  -3.6647  -3.6612  -3.6416  -3.6296  -3.6223  -3.6199
    -3.6172  -3.6122  -3.5892  -3.5797  -3.5659  -3.5535  -3.5422  -3.5201
    -3.5068  -3.4551  -3.4032  -3.3848  -3.3748  -3.3727  -3.3690  -3.3496
    -3.3407  -3.3369  -3.3343  -3.3272  -3.3207  -3.3049  -3.3003  -3.2929
    -3.2887  -3.2846  -3.2803  -3.2733  -3.2393  -3.2348  -3.2227  -3.2121
    -3.2066  -3.2019  -3.1609  -3.1221  -3.1021  -3.0764  -3.0644  -3.0387
    -3.0294  -2.9967  -2.9797  -2.9539  -2.9415  -2.9380  -2.8852  -2.8598
    -2.8314  -2.8153  -2.7937  -2.7849  -2.7573  -2.7251  -2.6956  -2.6846
    -2.6645  -2.6392  -2.6291  -2.6259  -2.6209  -2.5999  -2.5888  -2.5760
    -2.5702  -2.5609  -2.5554  -2.5468  -2.5078  -2.4894  -2.4702  -2.4481
    -2.4391  -2.4220  -2.4100  -2.3960  -2.3912  -2.3789  -2.3628  -2.3530
    -2.3473  -2.3346  -2.3229  -2.3170  -2.3109  -2.2978  -2.2893  -2.2818
    -2.2719  -2.2430  -2.2380  -2.2202  -2.2101  -2.1993  -2.1938  -2.1899
    -2.1877  -2.1852  -2.1820  -2.1764  -2.1640  -2.1530  -2.1499  -2.1435
    -2.1337  -2.1105  -2.0883  -2.0831  -2.0763  -2.0651  -2.0566  -2.0486
    -2.0409  -2.0387  -2.0303  -2.0301  -2.0146  -2.0100  -2.0063  -1.9963
    -1.9788  -1.9692  -1.9643  -1.9606  -1.9541  -1.9518  -1.9473  -1.9236
    -1.9149  -1.9116  -1.9070  -1.9049  -1.9005  -1.8905  -1.8762  -1.8698
    -1.8676  -1.8660  -1.8587  -1.8505  -1.8469  -1.8333  -1.8312  -1.8209
    -1.8107  -1.8031  -1.8005  -1.7964  -1.7913  -1.7794  -1.7760  -1.7702
    -1.7687  -1.7632  -1.7553  -1.7527  -1.7506  -1.7383  -1.7190  -1.6940
    -1.6905  -1.6814  -1.6702  -1.6620  -1.6505  -1.6426  -1.6288  -1.6107
    -1.6066  -1.5893  -1.5484  -1.5199  -1.5061  -1.4976  -1.4916  -1.4869
    -1.4421  -1.4120  -1.4067  -1.3978  -1.3551  -1.3465  -1.3350  -1.3283
    -1.3210  -1.2850  -1.2627  -1.2565  -1.2511  -1.2442  -1.2133  -1.1777
    -1.1718  -1.1650  -1.1255  -1.1220  -1.1083  -1.1065  -1.0718  -1.0529
    -1.0401  -1.0335  -1.0141  -1.0063  -0.9988  -0.9877  -0.9789  -0.9544
    -0.9458  -0.9242  -0.9111  -0.8814  -0.7912  -0.7438  -0.6636  -0.5560
    -0.4872  -0.3920  -0.2638  -0.1632  -0.0982  -0.0577  -0.0216   0.0692
     0.3147   0.4044   0.5233   0.6395   0.6936   0.7845   0.8171   0.8956

          k = 0.2500-0.3536 0.0000 (128397 PWs)   bands (ev):

   -89.0357 -89.0318 -89.0240 -89.0231 -89.0115 -89.0084 -89.0083 -89.0079
   -89.0041 -89.0038 -89.0019 -88.9999 -88.9996 -88.9968 -88.9923 -88.9912
   -88.9889 -88.9885 -88.9847 -88.9841 -88.9839 -88.9838 -88.9790 -88.9765
   -88.9762 -88.9703 -88.9658 -88.9613 -88.9578 -88.9555 -88.9446 -88.9372
   -88.8888 -88.8809 -88.8773 -88.8647 -88.8628 -88.8592 -88.8580 -88.8546
   -88.8522 -88.8501 -88.8479 -88.8461 -88.8452 -88.8436 -88.8432 -88.8397
   -88.8395 -88.8364 -88.8363 -88.8349 -88.8336 -88.8322 -88.8309 -88.8287
   -88.8282 -88.8266 -88.8256 -88.8247 -88.8230 -88.8109 -88.8082 -88.8021
   -55.2269 -55.2191 -55.2177 -55.2145 -55.1998 -55.1991 -55.1986 -55.1973
   -55.1966 -55.1952 -55.1947 -55.1942 -55.1887 -55.1859 -55.1847 -55.1819
   -55.1790 -55.1767 -55.1762 -55.1741 -55.1738 -55.1687 -55.1672 -55.1668
   -55.1639 -55.1582 -55.1508 -55.1482 -55.1434 -55.1419 -55.1377 -55.1318
   -55.1301 -55.1282 -55.1260 -55.1223 -55.1202 -55.1197 -55.1172 -55.1148
   -55.1115 -55.1108 -55.1101 -55.1076 -55.0958 -55.0881 -55.0781 -55.0759
   -55.0614 -55.0601 -55.0571 -55.0558 -55.0517 -55.0427 -55.0409 -55.0395
   -55.0369 -55.0361 -55.0353 -55.0348 -55.0343 -55.0333 -55.0259 -55.0236
   -55.0226 -55.0188 -55.0181 -55.0174 -55.0151 -55.0138 -55.0100 -55.0052
   -55.0034 -54.9993 -54.9988 -54.9960 -54.9922 -54.9900 -54.9839 -54.9818
   -54.9769 -54.9749 -54.9742 -54.9705 -54.9679 -54.9675 -54.9665 -54.9648
   -54.9576 -54.9564 -54.9512 -54.9488 -54.9484 -54.9480 -54.9467 -54.9441
   -54.9439 -54.9381 -54.9360 -54.9321 -54.9292 -54.9275 -54.9235 -54.9173
   -54.9140 -54.9139 -54.9132 -54.9114 -54.9110 -54.9105 -54.9084 -54.9069
   -54.9060 -54.9051 -54.9036 -54.9031 -54.8992 -54.8974 -54.8956 -54.8948
   -54.8944 -54.8920 -54.8876 -54.8871 -54.8858 -54.8832 -54.8801 -54.8783
   -54.8775 -54.8752 -54.8737 -54.8717 -54.8668 -54.8600 -54.8579 -54.8554
   -54.8550 -54.8525 -54.8465 -54.8438 -54.8437 -54.8432 -54.8428 -54.8407
   -54.8387 -54.8374 -54.8343 -54.8335 -54.8329 -54.8297 -54.8271 -54.8240
   -54.8185 -54.8166 -54.8150 -54.8138 -54.8126 -54.8119 -54.8109 -54.8096
   -54.7985 -54.7950 -54.7938 -54.7923 -54.7883 -54.7878 -54.7846 -54.7813
   -54.7795 -54.7787 -54.7762 -54.7755 -54.7751 -54.7732 -54.7721 -54.7718
   -54.7679 -54.7674 -54.7659 -54.7575 -54.7558 -54.7544 -54.7533 -54.7521
   -54.7517 -54.7508 -54.7504 -54.7502 -54.7484 -54.7479 -54.7445 -54.7425
    -8.5222  -7.9956  -7.8933  -7.5322  -7.0588  -6.7450  -6.5254  -6.3956
    -6.3902  -6.3157  -6.1031  -6.0948  -5.8183  -5.5575  -5.5545  -5.5525
    -5.5366  -5.4980  -5.4967  -5.4748  -5.4726  -5.4658  -5.4371  -5.4360
    -5.3314  -5.3114  -5.2851  -5.2662  -5.2588  -5.2160  -5.1256  -5.0887
    -5.0746  -5.0730  -5.0447  -5.0423  -5.0138  -5.0102  -5.0052  -4.9985
    -4.9738  -4.9630  -4.9232  -4.9043  -4.8972  -4.8828  -4.8412  -4.8317
    -4.7861  -4.7792  -4.7317  -4.6962  -4.6352  -4.6346  -4.6332  -4.6162
    -4.5935  -4.5916  -4.5886  -4.5861  -4.5845  -4.5752  -4.5318  -4.5149
    -4.4843  -4.4463  -4.4030  -4.3617  -4.3528  -4.2740  -4.2696  -4.2415
    -4.2075  -4.1708  -4.1693  -4.1509  -4.1341  -4.1120  -4.1097  -4.1081
    -4.0951  -4.0920  -4.0863  -4.0773  -4.0703  -4.0657  -4.0580  -4.0383
    -4.0374  -4.0352  -4.0243  -4.0115  -4.0022  -3.9966  -3.9651  -3.9534
    -3.9365  -3.9328  -3.9281  -3.9179  -3.9058  -3.8951  -3.8890  -3.8871
    -3.8779  -3.8747  -3.8447  -3.8008  -3.7796  -3.7770  -3.7716  -3.7652
    -3.7600  -3.7586  -3.7531  -3.7432  -3.7314  -3.7288  -3.7251  -3.7122
    -3.6956  -3.6630  -3.6623  -3.6348  -3.5948  -3.5905  -3.5648  -3.5535
    -3.4969  -3.4957  -3.4951  -3.4546  -3.4484  -3.4431  -3.4261  -3.4209
    -3.4173  -3.4142  -3.4078  -3.4067  -3.4055  -3.4032  -3.3986  -3.3947
    -3.3843  -3.3837  -3.3791  -3.3738  -3.3572  -3.3570  -3.3474  -3.3471
    -3.3122  -3.3041  -3.2951  -3.2563  -3.2270  -3.2174  -3.2074  -3.1968
    -3.1553  -3.1533  -3.1196  -3.0924  -3.0843  -3.0483  -3.0323  -3.0237
    -3.0198  -3.0095  -3.0049  -2.9736  -2.9312  -2.9041  -2.8339  -2.8267
    -2.8247  -2.8131  -2.7958  -2.7766  -2.7593  -2.7267  -2.7133  -2.6984
    -2.6766  -2.6668  -2.6645  -2.6542  -2.6469  -2.6320  -2.6303  -2.6290
    -2.6261  -2.6202  -2.5638  -2.5550  -2.4999  -2.4908  -2.4883  -2.4625
    -2.4622  -2.4137  -2.4057  -2.3995  -2.3962  -2.3926  -2.3846  -2.3822
    -2.3550  -2.3536  -2.3371  -2.3274  -2.2849  -2.2612  -2.2594  -2.2555
    -2.2542  -2.2496  -2.2461  -2.2223  -2.2209  -2.1793  -2.1716  -2.1703
    -2.1660  -2.1611  -2.1408  -2.1384  -2.1352  -2.1299  -2.0973  -2.0934
    -2.0900  -2.0851  -2.0799  -2.0584  -2.0563  -2.0513  -2.0466  -2.0401
    -2.0349  -2.0298  -2.0251  -2.0220  -2.0167  -2.0121  -2.0081  -2.0023
[...]
     1.4188   1.4380   1.4435   1.4455   1.4490   1.4506   1.4651   1.4756
     1.5044   1.5197   1.5425   1.5441   1.5481   1.5628   1.5738   1.5956
     1.6534   1.6640   1.7081   1.7350   1.8004   1.8118   1.8240   1.9863
     2.0363   2.0656   2.1665   2.2298   2.2626   2.2795   2.3537   2.4016

          k =-0.5000-0.3536 0.0000 (128560 PWs)   bands (ev):

   -86.0604 -86.0518 -86.0204 -86.0170 -86.0116 -86.0101 -85.9996 -85.9903
   -85.9842 -85.9837 -85.9818 -85.9815 -85.9799 -85.9779 -85.9758 -85.9749
   -85.9723 -85.9719 -85.9693 -85.9665 -85.9638 -85.9612 -85.9590 -85.9582
   -85.9564 -85.9554 -85.9551 -85.9528 -85.9516 -85.9515 -85.9511 -85.9342
   -85.9328 -85.9311 -85.9309 -85.9285 -85.9277 -85.9265 -85.9264 -85.9244
   -85.9219 -85.9214 -85.9122 -85.9071 -85.9068 -85.9055 -85.9053 -85.9049
   -85.9048 -85.9046 -85.9045 -85.9033 -85.9030 -85.9027 -85.9024 -85.9009
   -85.8943 -85.8844 -85.8838 -85.8833 -85.8827 -85.8819 -85.8811 -85.8797
   -52.3370 -52.3066 -52.2795 -52.2704 -52.2691 -52.2679 -52.2663 -52.2635
   -52.2604 -52.2587 -52.2582 -52.2581 -52.2565 -52.2550 -52.2510 -52.2469
   -52.2463 -52.2448 -52.2444 -52.2433 -52.2399 -52.2390 -52.2346 -52.2305
   -52.2293 -52.2269 -52.2239 -52.2236 -52.2169 -52.2158 -52.2148 -52.2138
   -52.2049 -52.2039 -52.2005 -52.1913 -52.1903 -52.1882 -52.1849 -52.1838
   -52.1824 -52.1808 -52.1791 -52.1791 -52.1780 -52.1776 -52.1770 -52.1765
   -52.1738 -52.1730 -52.1700 -52.1690 -52.1687 -52.1678 -52.1656 -52.1650
   -52.1646 -52.1635 -52.1630 -52.1622 -52.1618 -52.1603 -52.1395 -52.1359
   -52.1254 -52.1235 -52.1209 -52.1166 -52.1149 -52.1124 -52.1091 -52.1032
   -52.0996 -52.0978 -52.0940 -52.0894 -52.0840 -52.0812 -52.0705 -52.0700
   -52.0651 -52.0649 -52.0642 -52.0596 -52.0590 -52.0584 -52.0576 -52.0565
   -52.0541 -52.0520 -52.0511 -52.0507 -52.0504 -52.0486 -52.0432 -52.0388
   -52.0357 -52.0345 -52.0301 -52.0288 -52.0276 -52.0276 -52.0248 -52.0242
   -52.0230 -52.0226 -52.0223 -52.0129 -52.0127 -52.0113 -52.0103 -52.0092
   -52.0076 -52.0042 -51.9988 -51.9971 -51.9929 -51.9918 -51.9917 -51.9858
   -51.9852 -51.9843 -51.9833 -51.9820 -51.9789 -51.9763 -51.9752 -51.9739
   -51.9720 -51.9710 -51.9676 -51.9672 -51.9629 -51.9611 -51.9603 -51.9600
   -51.9590 -51.9584 -51.9575 -51.9566 -51.9548 -51.9542 -51.9538 -51.9529
   -51.9524 -51.9511 -51.9503 -51.9498 -51.9484 -51.9427 -51.9418 -51.9408
   -51.9390 -51.9388 -51.9382 -51.9381 -51.9375 -51.9357 -51.9354 -51.9335
   -51.9324 -51.9323 -51.9316 -51.9305 -51.9296 -51.9289 -51.9285 -51.9281
   -51.9268 -51.9254 -51.9235 -51.9220 -51.9213 -51.9188 -51.9181 -51.9178
   -51.9176 -51.9173 -51.9169 -51.9166 -51.9094 -51.9085 -51.9065 -51.9044
   -51.9034 -51.9027 -51.9024 -51.9007 -51.8991 -51.8978 -51.8965 -51.8961
    -8.0556  -7.9730  -7.4950  -7.3878  -7.0771  -6.6877  -6.3973  -6.1443
    -5.8231  -5.3851  -5.3851  -5.3829  -5.3550  -4.9842  -4.8203  -4.5434
    -4.5427  -4.5385  -4.5332  -4.5321  -4.5129  -4.4500  -4.4034  -4.4006
    -4.4002  -4.3990  -4.2226  -3.9781  -3.9776  -3.9764  -3.9762  -3.9742
    -3.8688  -3.7679  -3.7422  -3.5093  -3.4954  -3.4790  -3.4775  -3.4743
    -3.4216  -3.4129  -3.4036  -3.3782  -3.3744  -3.3706  -3.2874  -3.2085
    -3.2064  -3.1964  -3.1893  -3.1784  -3.1239  -2.9345  -2.9325  -2.9266
    -2.9254  -2.9206  -2.8879  -2.7075  -2.6778  -2.6566  -2.6447  -2.6006
    -2.5994  -2.4968  -2.4871  -2.4145  -2.4136  -2.4120  -2.4099  -2.4044
    -2.3853  -2.3831  -2.3720  -2.3712  -2.3644  -2.2851  -2.2812  -2.2805
    -2.2764  -2.2763  -2.2743  -2.2739  -2.2708  -2.2680  -2.2675  -2.2660
    -2.1668  -2.0670  -2.0584  -2.0432  -2.0423  -1.9168  -1.9156  -1.9139
    -1.9101  -1.9081  -1.9044  -1.8684  -1.8612  -1.8521  -1.8508  -1.8399
    -1.8362  -1.8279  -1.8242  -1.8202  -1.8183  -1.8157  -1.8137  -1.7948
    -1.7899  -1.7815  -1.7795  -1.7782  -1.7747  -1.7746  -1.7722  -1.7700
    -1.7665  -1.7417  -1.7401  -1.7337  -1.7044  -1.6802  -1.6758  -1.6748
    -1.6725  -1.6691  -1.6678  -1.6650  -1.6650  -1.6633  -1.6572  -1.6515
    -1.6088  -1.6009  -1.5808  -1.4743  -1.4616  -1.4055  -1.4043  -1.4011
    -1.3987  -1.3941  -1.3882  -1.3509  -1.3455  -1.3414  -1.3157  -1.2720
    -1.2420  -1.2250  -1.2192  -1.2167  -1.1844  -1.1817  -1.1717  -1.1686
    -1.1619  -1.1496  -1.1451  -1.1246  -1.0351  -0.9757  -0.9698  -0.9688
    -0.9634  -0.9502  -0.9500  -0.9003  -0.8776  -0.8738  -0.8707  -0.8642
    -0.8441  -0.8395  -0.7837  -0.7675  -0.7665  -0.7618  -0.7564  -0.7559
    -0.7475  -0.7406  -0.5326  -0.4970  -0.4893  -0.4230  -0.3910  -0.3782
    -0.3257  -0.3102  -0.1499  -0.1248  -0.1180  -0.0967  -0.0682  -0.0619
     0.0039   0.0114   0.0447   0.0503   0.0544   0.0587   0.1125   0.1247
     0.1317   0.1375   0.1680   0.1755   0.1762   0.1969   0.2578   0.2700
     0.2790   0.2859   0.2871   0.2923   0.3732   0.3758   0.3827   0.3912
     0.3984   0.3985   0.4028   0.4038   0.4142   0.4209   0.4238   0.4277
     0.4946   0.5011   0.5048   0.5058   0.5502   0.5592   0.5618   0.5643
     0.5808   0.5918   0.6233   0.6330   0.6949   0.6972   0.7407   0.7473
     0.8102   0.8185   0.8233   0.8290   0.8322   0.8355   0.8392   0.8399
     0.8459   0.8462   0.8641   0.8827   0.8829   0.8872   0.8875   0.8894
     0.8940   0.8961   0.9019   0.9034   0.9177   0.9260   0.9620   0.9644
     0.9650   0.9692   0.9725   0.9738   0.9908   0.9911   1.0002   1.0010
     1.0035   1.0036   1.0249   1.0351   1.0389   1.0393   1.0587   1.0642
     1.0720   1.0728   1.0756   1.0779   1.0795   1.0819   1.0844   1.0849
     1.1145   1.1161   1.1779   1.1864   1.2064   1.2104   1.2137   1.2157
     1.2194   1.2197   1.2539   1.2595   1.2610   1.2693   1.2735   1.2736
     1.2744   1.2746   1.2828   1.2836   1.2885   1.2893   1.2894   1.2897
     1.2913   1.2986   1.3208   1.3258   1.3456   1.3462   1.3479   1.3507
     1.3652   1.3678   1.3706   1.3752   1.3775   1.3791   1.4547   1.4569
     1.4601   1.4662   1.4698   1.4707   1.5281   1.5316   1.6722   1.6826
     1.7648   1.8801   1.8843   1.8913   1.8941   1.8947   1.9100   1.9452
     1.9545   1.9573   1.9605   1.9695   1.9799   1.9834   1.9914   1.9961

     the Fermi energy is    -0.8741 ev

!    total energy              =  -21073.52181454 Ry
     estimated scf accuracy    <          6.2E-11 Ry
     smearing contrib. (-TS)   =       0.00174562 Ry
     internal energy E=F+TS    =  -21073.52356015 Ry

     The total energy is F=E-TS. E is the sum of the following terms:
     one-electron contribution = -737521.24611086 Ry
     hartree contribution      =  368722.20166578 Ry
     xc contribution           =   -2228.91958965 Ry
     ewald contribution        =  354829.24286236 Ry
     Dispersion Correction     =      -1.37595671 Ry
     one-center paw contrib.   =   -4873.42643108 Ry

     total magnetization       =   162.92 Bohr mag/cell
     absolute magnetization    =   169.55 Bohr mag/cell

     convergence has been achieved in  16 iterations

     negative rho (up, down):  1.148E-02 1.550E-02

     Forces acting on atoms (cartesian axes, Ry/au):

     atom    1 type  1   force =     0.00016336    0.00016586    0.00893748
     atom    2 type  1   force =     0.00003784   -0.00015401   -0.00794272
     atom    3 type  1   force =    -0.00007540   -0.00005270    0.00851537
     atom    4 type  1   force =    -0.00017238   -0.00022468   -0.00888859
     atom    5 type  1   force =     0.00000204    0.00000313   -0.00002866
     atom    6 type  1   force =     0.00002475    0.00001584   -0.00000321
     atom    7 type  1   force =     0.00001788   -0.00000877   -0.00002363
     atom    8 type  1   force =     0.00000942   -0.00000577    0.00000753
     atom    9 type  1   force =     0.00005745    0.00004433    0.00876949
     atom   10 type  1   force =    -0.00004570   -0.00005737    0.00875977
     atom   11 type  1   force =     0.00027486    0.00005512   -0.00923415
     atom   12 type  1   force =    -0.00000998    0.00009742   -0.00850981
     atom   13 type  1   force =     0.00000476    0.00000131   -0.00001956
     atom   14 type  1   force =    -0.00000312   -0.00000739   -0.00003165
     atom   15 type  1   force =    -0.00002225   -0.00000698    0.00001070
     atom   16 type  1   force =     0.00000616   -0.00000170    0.00002352
     atom   17 type  1   force =    -0.00005810   -0.00005851    0.00846595
     atom   18 type  1   force =    -0.00025020   -0.00006331   -0.00888210
     atom   19 type  1   force =     0.00001394    0.00018745    0.00859747
     atom   20 type  1   force =     0.00034183   -0.00056947   -0.00920141
     atom   21 type  1   force =     0.00000544    0.00001451   -0.00002861
     atom   22 type  1   force =     0.00000919   -0.00000225   -0.00000248
     atom   23 type  1   force =    -0.00000470   -0.00000182   -0.00004818
     atom   24 type  1   force =     0.00000135    0.00004305    0.00003895
     atom   25 type  1   force =     0.00013331    0.00010655    0.00847459
     atom   26 type  1   force =    -0.00024891    0.00011166    0.00898443
     atom   27 type  1   force =    -0.00021510   -0.00024193   -0.00865965
     atom   28 type  1   force =    -0.00008232   -0.00014608   -0.00877792
     atom   29 type  1   force =    -0.00000139    0.00001262   -0.00003971
     atom   30 type  1   force =    -0.00000152    0.00001940   -0.00003479
     atom   31 type  1   force =     0.00003820    0.00001298    0.00004052
     atom   32 type  1   force =     0.00004757    0.00004373   -0.00002020
     atom   33 type  1   force =    -0.00001555   -0.00037247    0.00902034
     atom   34 type  1   force =     0.00029520    0.00032015   -0.00907747
     atom   35 type  1   force =     0.00021761    0.00009813    0.00901046
     atom   36 type  1   force =    -0.00024141    0.00023213   -0.00791769
     atom   37 type  1   force =     0.00001002    0.00001165   -0.00003872
     atom   38 type  1   force =    -0.00003208   -0.00001387   -0.00000310
     atom   39 type  1   force =    -0.00000094   -0.00000360   -0.00003366
     atom   40 type  1   force =     0.00002614    0.00001421   -0.00003213
     atom   41 type  1   force =    -0.00000004    0.00000712    0.00789133
     atom   42 type  1   force =     0.00001930   -0.00027501    0.00905751
     atom   43 type  1   force =    -0.00018716   -0.00003308   -0.00869377
     atom   44 type  1   force =    -0.00022126   -0.00003606   -0.00877245
     atom   45 type  1   force =    -0.00000073    0.00000575   -0.00003817
     atom   46 type  1   force =     0.00002838   -0.00002347   -0.00003054
     atom   47 type  1   force =     0.00001531    0.00000530    0.00004043
     atom   48 type  1   force =     0.00005986    0.00002130   -0.00003135
     atom   49 type  1   force =     0.00018519   -0.00005788    0.00866859
     atom   50 type  1   force =    -0.00034678    0.00040309   -0.00919532
     atom   51 type  1   force =    -0.00034393    0.00010135    0.00897189
     atom   52 type  1   force =     0.00041150    0.00020346   -0.00907912
     atom   53 type  1   force =     0.00000319   -0.00000528   -0.00003687
     atom   54 type  1   force =     0.00003973   -0.00001134    0.00007897
     atom   55 type  1   force =     0.00001509    0.00000084   -0.00003162
     atom   56 type  1   force =    -0.00001383   -0.00003092    0.00002064
     atom   57 type  1   force =     0.00004153    0.00005995    0.00876904
     atom   58 type  1   force =    -0.00009979   -0.00008970    0.00873538
     atom   59 type  1   force =     0.00017135    0.00028932   -0.00923232
     atom   60 type  1   force =    -0.00000056   -0.00008536   -0.00909303
     atom   61 type  1   force =     0.00000737   -0.00000488   -0.00001967
     atom   62 type  1   force =     0.00000096    0.00000144   -0.00001858
     atom   63 type  1   force =    -0.00001662   -0.00002123    0.00000319
     atom   64 type  1   force =    -0.00003691   -0.00003193    0.00000569
     atom   65 type  2   force =     0.00001159   -0.00001133    0.00018160

     Total force =     0.000299     Total SCF correction =     0.000037
     SCF correction compared to forces is large: reduce conv_thr to get better values
     Energy error            =      1.3E-07
     Gradient error          =      1.8E-04

     bfgs converged in  12 scf cycles and  11 bfgs steps
     (criteria: energy <  7.3E-07 Ry, force <  3.9E-04 Ry/Bohr)

     End of BFGS Geometry Optimization

     Final energy   =  -21073.5218145368 Ry

     File ./Fe_H_paper_480c_ESM_p5.bfgs deleted, as requested
Begin final coordinates

ATOMIC_POSITIONS (angstrom)
Fe            1.6549129530        1.1702001330        0.0000000000    0   0   0
Fe            0.0000000000        0.0000000000        2.0269842320    0   0   0
Fe            4.9647388580        3.5106003990        0.0000000000    0   0   0
Fe            3.3098259060        2.3404002660        2.0269842320    0   0   0
Fe            1.6514371113        1.1685923382        4.0324170634
Fe            3.3047213553        9.3689576494        6.0212859747
Fe            4.9629882060        3.5094670789        4.0348708964
Fe            3.3007072600        2.3414819593        6.0138008505
Fe            2.4823638580        3.5106003990        0.0000000000    0   0   0
Fe            4.1372879530        1.1702001330        0.0000000000    0   0   0
Fe            0.8274509060        2.3404002660        2.0269842320    0   0   0
Fe            2.4823750000        0.0000000000        2.0269842320    0   0   0
Fe            2.4813586396        3.5111527186        4.0334508935
Fe            4.1352617361        1.1688856643        4.0332065837
Fe            0.8272158043        2.3427995978        6.0171665984
Fe            2.4775970859       -0.0026379750        6.0231540787
Fe            6.6196629530        1.1702001330        0.0000000000    0   0   0
Fe            4.9647500000        0.0000000000        2.0269842320    0   0   0
Fe            9.9294888580        3.5106003990        0.0000000000    0   0   0
Fe            8.2745759060        2.3404002660        2.0269842320    0   0   0
Fe            6.6180528337        1.1686871430        4.0348521369
Fe            4.9620671808       -0.0089748437        6.0139253701
Fe            9.9312243833        3.5122994627        4.0310782385
Fe            8.2754060432        2.3423012592        6.0215182453
Fe            7.4471138580        3.5106003990        0.0000000000    0   0   0
Fe            9.1020379530        1.1702001330        0.0000000000    0   0   0
Fe            5.7922009060        2.3404002660        2.0269842320    0   0   0
Fe            7.4471250000        0.0000000000        2.0269842320    0   0   0
Fe            7.4457002177        3.5091793997        4.0261511363
Fe            9.0979132012        1.1731345407        4.0381093191
Fe            5.7761303356        2.3287171744        6.0172150562
Fe           10.7601981317        9.3661322435        6.0193007778
Fe            3.3098147640        5.8510006640        0.0000000000    0   0   0
Fe            1.6549018110        4.6808005310        2.0269842320    0   0   0
Fe            6.6196406700        8.1914009300        0.0000000000    0   0   0
Fe            4.9647277170        7.0212007970        2.0269842320    0   0   0
Fe            3.3119149032        5.8522914412        4.0332856576
Fe           11.5831546132        4.6865397814        6.0170277966
Fe            6.6166285609        8.1891257590        4.0324293586
Fe            4.9692535733        7.0150656157        6.0213989767
Fe            4.1372656700        8.1914009300        0.0000000000    0   0   0
Fe            5.7921897640        5.8510006640        0.0000000000    0   0   0
Fe            2.4823527170        7.0212007970        2.0269842320    0   0   0
Fe            4.1372768110        4.6808005310        2.0269842320    0   0   0
Fe            4.1364729489        8.1913948667        4.0347009297
Fe            5.7934284853        5.8463908745        4.0382711034
Fe           12.4163871532        7.0250632606        6.0194800541
Fe            4.1430271273        4.6828836228        6.0190451577
Fe            8.2745647640        5.8510006640        0.0000000000    0   0   0
Fe            6.6196518110        4.6808005310        2.0269842320    0   0   0
Fe           11.5843906700        8.1914009300        0.0000000000    0   0   0
Fe            9.9294777170        7.0212007970        2.0269842320    0   0   0
Fe            8.2767945935        5.8518896876        4.0311099614
Fe            6.6221208020        4.6804011331        6.0210936235
Fe           11.5859617496        8.1933848896        4.0332362256
Fe            9.9340769905        7.0180409547        6.0169414881
Fe            9.1020156700        8.1914009300        0.0000000000    0   0   0
Fe           10.7569397640        5.8510006640        0.0000000000    0   0   0
Fe            7.4471027170        7.0212007970        2.0269842320    0   0   0
Fe            9.1020268110        4.6808005310        2.0269842320    0   0   0
Fe            9.1019797936        8.1903755700        4.0334642920
Fe           10.7582651388        5.8520209107        4.0340906264
Fe            7.4487643556        7.0201639104        6.0170500271
Fe            9.1067654699        4.6838372393        6.0127173947
H             7.8683031506        3.8083355421        6.9541544707
End final coordinates



     Writing output data file ./Fe_H_paper_480c_ESM_p5.save/

     init_run     :     28.25s CPU     29.24s WALL (       1 calls)
     electrons    :  29439.03s CPU  29953.09s WALL (      12 calls)
     update_pot   :     44.92s CPU     45.21s WALL (      11 calls)
     forces       :    197.28s CPU    200.92s WALL (      12 calls)

     Called by init_run:
     wfcinit      :     19.93s CPU     20.64s WALL (       1 calls)
     potinit      :      2.32s CPU      2.39s WALL (       1 calls)
     hinit0       :      3.92s CPU      4.02s WALL (       1 calls)

     Called by electrons:
     c_bands      :  24170.31s CPU  24584.79s WALL (     309 calls)
     sum_band     :   1472.24s CPU   1526.82s WALL (     309 calls)
     v_of_rho     :    261.17s CPU    264.11s WALL (     311 calls)
     newd         :     51.53s CPU     52.06s WALL (     311 calls)
     PAW_pot      :     60.71s CPU     61.26s WALL (     322 calls)
     mix_rho      :   1160.66s CPU   1181.80s WALL (     309 calls)

     Called by c_bands:
     init_us_2    :    140.65s CPU    148.05s WALL (    1926 calls)
     cegterg      :  21051.80s CPU  21343.41s WALL (     927 calls)

     Called by *egterg:
     cdiaghg      :   5830.89s CPU   5871.46s WALL (    6924 calls)
     h_psi        :   6648.50s CPU   6756.52s WALL (    6990 calls)
     s_psi        :   1740.04s CPU   1752.11s WALL (    6990 calls)
     g_psi        :     30.19s CPU     30.67s WALL (    6060 calls)

     Called by h_psi:
     h_psi:calbec :   1899.99s CPU   1912.94s WALL (    6990 calls)
     vloc_psi     :   2957.44s CPU   2990.58s WALL (    6990 calls)
     add_vuspsi   :   1732.19s CPU   1743.81s WALL (    6990 calls)

     General routines
     calbec       :   2719.67s CPU   2737.94s WALL (    8094 calls)
     fft          :    175.65s CPU    177.45s WALL (    7962 calls)
     ffts         :    524.58s CPU    529.27s WALL (  197753 calls)
     fftw         :   3243.83s CPU   3279.73s WALL ( 3604558 calls)
     interpolate  :     20.61s CPU     20.82s WALL (     622 calls)
     davcio       :      1.13s CPU    137.81s WALL (    8402 calls)

     Parallel routines
     fft_scatt_xy :    444.62s CPU    449.16s WALL ( 3810273 calls)
     fft_scatt_yz :   1870.02s CPU   1891.04s WALL ( 3810273 calls)

     PWSCF        :      8h16m CPU      8h24m WALL


   This run was terminated on:   3:49:38  17Jun2022            

=------------------------------------------------------------------------------=
   JOB DONE.
=------------------------------------------------------------------------------=
