
     Program PWSCF v.6.4.1 starts on  3Jun2022 at 16:26: 5 

     This program is part of the open-source Quantum ESPRESSO suite
     for quantum simulation of materials; please cite
         "P. Giannozzi et al., J. Phys.:Condens. Matter 21 395502 (2009);
         "P. Giannozzi et al., J. Phys.:Condens. Matter 29 465901 (2017);
          URL http://www.quantum-espresso.org", 
     in publications or presentations arising from this work. More details at
     http://www.quantum-espresso.org/quote

     Parallel version (MPI), running on   160 processors

     MPI processes distributed on     8 nodes
     K-points division:     npool     =       8
     R & G space division:  proc/nbgrp/npool/nimage =      20
     Waiting for input...
     Reading input from standard input
Warning: card &CELL ignored
Warning: card / ignored

     Current dimensions of program PWSCF are:
     Max number of different atomic species (ntypx) = 10
     Max number of k-points (npk) =  40000
     Max angular momentum in pseudopotentials (lmaxx) =  3

     Atomic positions and unit cell read from directory:
     ./Fe_H_paper_480c.save/


     IMPORTANT: XC functional enforced from input :
     Exchange-correlation      = PBE ( 1  4  3  4 0 0)
     Any further DFT definition will be discarded
     Please, verify this is what you really want

               file Fe.pbe-spn-kjpaw_psl.0.2.1.UPF: wavefunction(s)  3D renormalized

     -------------------------------------------------
     Parameters for Dispersion (Grimme-D2) Correction:
     -------------------------------------------------
       atom      VdW radius       C_6     

        Fe         2.952        374.666
        H          1.892          4.857

     Subspace diagonalization in iterative solution of the eigenvalue problem:
     one sub-group per band group will be used
     scalapack distributed-memory algorithm (size of sub-group:  3*  3 procs)


     Parallelization info
     --------------------
     sticks:   dense  smooth     PW     G-vecs:    dense   smooth      PW
     Min         634     317     83               145278    51361    6989
     Max         635     318     84               145287    51370    7000
     Sum       12685    6351   1677              2905599  1027285  139897



     bravais-lattice index     =            0
     lattice parameter (alat)  =      18.7640  a.u.
     unit-cell volume          =   16360.3163 (a.u.)^3
     number of atoms/cell      =           65
     number of atomic types    =            2
     number of electrons       =      1025.00
     number of Kohn-Sham states=          616
     kinetic-energy cutoff     =      60.0000  Ry
     charge density cutoff     =     480.0000  Ry
     convergence threshold     =      1.0E-08
     mixing beta               =       0.2000
     number of iterations used =           10  local-TF  mixing
     Exchange-correlation      = PBE ( 1  4  3  4 0 0)
     nstep                     =           50


     celldm(1)=  18.764036  celldm(2)=   0.000000  celldm(3)=   0.000000
     celldm(4)=   0.000000  celldm(5)=   0.000000  celldm(6)=   0.000000

     crystal axes: (cart. coord. in units of alat)
               a(1) = (   1.000000   0.000000   0.000000 )  
               a(2) = (   0.333330   0.942807   0.000000 )  
               a(3) = (   0.000000   0.000000   2.626577 )  

     reciprocal axes: (cart. coord. in units 2 pi/alat)
               b(1) = (  1.000000 -0.353551  0.000000 )  
               b(2) = (  0.000000  1.060663  0.000000 )  
               b(3) = (  0.000000  0.000000  0.380724 )  


     PseudoPot. # 1 for Fe read from file:
     ../../SSSP/Fe.pbe-spn-kjpaw_psl.0.2.1.UPF
     MD5 check sum: e86618425769142926afa95317d90200
     Pseudo is Projector augmented-wave + core cor, Zval = 16.0
     Generated using "atomic" code by A. Dal Corso v.5.0.99 svn rev. 10869
     Shape of augmentation charge: PSQ
     Using radial grid of 1191 points,  6 beta functions with: 
                l(1) =   0
                l(2) =   0
                l(3) =   1
                l(4) =   1
                l(5) =   2
                l(6) =   2
     Q(r) pseudized with 0 coefficients 


     PseudoPot. # 2 for H  read from file:
     ../../SSSP/H.pbe-rrkjus_psl.1.0.0.UPF
     MD5 check sum: f52b6d4d1c606e5624b1dc7b2218f220
     Pseudo is Ultrasoft, Zval =  1.0
     Generated using "atomic" code by A. Dal Corso v.5.1
     Using radial grid of  929 points,  2 beta functions with: 
                l(1) =   0
                l(2) =   0
     Q(r) pseudized with 0 coefficients 


     atomic species   valence    mass     pseudopotential
        Fe            16.00    55.84500     Fe( 1.00)
        H              1.00     1.00800     H ( 1.00)

     Starting magnetic structure 
     atomic species   magnetization
        Fe           0.100
        H            0.100

     No symmetry found



   Cartesian axes

     site n.     atom                  positions (alat units)
         1           Fe  tau(   1) = (   0.1666663   0.1178509   0.0000000  )
         2           Fe  tau(   2) = (   0.0000000   0.0000000   0.2041376  )
         3           Fe  tau(   3) = (   0.4999989   0.3535526   0.0000000  )
         4           Fe  tau(   4) = (   0.3333326   0.2357017   0.2041376  )
         5           Fe  tau(   5) = (   0.1658204   0.1170253   0.4057049  )
         6           Fe  tau(   6) = (   0.3324311   0.9422817   0.6054703  )
         7           Fe  tau(   7) = (   0.4991949   0.3528471   0.4060511  )
         8           Fe  tau(   8) = (   0.3315069   0.2351257   0.6044901  )
         9           Fe  tau(   9) = (   0.2499989   0.3535526   0.0000000  )
        10           Fe  tau(  10) = (   0.4166663   0.1178509   0.0000000  )
        11           Fe  tau(  11) = (   0.0833326   0.2357017   0.2041376  )
        12           Fe  tau(  12) = (   0.2500000   0.0000000   0.2041376  )
        13           Fe  tau(  13) = (   0.2492793   0.3529933   0.4056815  )
        14           Fe  tau(  14) = (   0.4159650   0.1170241   0.4058032  )
        15           Fe  tau(  15) = (   0.0823297   0.2346671   0.6051220  )
        16           Fe  tau(  16) = (   0.2491314  -0.0010924   0.6057404  )
        17           Fe  tau(  17) = (   0.6666663   0.1178509   0.0000000  )
        18           Fe  tau(  18) = (   0.5000000   0.0000000   0.2041376  )
        19           Fe  tau(  19) = (   0.9999989   0.3535526   0.0000000  )
        20           Fe  tau(  20) = (   0.8333326   0.2357017   0.2041376  )
        21           Fe  tau(  21) = (   0.6660049   0.1168074   0.4060022  )
        22           Fe  tau(  22) = (   0.4992777  -0.0023649   0.6045342  )
        23           Fe  tau(  23) = (   0.9995215   0.3529088   0.4056249  )
        24           Fe  tau(  24) = (   0.8323547   0.2348314   0.6055419  )
        25           Fe  tau(  25) = (   0.7499989   0.3535526   0.0000000  )
        26           Fe  tau(  26) = (   0.9166663   0.1178509   0.0000000  )
        27           Fe  tau(  27) = (   0.5833326   0.2357017   0.2041376  )
        28           Fe  tau(  28) = (   0.7500000   0.0000000   0.2041376  )
        29           Fe  tau(  29) = (   0.7492071   0.3526183   0.4049274  )
        30           Fe  tau(  30) = (   0.9157784   0.1172963   0.4063870  )
        31           Fe  tau(  31) = (   0.5807775   0.2332012   0.6049402  )
        32           Fe  tau(  32) = (   1.0833227   0.9417683   0.6050674  )
        33           Fe  tau(  33) = (   0.3333315   0.5892543   0.0000000  )
        34           Fe  tau(  34) = (   0.1666652   0.4714034   0.2041376  )
        35           Fe  tau(  35) = (   0.6666640   0.8249560   0.0000000  )
        36           Fe  tau(  36) = (   0.4999978   0.7071052   0.2041376  )
        37           Fe  tau(  37) = (   0.3329336   0.5887609   0.4057052  )
        38           Fe  tau(  38) = (   1.1654840   0.4707357   0.6048370  )
        39           Fe  tau(  39) = (   0.6658986   0.8239904   0.4057790  )
        40           Fe  tau(  40) = (   0.4996105   0.7058341   0.6055422  )
        41           Fe  tau(  41) = (   0.4166640   0.8249560   0.0000000  )
        42           Fe  tau(  42) = (   0.5833315   0.5892543   0.0000000  )
        43           Fe  tau(  43) = (   0.2499978   0.7071052   0.2041376  )
        44           Fe  tau(  44) = (   0.4166652   0.4714034   0.2041376  )
        45           Fe  tau(  45) = (   0.4161278   0.8242953   0.4059745  )
        46           Fe  tau(  46) = (   0.5828596   0.5881674   0.4065408  )
        47           Fe  tau(  47) = (   1.2494842   0.7063170   0.6052170  )
        48           Fe  tau(  48) = (   0.4163929   0.4710391   0.6051521  )
        49           Fe  tau(  49) = (   0.8333315   0.5892543   0.0000000  )
        50           Fe  tau(  50) = (   0.6666652   0.4714034   0.2041376  )
        51           Fe  tau(  51) = (   1.1666640   0.8249560   0.0000000  )
        52           Fe  tau(  52) = (   0.9999978   0.7071052   0.2041376  )
        53           Fe  tau(  53) = (   0.8328499   0.5885583   0.4057161  )
        54           Fe  tau(  54) = (   0.6663180   0.4697300   0.6057647  )
        55           Fe  tau(  55) = (   1.1663201   0.8243223   0.4056401  )
        56           Fe  tau(  56) = (   0.9993732   0.7053540   0.6049239  )
        57           Fe  tau(  57) = (   0.9166640   0.8249560   0.0000000  )
        58           Fe  tau(  58) = (   1.0833315   0.5892543   0.0000000  )
        59           Fe  tau(  59) = (   0.7499978   0.7071052   0.2041376  )
        60           Fe  tau(  60) = (   0.9166652   0.4714034   0.2041376  )
        61           Fe  tau(  61) = (   0.9161489   0.8239705   0.4057154  )
        62           Fe  tau(  62) = (   1.0827615   0.5885621   0.4058206  )
        63           Fe  tau(  63) = (   0.7490832   0.7056470   0.6053428  )
        64           Fe  tau(  64) = (   0.9160038   0.4701995   0.6047126  )
        65           H   tau(  65) = (   0.7914842   0.3816294   0.6996934  )

     number of k points=    10  Methfessel-Paxton smearing, width (Ry)=  0.0100
                       cart. coord. in units 2pi/alat
        k(    1) = (   0.0000000   0.0000000   0.0000000), wk =   0.0625000
        k(    2) = (   0.0000000   0.2651656   0.0000000), wk =   0.1250000
        k(    3) = (   0.0000000  -0.5303313   0.0000000), wk =   0.0625000
        k(    4) = (   0.2500000  -0.0883878   0.0000000), wk =   0.1250000
        k(    5) = (   0.2500000   0.1767779   0.0000000), wk =   0.1250000
        k(    6) = (   0.2500000  -0.6187190   0.0000000), wk =   0.1250000
        k(    7) = (   0.2500000  -0.3535534   0.0000000), wk =   0.1250000
        k(    8) = (  -0.5000000   0.1767755   0.0000000), wk =   0.0625000
        k(    9) = (  -0.5000000   0.4419412   0.0000000), wk =   0.1250000
        k(   10) = (  -0.5000000  -0.3535558   0.0000000), wk =   0.0625000

     Dense  grid:  2905599 G-vectors     FFT dimensions: ( 135, 135, 360)

     Smooth grid:  1027285 G-vectors     FFT dimensions: (  96,  96, 243)

     Estimated max dynamical RAM per process >    1022.28 MB

     Estimated total dynamical RAM >     159.73 GB
     Generating pointlists ...
     new r_m :   0.0739 (alat units)  1.3864 (a.u.) for type    1
     new r_m :   0.0739 (alat units)  1.3864 (a.u.) for type    2

     Check: negative core charge=   -0.000039

     The initial density is read from file :
     ./Fe_H_paper_480c.save/charge-density


     negative rho (up, down):  2.540E-02 4.655E-02
     Starting wfcs from file
     Checking if some PAW data can be deallocated... 

     total cpu time spent up to now is       24.2 secs

     Self-consistent Calculation

     iteration #  1     ecut=    60.00 Ry     beta= 0.20
     Davidson diagonalization with overlap
     ethr =  1.00E-04,  avg # of iterations =  2.0

     Threshold (ethr) on eigenvalues was too large:
     Diagonalizing with lowered threshold

     Davidson diagonalization with overlap
     ethr =  1.12E-08,  avg # of iterations =  4.0

     negative rho (up, down):  2.540E-02 3.940E-02

     total cpu time spent up to now is      545.5 secs

     total energy              =  -21073.44625640 Ry
     Harris-Foulkes estimate   =  -21073.44616786 Ry
     estimated scf accuracy    <       0.00009836 Ry

     total magnetization       =   162.61 Bohr mag/cell
     absolute magnetization    =   169.07 Bohr mag/cell

     iteration #  2     ecut=    60.00 Ry     beta= 0.20
     Davidson diagonalization with overlap
     ethr =  9.60E-09,  avg # of iterations =  1.0

     negative rho (up, down):  2.540E-02 3.404E-02

     total cpu time spent up to now is      675.2 secs

     total energy              =  -21073.44631462 Ry
     Harris-Foulkes estimate   =  -21073.44625698 Ry
     estimated scf accuracy    <       0.00005078 Ry

     total magnetization       =   162.60 Bohr mag/cell
     absolute magnetization    =   169.07 Bohr mag/cell

     iteration #  3     ecut=    60.00 Ry     beta= 0.20
     Davidson diagonalization with overlap
     ethr =  4.95E-09,  avg # of iterations =  1.0

     negative rho (up, down):  2.541E-02 3.326E-02

     total cpu time spent up to now is      801.8 secs

     total energy              =  -21073.44631649 Ry
     Harris-Foulkes estimate   =  -21073.44631486 Ry
     estimated scf accuracy    <       0.00002016 Ry

     total magnetization       =   162.60 Bohr mag/cell
     absolute magnetization    =   169.06 Bohr mag/cell

     iteration #  4     ecut=    60.00 Ry     beta= 0.20
     Davidson diagonalization with overlap
     ethr =  1.97E-09,  avg # of iterations =  2.0

     negative rho (up, down):  2.540E-02 2.925E-02

     total cpu time spent up to now is      938.8 secs

     total energy              =  -21073.44636247 Ry
     Harris-Foulkes estimate   =  -21073.44631706 Ry
     estimated scf accuracy    <       0.00000024 Ry

     total magnetization       =   162.60 Bohr mag/cell
     absolute magnetization    =   169.06 Bohr mag/cell

     iteration #  5     ecut=    60.00 Ry     beta= 0.20
     Davidson diagonalization with overlap
     ethr =  2.34E-11,  avg # of iterations =  4.0

     negative rho (up, down):  2.540E-02 2.597E-02

     total cpu time spent up to now is     1313.2 secs

     total energy              =  -21073.44639678 Ry
     Harris-Foulkes estimate   =  -21073.44636267 Ry
     estimated scf accuracy    <       0.00000013 Ry

     total magnetization       =   162.60 Bohr mag/cell
     absolute magnetization    =   169.06 Bohr mag/cell

     iteration #  6     ecut=    60.00 Ry     beta= 0.20
     Davidson diagonalization with overlap
     ethr =  1.31E-11,  avg # of iterations =  2.0

     negative rho (up, down):  2.540E-02 2.355E-02

     total cpu time spent up to now is     1453.5 secs

     total energy              =  -21073.44642097 Ry
     Harris-Foulkes estimate   =  -21073.44639678 Ry
     estimated scf accuracy    <       0.00000008 Ry

     total magnetization       =   162.60 Bohr mag/cell
     absolute magnetization    =   169.06 Bohr mag/cell

     iteration #  7     ecut=    60.00 Ry     beta= 0.20
     Davidson diagonalization with overlap
     ethr =  7.96E-12,  avg # of iterations =  2.3

     negative rho (up, down):  2.540E-02 2.181E-02

     total cpu time spent up to now is     1616.4 secs

     total energy              =  -21073.44643710 Ry
     Harris-Foulkes estimate   =  -21073.44642098 Ry
     estimated scf accuracy    <       0.00000002 Ry

     total magnetization       =   162.60 Bohr mag/cell
     absolute magnetization    =   169.06 Bohr mag/cell

     iteration #  8     ecut=    60.00 Ry     beta= 0.20
     Davidson diagonalization with overlap
     ethr =  1.65E-12,  avg # of iterations =  3.5

     negative rho (up, down):  2.540E-02 1.745E-02

     Magnetic moment per site:
     atom:    1    charge:   12.6033    magn:    2.3593    constr:    0.0000
     atom:    2    charge:   12.5918    magn:    2.2112    constr:    0.0000
     atom:    3    charge:   12.6033    magn:    2.3623    constr:    0.0000
     atom:    4    charge:   12.5920    magn:    2.1902    constr:    0.0000
     atom:    5    charge:   12.5937    magn:    2.1788    constr:    0.0000
     atom:    6    charge:   12.6049    magn:    2.3454    constr:    0.0000
     atom:    7    charge:   12.5942    magn:    2.1836    constr:    0.0000
     atom:    8    charge:   12.6060    magn:    2.3386    constr:    0.0000
     atom:    9    charge:   12.6032    magn:    2.3570    constr:    0.0000
     atom:   10    charge:   12.6032    magn:    2.3593    constr:    0.0000
     atom:   11    charge:   12.5923    magn:    2.2024    constr:    0.0000
     atom:   12    charge:   12.5919    magn:    2.1901    constr:    0.0000
     atom:   13    charge:   12.5945    magn:    2.1741    constr:    0.0000
     atom:   14    charge:   12.5935    magn:    2.1744    constr:    0.0000
     atom:   15    charge:   12.6053    magn:    2.3500    constr:    0.0000
     atom:   16    charge:   12.6053    magn:    2.3518    constr:    0.0000
     atom:   17    charge:   12.6031    magn:    2.3623    constr:    0.0000
     atom:   18    charge:   12.5920    magn:    2.1903    constr:    0.0000
     atom:   19    charge:   12.6031    magn:    2.3624    constr:    0.0000
     atom:   20    charge:   12.5922    magn:    2.1984    constr:    0.0000
     atom:   21    charge:   12.5942    magn:    2.1831    constr:    0.0000
     atom:   22    charge:   12.6061    magn:    2.3389    constr:    0.0000
     atom:   23    charge:   12.5938    magn:    2.1967    constr:    0.0000
     atom:   24    charge:   12.6049    magn:    2.2136    constr:    0.0000
     atom:   25    charge:   12.6032    magn:    2.3641    constr:    0.0000
     atom:   26    charge:   12.6032    magn:    2.3594    constr:    0.0000
     atom:   27    charge:   12.5921    magn:    2.2026    constr:    0.0000
     atom:   28    charge:   12.5921    magn:    2.1978    constr:    0.0000
     atom:   29    charge:   12.5948    magn:    2.2030    constr:    0.0000
     atom:   30    charge:   12.5933    magn:    2.1653    constr:    0.0000
     atom:   31    charge:   12.6060    magn:    2.3806    constr:    0.0000
     atom:   32    charge:   12.6047    magn:    2.3487    constr:    0.0000
     atom:   33    charge:   12.6032    magn:    2.3585    constr:    0.0000
     atom:   34    charge:   12.5921    magn:    2.1933    constr:    0.0000
     atom:   35    charge:   12.6033    magn:    2.3595    constr:    0.0000
     atom:   36    charge:   12.5920    magn:    2.2111    constr:    0.0000
     atom:   37    charge:   12.5942    magn:    2.1751    constr:    0.0000
     atom:   38    charge:   12.6044    magn:    2.3520    constr:    0.0000
     atom:   39    charge:   12.5936    magn:    2.1794    constr:    0.0000
     atom:   40    charge:   12.6050    magn:    2.3458    constr:    0.0000
     atom:   41    charge:   12.6034    magn:    2.3694    constr:    0.0000
     atom:   42    charge:   12.6037    magn:    2.3596    constr:    0.0000
     atom:   43    charge:   12.5919    magn:    2.1869    constr:    0.0000
     atom:   44    charge:   12.5922    magn:    2.1982    constr:    0.0000
     atom:   45    charge:   12.5948    magn:    2.1768    constr:    0.0000
     atom:   46    charge:   12.5928    magn:    2.1660    constr:    0.0000
     atom:   47    charge:   12.6055    magn:    2.3427    constr:    0.0000
     atom:   48    charge:   12.6048    magn:    2.3497    constr:    0.0000
     atom:   49    charge:   12.6032    magn:    2.3624    constr:    0.0000
     atom:   50    charge:   12.5926    magn:    2.1990    constr:    0.0000
     atom:   51    charge:   12.6032    magn:    2.3584    constr:    0.0000
     atom:   52    charge:   12.5921    magn:    2.1932    constr:    0.0000
     atom:   53    charge:   12.5938    magn:    2.1972    constr:    0.0000
     atom:   54    charge:   12.6049    magn:    2.2175    constr:    0.0000
     atom:   55    charge:   12.5946    magn:    2.1742    constr:    0.0000
     atom:   56    charge:   12.6045    magn:    2.3523    constr:    0.0000
     atom:   57    charge:   12.6032    magn:    2.3570    constr:    0.0000
     atom:   58    charge:   12.6033    magn:    2.3590    constr:    0.0000
     atom:   59    charge:   12.5924    magn:    2.2029    constr:    0.0000
     atom:   60    charge:   12.5924    magn:    2.2000    constr:    0.0000
     atom:   61    charge:   12.5943    magn:    2.1740    constr:    0.0000
     atom:   62    charge:   12.5936    magn:    2.1620    constr:    0.0000
     atom:   63    charge:   12.6053    magn:    2.3514    constr:    0.0000
     atom:   64    charge:   12.6030    magn:    2.2523    constr:    0.0000
     atom:   65    charge:    0.9774    magn:   -0.0222    constr:    0.0000

     total cpu time spent up to now is     1816.4 secs

     End of self-consistent calculation

 ------ SPIN UP ------------


          k = 0.0000 0.0000 0.0000 (128403 PWs)   bands (ev):

   -85.9499 -85.9442 -85.9274 -85.9263 -85.9262 -85.9258 -85.9257 -85.9148
   -85.9143 -85.9141 -85.9109 -85.9104 -85.9086 -85.9085 -85.9082 -85.9074
   -85.9018 -85.8974 -85.8974 -85.8961 -85.8957 -85.8955 -85.8955 -85.8942
   -85.8853 -85.8841 -85.8822 -85.8780 -85.8752 -85.8706 -85.8641 -85.8535
   -85.8092 -85.7921 -85.7896 -85.7862 -85.7858 -85.7784 -85.7772 -85.7713
   -85.7699 -85.7646 -85.7643 -85.7616 -85.7608 -85.7603 -85.7593 -85.7584
   -85.7575 -85.7549 -85.7540 -85.7523 -85.7522 -85.7512 -85.7502 -85.7461
   -85.7444 -85.7434 -85.7410 -85.7341 -85.7336 -85.7303 -85.7292 -85.7149
   -52.1411 -52.1306 -52.1151 -52.1121 -52.1114 -52.1110 -52.1106 -52.1049
   -52.1045 -52.1042 -52.1005 -52.1004 -52.1000 -52.0988 -52.0953 -52.0914
   -52.0913 -52.0892 -52.0861 -52.0858 -52.0847 -52.0839 -52.0831 -52.0828
   -52.0754 -52.0709 -52.0703 -52.0681 -52.0659 -52.0613 -52.0573 -52.0569
   -52.0543 -52.0534 -52.0509 -52.0486 -52.0443 -52.0351 -52.0293 -52.0287
   -52.0285 -52.0279 -52.0246 -52.0222 -52.0183 -52.0131 -51.9897 -51.9616
   -51.9611 -51.9598 -51.9586 -51.9585 -51.9577 -51.9526 -51.9519 -51.9492
   -51.9491 -51.9478 -51.9462 -51.9452 -51.9414 -51.9407 -51.9392 -51.9388
   -51.9316 -51.9290 -51.9263 -51.9256 -51.9250 -51.9247 -51.9198 -51.9193
   -51.9146 -51.9099 -51.9062 -51.9038 -51.9035 -51.8972 -51.8965 -51.8936
   -51.8866 -51.8852 -51.8848 -51.8848 -51.8844 -51.8829 -51.8796 -51.8791
   -51.8790 -51.8782 -51.8773 -51.8718 -51.8676 -51.8672 -51.8632 -51.8630
   -51.8623 -51.8564 -51.8541 -51.8494 -51.8483 -51.8479 -51.8463 -51.8434
   -51.8322 -51.8314 -51.8293 -51.8290 -51.8288 -51.8273 -51.8236 -51.8233
   -51.8210 -51.8178 -51.8170 -51.8150 -51.8145 -51.8134 -51.8124 -51.8100
   -51.8065 -51.8047 -51.8023 -51.8016 -51.8009 -51.8002 -51.7994 -51.7984
   -51.7977 -51.7967 -51.7965 -51.7926 -51.7921 -51.7816 -51.7812 -51.7779
   -51.7744 -51.7735 -51.7733 -51.7718 -51.7667 -51.7662 -51.7661 -51.7643
   -51.7633 -51.7597 -51.7518 -51.7511 -51.7493 -51.7490 -51.7402 -51.7366
   -51.7358 -51.7355 -51.7315 -51.7309 -51.7279 -51.7221 -51.7196 -51.7194
   -51.7160 -51.7148 -51.7129 -51.7121 -51.7100 -51.7095 -51.7079 -51.7067
   -51.7044 -51.7024 -51.6985 -51.6961 -51.6960 -51.6932 -51.6907 -51.6905
   -51.6842 -51.6710 -51.6708 -51.6688 -51.6676 -51.6638 -51.6633 -51.6629
   -51.6624 -51.6593 -51.6592 -51.6577 -51.6571 -51.6564 -51.6520 -51.6504
    -5.7414  -4.7195  -4.2009  -4.0280  -4.0277  -4.0269  -3.8145  -3.5536
    -3.5043  -3.0749  -3.0472  -3.0460  -3.0448  -2.8176  -2.6183  -2.6102
    -2.5110  -2.4046  -2.4015  -2.3850  -2.3811  -2.3596  -2.3049  -2.2936
    -2.2209  -2.2165  -1.9764  -1.9720  -1.9713  -1.9362  -1.9013  -1.8682
    -1.8278  -1.8258  -1.8247  -1.8244  -1.8227  -1.8217  -1.8124  -1.8118
    -1.8107  -1.8091  -1.8054  -1.8044  -1.8021  -1.7680  -1.7651  -1.7503
    -1.7444  -1.7264  -1.7257  -1.7251  -1.7240  -1.6994  -1.6647  -1.6183
    -1.6166  -1.6157  -1.5484  -1.5442  -1.5414  -1.5407  -1.4585  -1.2657
    -1.2633  -1.2319  -1.2308  -1.2290  -1.2266  -1.1155  -1.1024  -1.0714
    -1.0687  -1.0610  -1.0601  -1.0474  -1.0424  -1.0353  -1.0335  -1.0314
    -1.0204  -1.0132  -1.0022  -1.0017  -0.9981  -0.9967  -0.9958  -0.9905
    -0.9780  -0.9778  -0.9721  -0.9594  -0.9534  -0.9532  -0.9475  -0.9390
    -0.9166  -0.9163  -0.9120  -0.9002  -0.8964  -0.8959  -0.8841  -0.8830
    -0.8618  -0.8601  -0.8582  -0.8576  -0.8240  -0.7819  -0.7127  -0.6821
    -0.6793  -0.6779  -0.6753  -0.6703  -0.6333  -0.5692  -0.5666  -0.4790
    -0.4779  -0.4749  -0.4739  -0.4698  -0.4656  -0.4421  -0.4391  -0.4365
    -0.3967  -0.3964  -0.3944  -0.3937  -0.3846  -0.3724  -0.3407  -0.3385
    -0.3365  -0.3360  -0.3332  -0.3326  -0.3320  -0.3258  -0.2981  -0.2777
    -0.2613  -0.1954  -0.1866  -0.1860  -0.1832  -0.1800  -0.1715  -0.1662
    -0.1648  -0.1452  -0.1229  -0.1141  -0.0985  -0.0653  -0.0510  -0.0489
    -0.0319  -0.0311  -0.0289  -0.0282  -0.0179   0.0084   0.0249   0.0353
     0.0420   0.0459   0.0533   0.0658   0.0673   0.0750   0.0901   0.0923
     0.0967   0.0996   0.1045   0.1059   0.1061   0.1405   0.1442   0.1445
     0.1473   0.2257   0.2306   0.3455   0.3475   0.4876   0.4940   0.6188
     0.6318   0.6362   0.6370   0.6379   0.6410   0.6415   0.6569   0.6639
     0.6697   0.6718   0.6801   0.7066   0.7172   0.7237   0.7508   0.7583
     0.7739   0.8037   0.8047   0.8054   0.8178   0.8276   0.8334   0.8415
     0.8427   0.8439   0.8524   0.8535   0.8567   0.9078   0.9109   0.9191
     0.9315   0.9419   0.9440   0.9452   0.9477   0.9762   0.9791   0.9827
     0.9832   0.9857   0.9871   0.9919   1.0016   1.0163   1.0276   1.0353
     1.0374   1.0406   1.0465   1.0584   1.0586   1.0629   1.0643   1.0661
     1.0675   1.0679   1.0686   1.0766   1.0827   1.0855   1.0857   1.0896
     1.0898   1.0913   1.1030   1.1071   1.1083   1.1110   1.1259   1.1276
     1.1301   1.1328   1.1651   1.1707   1.1734   1.1772   1.1778   1.1794
     1.1809   1.1814   1.1874   1.1889   1.1890   1.2027   1.2283   1.2325
     1.2334   1.2337   1.2809   1.2840   1.2892   1.2924   1.2938   1.3173
     1.3177   1.3272   1.3275   1.4052   1.4445   1.4455   1.4499   1.4509
     1.4523   1.4693   1.4731   1.4776   1.4780   1.4806   1.4827   1.4876
     1.5013   1.5143   1.5145   1.5165   1.5262   1.5393   1.5414   1.5429
     1.5435   1.6270   1.6334   1.8893   1.9118   1.9465   1.9721   1.9863
     1.9889   2.0495   2.0613   2.0620   2.0627   2.1268   2.1276   2.1347
     2.1970   2.2000   2.2013   2.2020   2.2608   2.2635   2.2682   2.2847
     2.2891   2.3241   2.4248   2.4616   2.4888   2.5263   2.5302   2.5997
     2.6000   3.0405   3.2068   3.2263   3.2525   3.2655   3.2678   3.4112
     3.8124   4.0617   4.0698   4.0781   4.1441   4.1699   4.1700   4.1831

          k = 0.0000 0.2652 0.0000 (128375 PWs)   bands (ev):

   -85.9498 -85.9429 -85.9331 -85.9263 -85.9256 -85.9240 -85.9198 -85.9191
   -85.9172 -85.9143 -85.9106 -85.9097 -85.9088 -85.9083 -85.9070 -85.9028
   -85.9023 -85.9009 -85.8985 -85.8982 -85.8961 -85.8945 -85.8937 -85.8915
   -85.8856 -85.8850 -85.8816 -85.8780 -85.8752 -85.8710 -85.8638 -85.8537
   -85.8078 -85.7970 -85.7887 -85.7863 -85.7829 -85.7792 -85.7735 -85.7720
   -85.7700 -85.7663 -85.7645 -85.7637 -85.7620 -85.7607 -85.7591 -85.7574
   -85.7562 -85.7552 -85.7539 -85.7523 -85.7512 -85.7504 -85.7484 -85.7473
   -85.7452 -85.7438 -85.7397 -85.7371 -85.7335 -85.7318 -85.7250 -85.7161
   -52.1392 -52.1304 -52.1202 -52.1146 -52.1128 -52.1102 -52.1082 -52.1060
   -52.1052 -52.1010 -52.1000 -52.0997 -52.0977 -52.0970 -52.0966 -52.0939
   -52.0911 -52.0875 -52.0871 -52.0858 -52.0852 -52.0841 -52.0832 -52.0780
   -52.0759 -52.0713 -52.0700 -52.0675 -52.0617 -52.0593 -52.0559 -52.0530
   -52.0519 -52.0500 -52.0475 -52.0436 -52.0385 -52.0364 -52.0340 -52.0295
   -52.0281 -52.0242 -52.0213 -52.0152 -52.0149 -52.0054 -51.9870 -51.9839
   -51.9747 -51.9707 -51.9681 -51.9656 -51.9616 -51.9582 -51.9530 -51.9503
   -51.9486 -51.9471 -51.9451 -51.9426 -51.9419 -51.9402 -51.9380 -51.9360
   -51.9346 -51.9332 -51.9328 -51.9279 -51.9243 -51.9232 -51.9219 -51.9199
   -51.9188 -51.9175 -51.9154 -51.9143 -51.9114 -51.9046 -51.8995 -51.8976
   -51.8939 -51.8932 -51.8896 -51.8864 -51.8855 -51.8824 -51.8803 -51.8760
   -51.8700 -51.8691 -51.8666 -51.8654 -51.8636 -51.8611 -51.8604 -51.8567
   -51.8554 -51.8533 -51.8529 -51.8489 -51.8482 -51.8460 -51.8417 -51.8370
   -51.8361 -51.8344 -51.8331 -51.8293 -51.8285 -51.8271 -51.8264 -51.8247
   -51.8240 -51.8233 -51.8225 -51.8181 -51.8169 -51.8142 -51.8133 -51.8109
   -51.8075 -51.8062 -51.8030 -51.8021 -51.7966 -51.7944 -51.7936 -51.7931
   -51.7921 -51.7883 -51.7866 -51.7855 -51.7846 -51.7822 -51.7791 -51.7764
   -51.7749 -51.7733 -51.7715 -51.7682 -51.7662 -51.7651 -51.7626 -51.7583
   -51.7572 -51.7535 -51.7518 -51.7510 -51.7492 -51.7470 -51.7459 -51.7371
   -51.7338 -51.7311 -51.7300 -51.7292 -51.7277 -51.7250 -51.7241 -51.7219
   -51.7200 -51.7187 -51.7145 -51.7106 -51.7099 -51.7062 -51.7027 -51.6997
   -51.6987 -51.6960 -51.6954 -51.6945 -51.6939 -51.6916 -51.6898 -51.6895
   -51.6846 -51.6780 -51.6733 -51.6727 -51.6708 -51.6693 -51.6674 -51.6663
   -51.6659 -51.6641 -51.6627 -51.6620 -51.6595 -51.6581 -51.6558 -51.6519
    -5.6269  -4.7976  -4.5719  -4.2065  -4.0161  -3.8499  -3.6853  -3.4620
    -3.2980  -3.1175  -3.0810  -2.9293  -2.8360  -2.7333  -2.6891  -2.6173
    -2.5078  -2.4444  -2.3992  -2.3453  -2.3244  -2.3165  -2.3013  -2.2711
    -2.2530  -2.2089  -2.1139  -2.0407  -1.9935  -1.9723  -1.9699  -1.9499
    -1.9363  -1.9300  -1.9229  -1.9119  -1.9021  -1.8952  -1.8714  -1.8644
    -1.8478  -1.8286  -1.8258  -1.7966  -1.7899  -1.7782  -1.7549  -1.7494
    -1.7301  -1.7147  -1.6960  -1.6770  -1.6578  -1.6541  -1.6456  -1.6398
    -1.6203  -1.5679  -1.5092  -1.4939  -1.4731  -1.4639  -1.4353  -1.4103
    -1.3449  -1.3108  -1.2702  -1.2275  -1.2067  -1.1726  -1.1637  -1.1231
    -1.0780  -1.0673  -1.0654  -1.0542  -1.0465  -1.0346  -1.0223  -1.0155
    -1.0120  -1.0065  -0.9987  -0.9976  -0.9913  -0.9725  -0.9680  -0.9649
    -0.9599  -0.9518  -0.9445  -0.9315  -0.9232  -0.9200  -0.9186  -0.9149
    -0.9120  -0.9105  -0.9054  -0.8984  -0.8701  -0.8441  -0.8310  -0.8172
    -0.8129  -0.8064  -0.7907  -0.7819  -0.7724  -0.7698  -0.7510  -0.7453
    -0.7324  -0.6637  -0.6508  -0.6316  -0.6040  -0.5797  -0.5748  -0.5577
    -0.5465  -0.5435  -0.4740  -0.4695  -0.4554  -0.4484  -0.4459  -0.4359
    -0.4322  -0.4305  -0.4226  -0.4126  -0.4000  -0.3954  -0.3733  -0.3640
    -0.3615  -0.3520  -0.3273  -0.3223  -0.3140  -0.3067  -0.2677  -0.2478
    -0.2348  -0.2302  -0.2085  -0.2030  -0.1821  -0.1756  -0.1740  -0.1670
    -0.1588  -0.1551  -0.1499  -0.1366  -0.1325  -0.1208  -0.1146  -0.1100
    -0.1064  -0.0834  -0.0690  -0.0542  -0.0300  -0.0057   0.0052   0.0236
     0.0372   0.0421   0.0591   0.0756   0.0833   0.0870   0.0991   0.1097
     0.1227   0.1629   0.1717   0.2022   0.2116   0.2182   0.2374   0.2739
     0.2992   0.3024   0.3219   0.3745   0.4846   0.5031   0.5119   0.5472
     0.5546   0.5732   0.5876   0.6035   0.6228   0.6396   0.6451   0.6605
     0.6689   0.6756   0.6904   0.6957   0.6984   0.7076   0.7141   0.7198
     0.7495   0.7560   0.7798   0.8035   0.8187   0.8350   0.8423   0.8450
     0.8462   0.8507   0.8685   0.8707   0.8796   0.8803   0.8821   0.8938
     0.9032   0.9080   0.9409   0.9484   0.9563   0.9637   0.9755   0.9811
     0.9931   0.9957   1.0002   1.0015   1.0107   1.0145   1.0184   1.0234
     1.0263   1.0359   1.0425   1.0484   1.0514   1.0612   1.0622   1.0727
     1.0834   1.0919   1.0942   1.1017   1.1049   1.1067   1.1118   1.1149
     1.1177   1.1201   1.1236   1.1277   1.1416   1.1473   1.1496   1.1559
     1.1653   1.1728   1.1761   1.1780   1.1814   1.1870   1.1897   1.1918
     1.1957   1.2142   1.2161   1.2298   1.2400   1.2436   1.2487   1.2707
     1.2948   1.2985   1.3177   1.3352   1.3377   1.3396   1.3455   1.3499
     1.3641   1.3701   1.3761   1.3796   1.3812   1.3837   1.4030   1.4344
     1.4526   1.4569   1.4598   1.4615   1.4637   1.4814   1.4845   1.4934
     1.5044   1.5069   1.5176   1.5328   1.5499   1.6037   1.6449   1.6488
     1.6523   1.7777   1.8666   1.8794   1.8889   1.9087   1.9271   1.9362
     1.9555   1.9581   1.9640   2.0164   2.0390   2.0459   2.0618   2.0677
     2.0794   2.0837   2.0915   2.1179   2.1262   2.1292   2.1720   2.1814
     2.1924   2.2625   2.2890   2.2961   2.3634   2.4174   2.5771   2.6635
     2.9088   2.9974   3.0745   3.1349   3.2712   3.3401   3.4373   3.5019
     3.5519   3.6266   3.6877   3.7830   3.8571   4.0034   4.0686   4.1624

          k = 0.0000-0.5303 0.0000 (128388 PWs)   bands (ev):

   -85.9497 -85.9396 -85.9383 -85.9246 -85.9242 -85.9237 -85.9201 -85.9194
   -85.9193 -85.9142 -85.9128 -85.9101 -85.9082 -85.9053 -85.9046 -85.9028
   -85.9026 -85.9025 -85.8991 -85.8986 -85.8981 -85.8943 -85.8926 -85.8881
   -85.8871 -85.8862 -85.8805 -85.8789 -85.8747 -85.8716 -85.8635 -85.8539
   -85.8050 -85.8017 -85.7880 -85.7867 -85.7813 -85.7789 -85.7727 -85.7705
   -85.7693 -85.7672 -85.7662 -85.7642 -85.7639 -85.7605 -85.7595 -85.7583
   -85.7561 -85.7541 -85.7526 -85.7522 -85.7507 -85.7503 -85.7486 -85.7466
   -85.7456 -85.7432 -85.7410 -85.7377 -85.7339 -85.7324 -85.7213 -85.7183
   -52.1361 -52.1295 -52.1267 -52.1137 -52.1130 -52.1126 -52.1080 -52.1039
   -52.1032 -52.1028 -52.1016 -52.0985 -52.0980 -52.0960 -52.0955 -52.0912
   -52.0903 -52.0899 -52.0876 -52.0865 -52.0842 -52.0837 -52.0823 -52.0762
   -52.0742 -52.0732 -52.0695 -52.0666 -52.0623 -52.0556 -52.0504 -52.0486
   -52.0458 -52.0439 -52.0435 -52.0421 -52.0382 -52.0356 -52.0354 -52.0304
   -52.0230 -52.0204 -52.0113 -52.0053 -52.0043 -52.0035 -51.9988 -51.9930
   -51.9862 -51.9856 -51.9813 -51.9755 -51.9720 -51.9714 -51.9636 -51.9602
   -51.9477 -51.9449 -51.9444 -51.9432 -51.9396 -51.9384 -51.9372 -51.9349
   -51.9334 -51.9300 -51.9260 -51.9249 -51.9242 -51.9236 -51.9187 -51.9171
   -51.9157 -51.9155 -51.9147 -51.9131 -51.9112 -51.9055 -51.9047 -51.9034
   -51.9010 -51.9007 -51.8989 -51.8943 -51.8928 -51.8925 -51.8917 -51.8911
   -51.8831 -51.8783 -51.8682 -51.8664 -51.8588 -51.8562 -51.8533 -51.8525
   -51.8516 -51.8487 -51.8447 -51.8432 -51.8406 -51.8381 -51.8335 -51.8319
   -51.8296 -51.8277 -51.8271 -51.8263 -51.8256 -51.8244 -51.8240 -51.8230
   -51.8223 -51.8210 -51.8192 -51.8171 -51.8142 -51.8127 -51.8112 -51.8103
   -51.8093 -51.8072 -51.8063 -51.8049 -51.8027 -51.8009 -51.7984 -51.7966
   -51.7882 -51.7877 -51.7871 -51.7856 -51.7830 -51.7815 -51.7755 -51.7736
   -51.7710 -51.7701 -51.7663 -51.7645 -51.7608 -51.7598 -51.7580 -51.7563
   -51.7540 -51.7522 -51.7510 -51.7504 -51.7484 -51.7470 -51.7449 -51.7443
   -51.7396 -51.7342 -51.7312 -51.7300 -51.7266 -51.7260 -51.7244 -51.7241
   -51.7171 -51.7164 -51.7076 -51.7063 -51.6968 -51.6959 -51.6953 -51.6935
   -51.6924 -51.6918 -51.6914 -51.6902 -51.6893 -51.6876 -51.6870 -51.6865
   -51.6854 -51.6846 -51.6838 -51.6827 -51.6806 -51.6802 -51.6776 -51.6770
   -51.6741 -51.6716 -51.6652 -51.6646 -51.6621 -51.6585 -51.6555 -51.6527
    -5.3296  -5.2499  -4.5198  -4.1317  -4.1161  -4.0529  -3.6289  -3.2329
    -3.2189  -3.0849  -2.9944  -2.7230  -2.7210  -2.6971  -2.6034  -2.5885
    -2.5415  -2.4568  -2.4509  -2.4268  -2.3821  -2.2989  -2.2547  -2.1839
    -2.1826  -2.1717  -2.1668  -2.1563  -2.1525  -2.1245  -2.1241  -2.1136
    -2.0987  -2.0277  -2.0252  -1.9652  -1.9586  -1.9541  -1.8594  -1.8037
    -1.8026  -1.7958  -1.7929  -1.7284  -1.7218  -1.7145  -1.7074  -1.6986
    -1.6940  -1.6925  -1.6810  -1.6727  -1.6716  -1.6699  -1.6347  -1.5577
    -1.5555  -1.5546  -1.5389  -1.5327  -1.5306  -1.5258  -1.4311  -1.4261
    -1.3988  -1.3593  -1.3385  -1.3189  -1.3104  -1.2453  -1.2075  -1.0992
    -1.0908  -1.0620  -1.0615  -1.0386  -1.0368  -1.0228  -1.0147  -1.0134
    -0.9981  -0.9961  -0.9889  -0.9866  -0.9806  -0.9782  -0.9717  -0.9525
    -0.9505  -0.9503  -0.9489  -0.9477  -0.9341  -0.9086  -0.8989  -0.8563
    -0.8384  -0.8231  -0.8205  -0.8117  -0.7984  -0.7846  -0.7770  -0.7651
    -0.7610  -0.7573  -0.7539  -0.7525  -0.7517  -0.7490  -0.7455  -0.7405
    -0.7251  -0.6932  -0.6918  -0.6900  -0.6880  -0.6849  -0.6234  -0.5356
    -0.5336  -0.4874  -0.4741  -0.4380  -0.4351  -0.4343  -0.4314  -0.4216
    -0.4189  -0.4112  -0.4106  -0.4047  -0.4010  -0.3978  -0.3887  -0.3856
    -0.3769  -0.3751  -0.3721  -0.3475  -0.3424  -0.3405  -0.3334  -0.3316
    -0.3109  -0.2824  -0.2763  -0.2696  -0.2653  -0.2455  -0.2397  -0.2117
    -0.2077  -0.2011  -0.1978  -0.1938  -0.1615  -0.1472  -0.1347  -0.1153
    -0.0949  -0.0911  -0.0782  -0.0682  -0.0035   0.0440   0.0545   0.0605
     0.0671   0.0683   0.0865   0.0932   0.0991   0.1026   0.1233   0.1373
     0.2028   0.2384   0.3451   0.3712   0.3731   0.3764   0.3858   0.3901
     0.4075   0.4347   0.4395   0.4505   0.4802   0.5249   0.5301   0.5400
     0.5420   0.5542   0.5635   0.5677   0.5697   0.5722   0.5890   0.5903
     0.5917   0.5991   0.6088   0.6248   0.7040   0.7067   0.7308   0.7351
     0.7382   0.7397   0.7458   0.7470   0.7696   0.7788   0.8467   0.8516
     0.8660   0.8709   0.8760   0.8766   0.8787   0.8861   0.8880   0.8889
     0.8908   0.8923   0.8983   0.8988   0.9159   0.9201   0.9232   0.9238
     0.9258   0.9276   0.9296   0.9347   1.0106   1.0123   1.0430   1.0481
     1.0508   1.0527   1.0538   1.0557   1.0730   1.0760   1.0822   1.0872
     1.0899   1.0927   1.0958   1.0984   1.1031   1.1063   1.1113   1.1126
     1.1184   1.1298   1.1323   1.1364   1.1675   1.1705   1.1770   1.1797
     1.1859   1.1875   1.2323   1.2346   1.2393   1.2431   1.2477   1.2499
     1.2656   1.2804   1.2833   1.3024   1.3241   1.3266   1.3276   1.3350
     1.3356   1.3374   1.3407   1.3466   1.3497   1.3507   1.3536   1.3548
     1.3580   1.3620   1.3625   1.3665   1.3671   1.3698   1.3736   1.3749
     1.4326   1.4398   1.4626   1.4664   1.5261   1.5372   1.5785   1.5838
     1.6198   1.6254   1.6294   1.6326   1.7329   1.7502   1.7524   1.7538
     1.7661   1.7801   1.7838   1.8337   1.8350   1.8384   1.8499   1.8532
     1.8784   1.8807   1.9061   1.9097   1.9250   1.9272   2.0029   2.0074
     2.0367   2.0402   2.0737   2.0797   2.1016   2.1148   2.1212   2.1232
     2.1464   2.1510   2.1532   2.1655   2.1695   2.1892   2.4609   2.5067
     2.5835   2.6527   2.9983   3.1494   3.1675   3.1729   3.5977   3.7952
     3.8197   3.8379   3.9306   3.9628   3.9921   4.0127   4.0199   4.0211

          k = 0.2500-0.0884 0.0000 (128371 PWs)   bands (ev):

   -85.9498 -85.9429 -85.9331 -85.9263 -85.9255 -85.9240 -85.9198 -85.9191
   -85.9175 -85.9143 -85.9105 -85.9098 -85.9086 -85.9083 -85.9070 -85.9028
   -85.9023 -85.9009 -85.8987 -85.8983 -85.8961 -85.8947 -85.8934 -85.8915
   -85.8857 -85.8850 -85.8816 -85.8781 -85.8753 -85.8709 -85.8639 -85.8536
   -85.8078 -85.7970 -85.7887 -85.7863 -85.7830 -85.7792 -85.7734 -85.7720
   -85.7700 -85.7662 -85.7645 -85.7637 -85.7621 -85.7606 -85.7591 -85.7574
   -85.7562 -85.7552 -85.7540 -85.7523 -85.7512 -85.7505 -85.7484 -85.7473
   -85.7452 -85.7437 -85.7397 -85.7372 -85.7335 -85.7317 -85.7250 -85.7161
   -52.1392 -52.1304 -52.1202 -52.1146 -52.1128 -52.1102 -52.1083 -52.1061
   -52.1052 -52.1011 -52.1000 -52.0996 -52.0976 -52.0970 -52.0965 -52.0940
   -52.0911 -52.0875 -52.0871 -52.0858 -52.0851 -52.0841 -52.0831 -52.0780
   -52.0759 -52.0713 -52.0699 -52.0675 -52.0618 -52.0593 -52.0556 -52.0530
   -52.0521 -52.0499 -52.0477 -52.0435 -52.0384 -52.0363 -52.0342 -52.0295
   -52.0279 -52.0242 -52.0213 -52.0152 -52.0149 -52.0055 -51.9870 -51.9839
   -51.9746 -51.9706 -51.9681 -51.9657 -51.9616 -51.9582 -51.9530 -51.9503
   -51.9486 -51.9472 -51.9451 -51.9427 -51.9420 -51.9401 -51.9381 -51.9360
   -51.9346 -51.9331 -51.9328 -51.9280 -51.9242 -51.9231 -51.9220 -51.9199
   -51.9188 -51.9176 -51.9154 -51.9143 -51.9114 -51.9045 -51.8995 -51.8976
   -51.8939 -51.8932 -51.8896 -51.8863 -51.8855 -51.8824 -51.8802 -51.8760
   -51.8700 -51.8691 -51.8665 -51.8654 -51.8636 -51.8610 -51.8604 -51.8567
   -51.8553 -51.8533 -51.8528 -51.8490 -51.8483 -51.8461 -51.8418 -51.8370
   -51.8360 -51.8344 -51.8331 -51.8292 -51.8285 -51.8271 -51.8264 -51.8248
   -51.8240 -51.8233 -51.8224 -51.8180 -51.8170 -51.8142 -51.8133 -51.8109
   -51.8075 -51.8062 -51.8030 -51.8020 -51.7966 -51.7944 -51.7936 -51.7931
   -51.7921 -51.7883 -51.7867 -51.7855 -51.7846 -51.7822 -51.7791 -51.7764
   -51.7749 -51.7733 -51.7714 -51.7682 -51.7661 -51.7651 -51.7626 -51.7583
   -51.7572 -51.7534 -51.7518 -51.7510 -51.7492 -51.7471 -51.7459 -51.7371
   -51.7339 -51.7309 -51.7299 -51.7293 -51.7278 -51.7251 -51.7240 -51.7219
   -51.7198 -51.7188 -51.7145 -51.7107 -51.7099 -51.7062 -51.7027 -51.6997
   -51.6988 -51.6961 -51.6954 -51.6944 -51.6939 -51.6916 -51.6898 -51.6895
   -51.6845 -51.6780 -51.6735 -51.6726 -51.6708 -51.6695 -51.6671 -51.6661
   -51.6658 -51.6639 -51.6628 -51.6620 -51.6595 -51.6583 -51.6558 -51.6520
    -5.6269  -4.7976  -4.5718  -4.2065  -4.0161  -3.8499  -3.6854  -3.4619
    -3.2980  -3.1176  -3.0810  -2.9293  -2.8360  -2.7335  -2.6892  -2.6172
    -2.5078  -2.4444  -2.3992  -2.3453  -2.3244  -2.3165  -2.3012  -2.2711
    -2.2530  -2.2089  -2.1139  -2.0407  -1.9937  -1.9723  -1.9699  -1.9499
    -1.9363  -1.9299  -1.9229  -1.9119  -1.9020  -1.8952  -1.8713  -1.8646
    -1.8477  -1.8285  -1.8257  -1.7966  -1.7898  -1.7781  -1.7549  -1.7495
    -1.7301  -1.7147  -1.6961  -1.6771  -1.6579  -1.6541  -1.6455  -1.6400
    -1.6203  -1.5678  -1.5092  -1.4939  -1.4731  -1.4639  -1.4352  -1.4106
    -1.3448  -1.3108  -1.2701  -1.2276  -1.2067  -1.1727  -1.1637  -1.1231
    -1.0780  -1.0674  -1.0653  -1.0542  -1.0466  -1.0346  -1.0225  -1.0155
    -1.0119  -1.0066  -0.9987  -0.9976  -0.9914  -0.9725  -0.9678  -0.9649
    -0.9599  -0.9518  -0.9445  -0.9314  -0.9232  -0.9199  -0.9188  -0.9151
    -0.9121  -0.9105  -0.9053  -0.8984  -0.8702  -0.8435  -0.8317  -0.8172
    -0.8129  -0.8064  -0.7908  -0.7822  -0.7723  -0.7695  -0.7508  -0.7452
    -0.7324  -0.6637  -0.6507  -0.6315  -0.6040  -0.5797  -0.5748  -0.5576
    -0.5466  -0.5436  -0.4740  -0.4695  -0.4554  -0.4485  -0.4457  -0.4358
    -0.4323  -0.4306  -0.4226  -0.4121  -0.4000  -0.3955  -0.3735  -0.3642
    -0.3615  -0.3518  -0.3275  -0.3222  -0.3138  -0.3068  -0.2677  -0.2479
    -0.2347  -0.2302  -0.2085  -0.2031  -0.1822  -0.1756  -0.1741  -0.1670
    -0.1586  -0.1550  -0.1498  -0.1366  -0.1323  -0.1207  -0.1147  -0.1100
    -0.1062  -0.0836  -0.0690  -0.0540  -0.0297  -0.0057   0.0052   0.0234
     0.0372   0.0421   0.0590   0.0753   0.0831   0.0872   0.0991   0.1097
     0.1226   0.1630   0.1717   0.2021   0.2115   0.2182   0.2375   0.2740
     0.2994   0.3023   0.3219   0.3746   0.4845   0.5031   0.5120   0.5472
     0.5548   0.5729   0.5877   0.6033   0.6228   0.6396   0.6451   0.6606
     0.6688   0.6756   0.6906   0.6956   0.6984   0.7076   0.7141   0.7197
     0.7495   0.7561   0.7798   0.8036   0.8187   0.8353   0.8418   0.8452
     0.8464   0.8508   0.8683   0.8708   0.8794   0.8801   0.8823   0.8937
     0.9033   0.9081   0.9410   0.9485   0.9563   0.9639   0.9755   0.9811
     0.9931   0.9956   1.0000   1.0016   1.0104   1.0144   1.0185   1.0235
     1.0262   1.0362   1.0427   1.0483   1.0513   1.0612   1.0622   1.0728
     1.0833   1.0920   1.0942   1.1016   1.1050   1.1065   1.1119   1.1147
     1.1177   1.1205   1.1237   1.1276   1.1415   1.1473   1.1499   1.1558
     1.1648   1.1726   1.1760   1.1781   1.1818   1.1869   1.1899   1.1917
     1.1956   1.2141   1.2160   1.2298   1.2402   1.2435   1.2488   1.2706
     1.2949   1.2985   1.3177   1.3352   1.3373   1.3395   1.3460   1.3500
     1.3642   1.3699   1.3761   1.3795   1.3812   1.3835   1.4030   1.4344
     1.4526   1.4568   1.4599   1.4615   1.4639   1.4815   1.4845   1.4933
     1.5043   1.5068   1.5177   1.5328   1.5499   1.6037   1.6450   1.6489
     1.6524   1.7777   1.8667   1.8797   1.8889   1.9083   1.9271   1.9362
     1.9555   1.9581   1.9639   2.0165   2.0389   2.0464   2.0617   2.0677
     2.0787   2.0839   2.0912   2.1179   2.1263   2.1291   2.1722   2.1814
     2.1927   2.2625   2.2889   2.2962   2.3635   2.4173   2.5771   2.6634
     2.9086   2.9974   3.0745   3.1348   3.2712   3.3401   3.4371   3.5018
     3.5521   3.6269   3.6876   3.7829   3.8572   4.0034   4.0686   4.1621

          k = 0.2500 0.1768 0.0000 (128340 PWs)   bands (ev):

   -85.9497 -85.9419 -85.9315 -85.9303 -85.9255 -85.9248 -85.9198 -85.9189
   -85.9174 -85.9139 -85.9089 -85.9086 -85.9083 -85.9075 -85.9060 -85.9038
   -85.9036 -85.9025 -85.9023 -85.8971 -85.8954 -85.8927 -85.8921 -85.8910
   -85.8865 -85.8864 -85.8801 -85.8779 -85.8767 -85.8708 -85.8636 -85.8538
   -85.8070 -85.7946 -85.7928 -85.7891 -85.7810 -85.7804 -85.7714 -85.7703
   -85.7680 -85.7651 -85.7649 -85.7626 -85.7614 -85.7608 -85.7601 -85.7593
   -85.7573 -85.7567 -85.7535 -85.7530 -85.7502 -85.7500 -85.7485 -85.7482
   -85.7469 -85.7446 -85.7381 -85.7379 -85.7330 -85.7278 -85.7268 -85.7168
   -52.1390 -52.1300 -52.1176 -52.1155 -52.1149 -52.1130 -52.1064 -52.1058
   -52.1049 -52.1020 -52.0990 -52.0988 -52.0968 -52.0964 -52.0928 -52.0927
   -52.0919 -52.0911 -52.0909 -52.0874 -52.0865 -52.0831 -52.0782 -52.0782
   -52.0764 -52.0732 -52.0681 -52.0670 -52.0623 -52.0550 -52.0531 -52.0508
   -52.0481 -52.0448 -52.0426 -52.0420 -52.0358 -52.0328 -52.0233 -52.0227
   -52.0226 -52.0216 -52.0185 -52.0155 -52.0128 -52.0075 -51.9836 -51.9818
   -51.9792 -51.9778 -51.9766 -51.9751 -51.9738 -51.9671 -51.9667 -51.9648
   -51.9575 -51.9563 -51.9556 -51.9434 -51.9418 -51.9404 -51.9377 -51.9375
   -51.9338 -51.9336 -51.9330 -51.9295 -51.9279 -51.9269 -51.9237 -51.9222
   -51.9213 -51.9202 -51.9156 -51.9152 -51.9055 -51.9017 -51.8994 -51.8975
   -51.8966 -51.8897 -51.8865 -51.8854 -51.8831 -51.8819 -51.8803 -51.8790
   -51.8766 -51.8742 -51.8696 -51.8652 -51.8650 -51.8586 -51.8554 -51.8533
   -51.8527 -51.8481 -51.8459 -51.8455 -51.8451 -51.8426 -51.8408 -51.8387
   -51.8383 -51.8375 -51.8362 -51.8336 -51.8325 -51.8295 -51.8290 -51.8263
   -51.8240 -51.8230 -51.8225 -51.8155 -51.8126 -51.8119 -51.8075 -51.8062
   -51.8058 -51.8025 -51.8007 -51.7971 -51.7963 -51.7959 -51.7955 -51.7951
   -51.7918 -51.7902 -51.7818 -51.7812 -51.7792 -51.7785 -51.7771 -51.7756
   -51.7740 -51.7699 -51.7667 -51.7613 -51.7602 -51.7591 -51.7579 -51.7565
   -51.7554 -51.7545 -51.7536 -51.7526 -51.7466 -51.7458 -51.7456 -51.7415
   -51.7387 -51.7345 -51.7333 -51.7301 -51.7298 -51.7191 -51.7172 -51.7158
   -51.7118 -51.7106 -51.7092 -51.7084 -51.7077 -51.7060 -51.7028 -51.7024
   -51.7010 -51.6976 -51.6964 -51.6953 -51.6920 -51.6904 -51.6897 -51.6893
   -51.6845 -51.6758 -51.6754 -51.6733 -51.6722 -51.6711 -51.6709 -51.6707
   -51.6697 -51.6694 -51.6677 -51.6663 -51.6654 -51.6628 -51.6614 -51.6553
    -5.5883  -4.6966  -4.4023  -4.3963  -4.3721  -3.9023  -3.4488  -3.4384
    -3.2974  -3.2871  -3.1344  -2.8532  -2.7926  -2.6872  -2.6287  -2.4881
    -2.3691  -2.3623  -2.3585  -2.3284  -2.3241  -2.2491  -2.2400  -2.2347
    -2.2325  -2.1417  -2.1346  -2.1334  -2.0979  -2.0376  -2.0035  -2.0026
    -1.9749  -1.9151  -1.9139  -1.9089  -1.8865  -1.8749  -1.8581  -1.8538
    -1.8506  -1.8464  -1.8445  -1.8381  -1.8376  -1.8345  -1.8329  -1.7798
    -1.7607  -1.7512  -1.7504  -1.7084  -1.6776  -1.6686  -1.6639  -1.6339
    -1.5622  -1.4944  -1.4927  -1.4708  -1.4608  -1.3911  -1.3735  -1.3726
    -1.3677  -1.3620  -1.3414  -1.2947  -1.1959  -1.1941  -1.1565  -1.1362
    -1.0924  -1.0892  -1.0763  -1.0727  -1.0706  -1.0613  -1.0591  -1.0524
    -1.0522  -1.0482  -1.0438  -1.0385  -1.0348  -1.0285  -1.0091  -0.9916
    -0.9765  -0.9303  -0.9282  -0.9248  -0.9150  -0.8990  -0.8659  -0.8599
    -0.8594  -0.8557  -0.8528  -0.8480  -0.8334  -0.8322  -0.8145  -0.8031
    -0.7827  -0.7586  -0.7514  -0.7191  -0.7115  -0.7099  -0.6934  -0.6735
    -0.6636  -0.6562  -0.6460  -0.6415  -0.6409  -0.6372  -0.6352  -0.6290
    -0.6167  -0.6128  -0.5523  -0.5440  -0.5299  -0.5152  -0.4516  -0.4501
    -0.4422  -0.4385  -0.4358  -0.4336  -0.4208  -0.4120  -0.3781  -0.3723
    -0.3658  -0.3590  -0.3522  -0.3330  -0.3324  -0.3077  -0.2984  -0.2966
    -0.2808  -0.2783  -0.2616  -0.2511  -0.2138  -0.1888  -0.1703  -0.1678
    -0.1652  -0.1589  -0.1505  -0.1406  -0.1374  -0.0996  -0.0686  -0.0444
    -0.0437  -0.0431  -0.0354  -0.0301  -0.0236  -0.0219  -0.0208  -0.0103
    -0.0099  -0.0070  -0.0064   0.0029   0.0101   0.0162   0.0426   0.0593
     0.1093   0.1257   0.2233   0.2738   0.2968   0.3047   0.3133   0.3145
     0.3288   0.3829   0.4415   0.4582   0.4840   0.4995   0.5232   0.5501
     0.5562   0.5568   0.5765   0.5821   0.6200   0.6320   0.6490   0.6527
     0.6618   0.6693   0.6768   0.6805   0.7262   0.7406   0.7440   0.7511
     0.7583   0.7616   0.7761   0.7763   0.7814   0.7920   0.7975   0.8099
     0.8229   0.8315   0.8698   0.8821   0.8983   0.9020   0.9051   0.9139
     0.9206   0.9280   0.9288   0.9297   0.9363   0.9520   0.9560   0.9689
     0.9963   0.9986   0.9993   1.0077   1.0094   1.0196   1.0213   1.0264
     1.0293   1.0352   1.0356   1.0759   1.0785   1.0849   1.0863   1.0889
     1.0911   1.0984   1.1022   1.1265   1.1330   1.1353   1.1493   1.1537
     1.1549   1.1627   1.1636   1.1717   1.1834   1.1865   1.2018   1.2041
     1.2172   1.2255   1.2275   1.2305   1.2321   1.2340   1.2356   1.2382
     1.2396   1.2637   1.2647   1.2689   1.2705   1.2771   1.2813   1.2948
     1.3179   1.3181   1.3201   1.3212   1.3213   1.3239   1.3375   1.3393
     1.3491   1.3594   1.3609   1.3677   1.3686   1.3944   1.3948   1.4198
     1.4301   1.4328   1.4680   1.4818   1.4823   1.5049   1.5067   1.5226
     1.5473   1.5494   1.5602   1.5634   1.6135   1.6433   1.6506   1.6705
     1.6742   1.7713   1.8180   1.8403   1.8945   1.9007   1.9268   1.9314
     1.9999   2.0097   2.0122   2.0618   2.0648   2.0723   2.0852   2.0926
     2.0994   2.1012   2.1022   2.1132   2.1447   2.1851   2.1881   2.1978
     2.2762   2.2963   2.4033   2.4058   2.4951   2.5080   2.5082   2.7267
     2.8376   2.9348   3.0368   3.0796   3.0821   3.1464   3.1700   3.2077
     3.2098   3.2464   3.2663   3.4543   3.5305   3.7038   3.7698   3.9360

          k = 0.2500-0.6187 0.0000 (128424 PWs)   bands (ev):

   -85.9496 -85.9387 -85.9367 -85.9303 -85.9264 -85.9234 -85.9195 -85.9173
   -85.9147 -85.9138 -85.9133 -85.9115 -85.9078 -85.9066 -85.9051 -85.9045
   -85.9033 -85.9030 -85.8985 -85.8977 -85.8952 -85.8937 -85.8922 -85.8895
   -85.8876 -85.8867 -85.8803 -85.8781 -85.8750 -85.8720 -85.8633 -85.8540
   -85.8043 -85.7998 -85.7937 -85.7879 -85.7799 -85.7759 -85.7720 -85.7712
   -85.7680 -85.7666 -85.7654 -85.7647 -85.7636 -85.7612 -85.7597 -85.7577
   -85.7563 -85.7556 -85.7551 -85.7521 -85.7498 -85.7487 -85.7484 -85.7471
   -85.7460 -85.7441 -85.7421 -85.7389 -85.7331 -85.7281 -85.7224 -85.7191
   -52.1362 -52.1288 -52.1239 -52.1211 -52.1120 -52.1097 -52.1079 -52.1042
   -52.1034 -52.1020 -52.0995 -52.0985 -52.0974 -52.0954 -52.0946 -52.0938
   -52.0923 -52.0900 -52.0885 -52.0870 -52.0853 -52.0819 -52.0794 -52.0773
   -52.0762 -52.0730 -52.0680 -52.0666 -52.0615 -52.0558 -52.0496 -52.0416
   -52.0391 -52.0367 -52.0359 -52.0347 -52.0328 -52.0297 -52.0272 -52.0237
   -52.0216 -52.0158 -52.0124 -52.0108 -52.0069 -52.0000 -51.9985 -51.9958
   -51.9920 -51.9915 -51.9890 -51.9856 -51.9798 -51.9747 -51.9680 -51.9650
   -51.9635 -51.9611 -51.9500 -51.9490 -51.9459 -51.9428 -51.9403 -51.9373
   -51.9361 -51.9345 -51.9320 -51.9267 -51.9208 -51.9191 -51.9179 -51.9173
   -51.9162 -51.9154 -51.9138 -51.9127 -51.9114 -51.9103 -51.9075 -51.9048
   -51.9004 -51.8993 -51.8978 -51.8944 -51.8904 -51.8848 -51.8838 -51.8823
   -51.8811 -51.8794 -51.8769 -51.8755 -51.8661 -51.8616 -51.8539 -51.8529
   -51.8509 -51.8475 -51.8434 -51.8381 -51.8366 -51.8358 -51.8348 -51.8324
   -51.8314 -51.8302 -51.8280 -51.8272 -51.8255 -51.8251 -51.8236 -51.8227
   -51.8213 -51.8162 -51.8153 -51.8142 -51.8109 -51.8099 -51.8087 -51.8068
   -51.8055 -51.8047 -51.8039 -51.8026 -51.8004 -51.7988 -51.7972 -51.7957
   -51.7938 -51.7895 -51.7844 -51.7824 -51.7796 -51.7757 -51.7720 -51.7680
   -51.7676 -51.7665 -51.7656 -51.7643 -51.7615 -51.7586 -51.7581 -51.7566
   -51.7556 -51.7541 -51.7527 -51.7488 -51.7472 -51.7442 -51.7400 -51.7380
   -51.7375 -51.7357 -51.7333 -51.7299 -51.7277 -51.7243 -51.7233 -51.7119
   -51.7098 -51.7068 -51.7048 -51.7026 -51.6979 -51.6968 -51.6957 -51.6945
   -51.6935 -51.6928 -51.6911 -51.6905 -51.6898 -51.6889 -51.6869 -51.6866
   -51.6856 -51.6843 -51.6841 -51.6833 -51.6820 -51.6800 -51.6794 -51.6788
   -51.6762 -51.6749 -51.6715 -51.6705 -51.6694 -51.6659 -51.6645 -51.6579
    -5.3319  -5.0375  -4.7554  -4.4070  -3.9797  -3.8917  -3.6744  -3.4631
    -3.3262  -2.8463  -2.7915  -2.6878  -2.6644  -2.6365  -2.5932  -2.5416
    -2.5205  -2.4383  -2.4061  -2.3564  -2.3397  -2.3316  -2.2869  -2.2319
    -2.2030  -2.1936  -2.1813  -2.1531  -2.1494  -2.1421  -2.1283  -2.0820
    -2.0281  -2.0215  -2.0089  -2.0007  -1.9865  -1.9549  -1.9331  -1.9095
    -1.9038  -1.8942  -1.8749  -1.8414  -1.7804  -1.7613  -1.7391  -1.7171
    -1.7045  -1.6668  -1.6581  -1.6360  -1.6050  -1.5784  -1.5626  -1.5517
    -1.5439  -1.5331  -1.5042  -1.4810  -1.4727  -1.4596  -1.4178  -1.4066
    -1.3863  -1.3712  -1.3628  -1.3559  -1.3097  -1.2671  -1.2575  -1.2003
    -1.1647  -1.1013  -1.0912  -1.0808  -1.0681  -1.0657  -1.0654  -1.0501
    -1.0445  -1.0418  -1.0119  -0.9697  -0.9657  -0.9323  -0.9227  -0.9199
    -0.9134  -0.9025  -0.8928  -0.8636  -0.8623  -0.8561  -0.8504  -0.8468
    -0.8448  -0.8397  -0.8336  -0.8299  -0.8166  -0.8031  -0.7906  -0.7702
    -0.7637  -0.7581  -0.7391  -0.7294  -0.7212  -0.7147  -0.7087  -0.7000
    -0.6872  -0.6736  -0.6540  -0.6291  -0.6178  -0.6139  -0.6102  -0.5970
    -0.5925  -0.5851  -0.5786  -0.5763  -0.5571  -0.5458  -0.5386  -0.5369
    -0.5326  -0.5270  -0.5062  -0.4955  -0.4811  -0.4675  -0.4566  -0.4340
    -0.4225  -0.3716  -0.3206  -0.2996  -0.2897  -0.2882  -0.2845  -0.2672
    -0.2560  -0.2522  -0.2495  -0.2424  -0.2364  -0.2209  -0.2159  -0.2080
    -0.2031  -0.2005  -0.1951  -0.1901  -0.1546  -0.1493  -0.1382  -0.1282
    -0.1236  -0.1179  -0.0776  -0.0365  -0.0175   0.0096   0.0202   0.0441
     0.0555   0.0862   0.1043   0.1303   0.1440   0.1477   0.2004   0.2264
     0.2532   0.2703   0.2920   0.3002   0.3262   0.3598   0.3885   0.4001
     0.4183   0.4447   0.4559   0.4596   0.4647   0.4844   0.4957   0.5108
     0.5142   0.5252   0.5299   0.5394   0.5772   0.5951   0.6143   0.6369
     0.6461   0.6609   0.6748   0.6894   0.6938   0.7063   0.7229   0.7337
     0.7389   0.7503   0.7628   0.7697   0.7728   0.7869   0.7972   0.8031
     0.8127   0.8427   0.8484   0.8663   0.8758   0.8845   0.8909   0.8943
     0.8988   0.9007   0.9047   0.9096   0.9204   0.9313   0.9342   0.9406
     0.9516   0.9751   0.9955   1.0007   1.0089   1.0202   1.0277   1.0372
     1.0425   1.0465   1.0539   1.0547   1.0694   1.0740   1.0776   1.0898
     1.1047   1.1147   1.1188   1.1245   1.1303   1.1319   1.1372   1.1631
     1.1685   1.1727   1.1780   1.1803   1.1845   1.1927   1.2079   1.2139
     1.2170   1.2188   1.2247   1.2335   1.2372   1.2508   1.2536   1.2628
     1.2737   1.2809   1.2834   1.2875   1.2912   1.3041   1.3086   1.3144
     1.3159   1.3208   1.3281   1.3308   1.3329   1.3465   1.3662   1.3894
     1.3937   1.4050   1.4133   1.4237   1.4335   1.4413   1.4556   1.4739
     1.4784   1.4941   1.5353   1.5638   1.5787   1.5855   1.5932   1.5979
     1.6420   1.6725   1.6777   1.6880   1.7291   1.7372   1.7488   1.7556
     1.7633   1.7989   1.8221   1.8280   1.8340   1.8408   1.8705   1.9062
     1.9118   1.9193   1.9598   1.9639   1.9758   1.9778   2.0127   2.0325
     2.0443   2.0502   2.0709   2.0785   2.0858   2.0964   2.1068   2.1289
     2.1396   2.1624   2.1732   2.2019   2.2915   2.3401   2.4195   2.5284
     2.5970   2.6911   2.8191   2.9192   2.9853   3.0252   3.0658   3.1602
     3.3978   3.4871   3.6033   3.7294   3.7901   3.8712   3.9033   3.9731

          k = 0.2500-0.3536 0.0000 (128397 PWs)   bands (ev):

   -85.9497 -85.9411 -85.9332 -85.9326 -85.9246 -85.9207 -85.9187 -85.9176
   -85.9172 -85.9134 -85.9132 -85.9131 -85.9092 -85.9087 -85.9055 -85.9014
   -85.9013 -85.9005 -85.9003 -85.8978 -85.8947 -85.8938 -85.8933 -85.8932
   -85.8855 -85.8855 -85.8820 -85.8776 -85.8741 -85.8722 -85.8636 -85.8538
   -85.8058 -85.7988 -85.7943 -85.7822 -85.7794 -85.7766 -85.7763 -85.7721
   -85.7700 -85.7677 -85.7659 -85.7638 -85.7630 -85.7607 -85.7596 -85.7568
   -85.7562 -85.7550 -85.7536 -85.7521 -85.7503 -85.7498 -85.7484 -85.7452
   -85.7446 -85.7433 -85.7405 -85.7405 -85.7369 -85.7277 -85.7235 -85.7176
   -52.1364 -52.1297 -52.1229 -52.1218 -52.1130 -52.1082 -52.1043 -52.1038
   -52.1032 -52.1024 -52.1018 -52.1002 -52.0996 -52.0987 -52.0934 -52.0925
   -52.0905 -52.0900 -52.0878 -52.0852 -52.0831 -52.0823 -52.0803 -52.0800
   -52.0763 -52.0709 -52.0694 -52.0671 -52.0611 -52.0563 -52.0525 -52.0500
   -52.0470 -52.0438 -52.0412 -52.0375 -52.0351 -52.0324 -52.0317 -52.0288
   -52.0258 -52.0227 -52.0203 -52.0194 -52.0143 -52.0062 -51.9931 -51.9901
   -51.9773 -51.9754 -51.9716 -51.9700 -51.9601 -51.9585 -51.9564 -51.9558
   -51.9530 -51.9506 -51.9499 -51.9497 -51.9474 -51.9467 -51.9415 -51.9407
   -51.9395 -51.9360 -51.9351 -51.9330 -51.9306 -51.9298 -51.9270 -51.9212
   -51.9198 -51.9155 -51.9152 -51.9107 -51.9073 -51.9049 -51.9000 -51.8974
   -51.8935 -51.8908 -51.8901 -51.8870 -51.8849 -51.8845 -51.8827 -51.8815
   -51.8742 -51.8729 -51.8670 -51.8646 -51.8620 -51.8606 -51.8604 -51.8601
   -51.8575 -51.8542 -51.8518 -51.8494 -51.8458 -51.8394 -51.8355 -51.8328
   -51.8297 -51.8282 -51.8277 -51.8273 -51.8267 -51.8264 -51.8239 -51.8233
   -51.8231 -51.8221 -51.8197 -51.8190 -51.8158 -51.8140 -51.8114 -51.8109
   -51.8098 -51.8077 -51.8015 -51.8005 -51.7998 -51.7985 -51.7964 -51.7942
   -51.7927 -51.7913 -51.7883 -51.7850 -51.7826 -51.7750 -51.7734 -51.7720
   -51.7695 -51.7680 -51.7623 -51.7603 -51.7595 -51.7593 -51.7588 -51.7553
   -51.7544 -51.7517 -51.7509 -51.7502 -51.7495 -51.7480 -51.7432 -51.7415
   -51.7355 -51.7334 -51.7313 -51.7309 -51.7295 -51.7288 -51.7285 -51.7265
   -51.7148 -51.7118 -51.7091 -51.7086 -51.7043 -51.7036 -51.7012 -51.6979
   -51.6962 -51.6959 -51.6934 -51.6921 -51.6914 -51.6891 -51.6885 -51.6868
   -51.6841 -51.6834 -51.6813 -51.6735 -51.6714 -51.6713 -51.6707 -51.6700
   -51.6692 -51.6689 -51.6663 -51.6659 -51.6642 -51.6636 -51.6604 -51.6579
    -5.4408  -4.9128  -4.8124  -4.4441  -3.9736  -3.6623  -3.4424  -3.3144
    -3.3087  -3.2321  -3.0219  -3.0133  -2.7351  -2.4741  -2.4717  -2.4697
    -2.4535  -2.4173  -2.4158  -2.3918  -2.3900  -2.3829  -2.3538  -2.3526
    -2.2493  -2.2294  -2.2037  -2.1819  -2.1772  -2.1330  -2.0427  -2.0079
    -1.9935  -1.9917  -1.9632  -1.9605  -1.9318  -1.9275  -1.9224  -1.9160
    -1.8901  -1.8795  -1.8399  -1.8206  -1.8131  -1.7996  -1.7580  -1.7465
    -1.7041  -1.6956  -1.6489  -1.6124  -1.5518  -1.5513  -1.5497  -1.5323
    -1.5107  -1.5079  -1.5038  -1.5023  -1.5005  -1.4908  -1.4476  -1.4309
    -1.4000  -1.3655  -1.3189  -1.2784  -1.2692  -1.1903  -1.1860  -1.1609
    -1.1252  -1.0882  -1.0870  -1.0683  -1.0517  -1.0277  -1.0251  -1.0229
    -1.0097  -1.0079  -1.0020  -0.9929  -0.9866  -0.9819  -0.9742  -0.9546
    -0.9538  -0.9513  -0.9398  -0.9261  -0.9181  -0.9122  -0.8827  -0.8698
    -0.8507  -0.8475  -0.8435  -0.8329  -0.8216  -0.8120  -0.8065  -0.8037
    -0.7933  -0.7898  -0.7621  -0.7163  -0.6940  -0.6915  -0.6865  -0.6806
    -0.6762  -0.6748  -0.6688  -0.6592  -0.6475  -0.6463  -0.6413  -0.6264
    -0.6104  -0.5788  -0.5784  -0.5509  -0.5106  -0.5059  -0.4797  -0.4661
    -0.4118  -0.4106  -0.4099  -0.3691  -0.3651  -0.3604  -0.3418  -0.3340
    -0.3311  -0.3283  -0.3237  -0.3231  -0.3213  -0.3188  -0.3140  -0.3101
    -0.3010  -0.2997  -0.2955  -0.2881  -0.2731  -0.2724  -0.2648  -0.2646
    -0.2277  -0.2198  -0.2103  -0.1727  -0.1435  -0.1332  -0.1220  -0.1119
    -0.0704  -0.0680  -0.0348  -0.0077   0.0001   0.0364   0.0509   0.0600
     0.0637   0.0755   0.0815   0.1141   0.1533   0.1799   0.2518   0.2581
     0.2598   0.2696   0.2880   0.3124   0.3250   0.3594   0.3713   0.3868
     0.4090   0.4187   0.4207   0.4310   0.4379   0.4489   0.4499   0.4538
     0.4605   0.4666   0.5211   0.5299   0.5849   0.5980   0.6024   0.6192
     0.6211   0.6719   0.6787   0.6845   0.6886   0.6914   0.7019   0.7038
     0.7303   0.7323   0.7486   0.7573   0.7997   0.8240   0.8259   0.8289
     0.8307   0.8345   0.8383   0.8623   0.8638   0.9070   0.9149   0.9163
     0.9199   0.9265   0.9452   0.9463   0.9504   0.9554   0.9860   0.9907
     0.9935   1.0011   1.0049   1.0264   1.0279   1.0344   1.0402   1.0453
     1.0522   1.0556   1.0610   1.0631   1.0694   1.0700   1.0744   1.0820
     1.1010   1.1019   1.1026   1.1080   1.1104   1.1165   1.1190   1.1209
     1.1239   1.1364   1.1449   1.1468   1.1599   1.1608   1.1621   1.1638
     1.1711   1.1735   1.1832   1.1860   1.1924   1.1971   1.2098   1.2139
     1.2178   1.2291   1.2558   1.2610   1.2637   1.2657   1.2684   1.2699
     1.2720   1.2726   1.2904   1.2953   1.3084   1.3157   1.3374   1.3606
     1.3629   1.3774   1.3872   1.3895   1.3943   1.4000   1.4271   1.4337
     1.4981   1.5100   1.5279   1.5345   1.5370   1.5412   1.5481   1.5601
     1.5643   1.5848   1.5911   1.6062   1.6092   1.6165   1.6846   1.6871
     1.7180   1.7330   1.7381   1.7527   1.7762   1.8332   1.8706   1.9174
     1.9286   1.9567   1.9734   1.9755   1.9771   1.9786   1.9933   1.9987
     2.0223   2.0326   2.0360   2.0487   2.0529   2.0541   2.0580   2.0908
     2.1023   2.1073   2.1125   2.4300   2.5944   2.6413   2.7019   2.7576
     2.9262   2.9360   2.9419   2.9964   3.0164   3.1133   3.1210   3.1275
     3.1648   3.4979   3.6028   3.6908   3.7086   3.7691   4.3853   4.4891

          k =-0.5000 0.1768 0.0000 (128388 PWs)   bands (ev):

   -85.9497 -85.9396 -85.9383 -85.9243 -85.9242 -85.9237 -85.9201 -85.9199
   -85.9193 -85.9142 -85.9128 -85.9099 -85.9078 -85.9053 -85.9046 -85.9029
   -85.9026 -85.9025 -85.8996 -85.8987 -85.8981 -85.8943 -85.8923 -85.8881
   -85.8871 -85.8863 -85.8804 -85.8789 -85.8750 -85.8712 -85.8637 -85.8538
   -85.8049 -85.8017 -85.7880 -85.7867 -85.7813 -85.7789 -85.7728 -85.7704
   -85.7693 -85.7672 -85.7663 -85.7642 -85.7639 -85.7604 -85.7595 -85.7583
   -85.7560 -85.7541 -85.7527 -85.7522 -85.7508 -85.7503 -85.7484 -85.7466
   -85.7455 -85.7432 -85.7410 -85.7377 -85.7339 -85.7324 -85.7213 -85.7183
   -52.1361 -52.1295 -52.1267 -52.1137 -52.1130 -52.1125 -52.1083 -52.1038
   -52.1032 -52.1028 -52.1018 -52.0984 -52.0978 -52.0960 -52.0955 -52.0914
   -52.0904 -52.0899 -52.0878 -52.0864 -52.0842 -52.0835 -52.0824 -52.0764
   -52.0742 -52.0732 -52.0693 -52.0666 -52.0626 -52.0551 -52.0504 -52.0488
   -52.0459 -52.0440 -52.0435 -52.0423 -52.0381 -52.0356 -52.0353 -52.0302
   -52.0231 -52.0204 -52.0113 -52.0053 -52.0043 -52.0035 -51.9990 -51.9931
   -51.9862 -51.9856 -51.9811 -51.9755 -51.9720 -51.9713 -51.9636 -51.9602
   -51.9478 -51.9449 -51.9444 -51.9431 -51.9397 -51.9386 -51.9369 -51.9349
   -51.9333 -51.9300 -51.9261 -51.9249 -51.9242 -51.9236 -51.9187 -51.9172
   -51.9157 -51.9154 -51.9146 -51.9131 -51.9111 -51.9055 -51.9047 -51.9034
   -51.9009 -51.9008 -51.8988 -51.8943 -51.8927 -51.8926 -51.8917 -51.8911
   -51.8831 -51.8783 -51.8682 -51.8664 -51.8588 -51.8560 -51.8532 -51.8525
   -51.8514 -51.8491 -51.8448 -51.8432 -51.8406 -51.8382 -51.8337 -51.8319
   -51.8296 -51.8278 -51.8271 -51.8263 -51.8255 -51.8244 -51.8240 -51.8231
   -51.8223 -51.8210 -51.8193 -51.8171 -51.8141 -51.8128 -51.8112 -51.8103
   -51.8094 -51.8072 -51.8061 -51.8049 -51.8026 -51.8011 -51.7982 -51.7966
   -51.7882 -51.7877 -51.7872 -51.7856 -51.7829 -51.7816 -51.7755 -51.7737
   -51.7709 -51.7700 -51.7663 -51.7645 -51.7607 -51.7598 -51.7580 -51.7563
   -51.7540 -51.7522 -51.7510 -51.7504 -51.7485 -51.7470 -51.7448 -51.7442
   -51.7399 -51.7339 -51.7312 -51.7300 -51.7266 -51.7259 -51.7245 -51.7241
   -51.7171 -51.7163 -51.7076 -51.7064 -51.6969 -51.6960 -51.6955 -51.6934
   -51.6925 -51.6916 -51.6914 -51.6905 -51.6891 -51.6879 -51.6868 -51.6866
   -51.6853 -51.6846 -51.6836 -51.6830 -51.6809 -51.6798 -51.6774 -51.6771
   -51.6740 -51.6717 -51.6648 -51.6647 -51.6621 -51.6587 -51.6555 -51.6527
    -5.3297  -5.2498  -4.5198  -4.1317  -4.1161  -4.0528  -3.6289  -3.2329
    -3.2190  -3.0849  -2.9946  -2.7228  -2.7212  -2.6970  -2.6035  -2.5885
    -2.5415  -2.4567  -2.4509  -2.4268  -2.3822  -2.2989  -2.2549  -2.1840
    -2.1825  -2.1716  -2.1668  -2.1566  -2.1525  -2.1245  -2.1237  -2.1136
    -2.0988  -2.0277  -2.0252  -1.9652  -1.9588  -1.9539  -1.8593  -1.8036
    -1.8025  -1.7957  -1.7930  -1.7285  -1.7218  -1.7146  -1.7074  -1.6986
    -1.6941  -1.6926  -1.6812  -1.6723  -1.6716  -1.6700  -1.6347  -1.5577
    -1.5556  -1.5543  -1.5390  -1.5324  -1.5305  -1.5260  -1.4310  -1.4262
    -1.3989  -1.3593  -1.3387  -1.3189  -1.3105  -1.2453  -1.2077  -1.0991
    -1.0908  -1.0621  -1.0615  -1.0385  -1.0367  -1.0229  -1.0152  -1.0130
    -0.9984  -0.9956  -0.9888  -0.9868  -0.9810  -0.9780  -0.9719  -0.9527
    -0.9508  -0.9501  -0.9486  -0.9477  -0.9339  -0.9086  -0.8989  -0.8562
    -0.8386  -0.8229  -0.8204  -0.8119  -0.7980  -0.7845  -0.7771  -0.7651
    -0.7610  -0.7579  -0.7538  -0.7522  -0.7513  -0.7491  -0.7454  -0.7402
    -0.7252  -0.6932  -0.6919  -0.6901  -0.6882  -0.6850  -0.6235  -0.5357
    -0.5337  -0.4874  -0.4740  -0.4383  -0.4347  -0.4342  -0.4315  -0.4218
    -0.4188  -0.4113  -0.4104  -0.4047  -0.4009  -0.3977  -0.3889  -0.3853
    -0.3767  -0.3751  -0.3720  -0.3474  -0.3424  -0.3404  -0.3336  -0.3311
    -0.3112  -0.2825  -0.2766  -0.2690  -0.2654  -0.2457  -0.2398  -0.2117
    -0.2078  -0.2012  -0.1978  -0.1939  -0.1614  -0.1472  -0.1348  -0.1152
    -0.0948  -0.0911  -0.0784  -0.0681  -0.0031   0.0436   0.0546   0.0605
     0.0672   0.0688   0.0864   0.0933   0.0989   0.1024   0.1231   0.1373
     0.2028   0.2386   0.3452   0.3710   0.3733   0.3767   0.3854   0.3902
     0.4076   0.4347   0.4396   0.4507   0.4800   0.5249   0.5301   0.5399
     0.5420   0.5543   0.5635   0.5675   0.5696   0.5726   0.5888   0.5903
     0.5919   0.5991   0.6088   0.6249   0.7041   0.7066   0.7308   0.7350
     0.7383   0.7396   0.7458   0.7469   0.7698   0.7787   0.8469   0.8514
     0.8660   0.8710   0.8758   0.8763   0.8795   0.8862   0.8879   0.8890
     0.8908   0.8921   0.8987   0.8987   0.9160   0.9198   0.9231   0.9241
     0.9256   0.9274   0.9294   0.9346   1.0105   1.0123   1.0430   1.0484
     1.0508   1.0527   1.0536   1.0558   1.0733   1.0758   1.0822   1.0875
     1.0898   1.0926   1.0959   1.0985   1.1030   1.1060   1.1107   1.1129
     1.1187   1.1299   1.1325   1.1364   1.1676   1.1705   1.1764   1.1796
     1.1861   1.1875   1.2322   1.2346   1.2394   1.2434   1.2476   1.2498
     1.2658   1.2803   1.2833   1.3024   1.3241   1.3274   1.3286   1.3346
     1.3348   1.3364   1.3404   1.3467   1.3501   1.3509   1.3536   1.3549
     1.3580   1.3620   1.3624   1.3664   1.3671   1.3700   1.3735   1.3750
     1.4325   1.4399   1.4626   1.4664   1.5261   1.5373   1.5785   1.5838
     1.6200   1.6258   1.6294   1.6325   1.7328   1.7497   1.7523   1.7539
     1.7665   1.7801   1.7838   1.8335   1.8350   1.8385   1.8499   1.8533
     1.8785   1.8808   1.9061   1.9095   1.9251   1.9271   2.0028   2.0074
     2.0368   2.0399   2.0735   2.0793   2.1003   2.1138   2.1227   2.1251
     2.1456   2.1511   2.1536   2.1656   2.1695   2.1891   2.4609   2.5068
     2.5832   2.6528   2.9982   3.1494   3.1674   3.1729   3.5977   3.7951
     3.8198   3.8378   3.9302   3.9623   3.9920   4.0127   4.0200   4.0213

          k =-0.5000 0.4419 0.0000 (128422 PWs)   bands (ev):

   -85.9496 -85.9387 -85.9367 -85.9303 -85.9264 -85.9231 -85.9200 -85.9173
   -85.9144 -85.9138 -85.9133 -85.9115 -85.9078 -85.9066 -85.9051 -85.9045
   -85.9033 -85.9028 -85.8990 -85.8977 -85.8950 -85.8937 -85.8921 -85.8895
   -85.8876 -85.8867 -85.8803 -85.8780 -85.8753 -85.8717 -85.8635 -85.8539
   -85.8043 -85.7998 -85.7937 -85.7879 -85.7799 -85.7759 -85.7720 -85.7712
   -85.7679 -85.7666 -85.7654 -85.7646 -85.7637 -85.7612 -85.7595 -85.7577
   -85.7563 -85.7555 -85.7551 -85.7522 -85.7498 -85.7487 -85.7485 -85.7469
   -85.7460 -85.7441 -85.7422 -85.7389 -85.7331 -85.7281 -85.7224 -85.7191
   -52.1363 -52.1287 -52.1239 -52.1211 -52.1118 -52.1098 -52.1083 -52.1041
   -52.1032 -52.1020 -52.0996 -52.0985 -52.0973 -52.0954 -52.0946 -52.0938
   -52.0925 -52.0900 -52.0888 -52.0867 -52.0852 -52.0819 -52.0794 -52.0773
   -52.0762 -52.0730 -52.0680 -52.0665 -52.0618 -52.0556 -52.0496 -52.0418
   -52.0393 -52.0367 -52.0359 -52.0346 -52.0328 -52.0295 -52.0271 -52.0236
   -52.0216 -52.0158 -52.0124 -52.0108 -52.0070 -52.0000 -51.9985 -51.9958
   -51.9922 -51.9915 -51.9891 -51.9853 -51.9797 -51.9748 -51.9679 -51.9649
   -51.9636 -51.9610 -51.9500 -51.9490 -51.9459 -51.9427 -51.9402 -51.9374
   -51.9361 -51.9345 -51.9320 -51.9266 -51.9208 -51.9191 -51.9179 -51.9173
   -51.9162 -51.9154 -51.9138 -51.9127 -51.9114 -51.9102 -51.9075 -51.9049
   -51.9004 -51.8993 -51.8978 -51.8943 -51.8904 -51.8848 -51.8838 -51.8823
   -51.8812 -51.8794 -51.8769 -51.8755 -51.8662 -51.8616 -51.8539 -51.8528
   -51.8510 -51.8475 -51.8434 -51.8381 -51.8366 -51.8359 -51.8350 -51.8323
   -51.8312 -51.8303 -51.8280 -51.8272 -51.8255 -51.8250 -51.8236 -51.8227
   -51.8213 -51.8163 -51.8155 -51.8142 -51.8109 -51.8099 -51.8085 -51.8067
   -51.8055 -51.8048 -51.8039 -51.8026 -51.8004 -51.7989 -51.7972 -51.7957
   -51.7939 -51.7896 -51.7844 -51.7823 -51.7795 -51.7756 -51.7720 -51.7680
   -51.7676 -51.7665 -51.7656 -51.7643 -51.7615 -51.7586 -51.7580 -51.7566
   -51.7556 -51.7541 -51.7527 -51.7490 -51.7474 -51.7439 -51.7398 -51.7380
   -51.7375 -51.7359 -51.7332 -51.7299 -51.7277 -51.7243 -51.7233 -51.7119
   -51.7097 -51.7067 -51.7048 -51.7029 -51.6979 -51.6969 -51.6957 -51.6945
   -51.6936 -51.6928 -51.6912 -51.6904 -51.6898 -51.6888 -51.6868 -51.6867
   -51.6857 -51.6846 -51.6839 -51.6830 -51.6821 -51.6799 -51.6793 -51.6787
   -51.6762 -51.6749 -51.6711 -51.6707 -51.6692 -51.6661 -51.6646 -51.6579
    -5.3319  -5.0375  -4.7554  -4.4070  -3.9796  -3.8917  -3.6744  -3.4631
    -3.3263  -2.8464  -2.7915  -2.6878  -2.6643  -2.6365  -2.5932  -2.5416
    -2.5205  -2.4384  -2.4060  -2.3564  -2.3397  -2.3316  -2.2869  -2.2318
    -2.2031  -2.1939  -2.1813  -2.1531  -2.1491  -2.1421  -2.1283  -2.0820
    -2.0281  -2.0214  -2.0089  -2.0006  -1.9865  -1.9549  -1.9331  -1.9096
    -1.9038  -1.8939  -1.8749  -1.8414  -1.7805  -1.7613  -1.7391  -1.7168
    -1.7045  -1.6668  -1.6581  -1.6360  -1.6051  -1.5784  -1.5625  -1.5516
    -1.5440  -1.5331  -1.5042  -1.4810  -1.4727  -1.4596  -1.4177  -1.4067
    -1.3864  -1.3714  -1.3627  -1.3559  -1.3098  -1.2671  -1.2574  -1.2005
    -1.1647  -1.1012  -1.0912  -1.0807  -1.0682  -1.0658  -1.0654  -1.0501
    -1.0445  -1.0419  -1.0121  -0.9696  -0.9657  -0.9321  -0.9227  -0.9197
    -0.9134  -0.9027  -0.8928  -0.8636  -0.8620  -0.8561  -0.8504  -0.8470
    -0.8448  -0.8403  -0.8335  -0.8298  -0.8165  -0.8030  -0.7905  -0.7701
    -0.7637  -0.7582  -0.7393  -0.7294  -0.7209  -0.7150  -0.7088  -0.7001
    -0.6871  -0.6736  -0.6539  -0.6290  -0.6179  -0.6143  -0.6104  -0.5968
    -0.5925  -0.5850  -0.5785  -0.5760  -0.5570  -0.5459  -0.5386  -0.5368
    -0.5325  -0.5271  -0.5064  -0.4955  -0.4811  -0.4676  -0.4566  -0.4342
    -0.4224  -0.3716  -0.3212  -0.2996  -0.2895  -0.2880  -0.2843  -0.2672
    -0.2558  -0.2520  -0.2496  -0.2424  -0.2364  -0.2208  -0.2159  -0.2081
    -0.2031  -0.2005  -0.1951  -0.1902  -0.1546  -0.1494  -0.1381  -0.1283
    -0.1237  -0.1180  -0.0775  -0.0365  -0.0175   0.0096   0.0206   0.0440
     0.0556   0.0863   0.1042   0.1302   0.1440   0.1477   0.2003   0.2265
     0.2532   0.2704   0.2922   0.3001   0.3261   0.3598   0.3885   0.4001
     0.4183   0.4446   0.4560   0.4596   0.4648   0.4844   0.4958   0.5107
     0.5143   0.5252   0.5299   0.5393   0.5771   0.5952   0.6143   0.6368
     0.6460   0.6609   0.6747   0.6895   0.6938   0.7063   0.7230   0.7337
     0.7390   0.7502   0.7627   0.7699   0.7729   0.7868   0.7972   0.8031
     0.8127   0.8427   0.8484   0.8664   0.8759   0.8845   0.8909   0.8942
     0.8988   0.9007   0.9049   0.9096   0.9204   0.9310   0.9343   0.9407
     0.9516   0.9751   0.9954   1.0006   1.0089   1.0201   1.0277   1.0372
     1.0428   1.0464   1.0539   1.0548   1.0694   1.0741   1.0777   1.0898
     1.1047   1.1144   1.1183   1.1246   1.1303   1.1326   1.1371   1.1630
     1.1686   1.1727   1.1780   1.1805   1.1843   1.1929   1.2075   1.2138
     1.2169   1.2191   1.2246   1.2335   1.2371   1.2508   1.2540   1.2628
     1.2736   1.2810   1.2835   1.2874   1.2914   1.3040   1.3085   1.3144
     1.3157   1.3206   1.3282   1.3307   1.3330   1.3465   1.3662   1.3894
     1.3937   1.4050   1.4133   1.4239   1.4333   1.4413   1.4556   1.4739
     1.4786   1.4940   1.5352   1.5639   1.5786   1.5849   1.5933   1.5984
     1.6423   1.6724   1.6774   1.6881   1.7291   1.7374   1.7489   1.7558
     1.7632   1.7987   1.8221   1.8280   1.8340   1.8410   1.8705   1.9061
     1.9118   1.9192   1.9598   1.9637   1.9757   1.9774   2.0134   2.0325
     2.0438   2.0504   2.0706   2.0795   2.0853   2.0968   2.1069   2.1289
     2.1397   2.1624   2.1729   2.2019   2.2915   2.3401   2.4195   2.5283
     2.5969   2.6912   2.8190   2.9189   2.9853   3.0253   3.0659   3.1602
     3.3979   3.4872   3.6032   3.7294   3.7901   3.8708   3.9034   3.9733

          k =-0.5000-0.3536 0.0000 (128560 PWs)   bands (ev):

   -85.9496 -85.9362 -85.9350 -85.9326 -85.9320 -85.9210 -85.9195 -85.9187
   -85.9123 -85.9121 -85.9113 -85.9100 -85.9087 -85.9084 -85.9075 -85.9075
   -85.9043 -85.9009 -85.8986 -85.8964 -85.8937 -85.8926 -85.8912 -85.8901
   -85.8894 -85.8876 -85.8798 -85.8778 -85.8747 -85.8728 -85.8632 -85.8541
   -85.8030 -85.7973 -85.7950 -85.7944 -85.7757 -85.7748 -85.7726 -85.7717
   -85.7679 -85.7670 -85.7640 -85.7639 -85.7612 -85.7607 -85.7601 -85.7598
   -85.7583 -85.7575 -85.7531 -85.7527 -85.7519 -85.7482 -85.7470 -85.7463
   -85.7454 -85.7451 -85.7432 -85.7415 -85.7292 -85.7266 -85.7234 -85.7206
   -52.1359 -52.1285 -52.1248 -52.1174 -52.1165 -52.1096 -52.1077 -52.1073
   -52.0998 -52.0996 -52.0986 -52.0976 -52.0963 -52.0955 -52.0953 -52.0947
   -52.0942 -52.0921 -52.0890 -52.0885 -52.0826 -52.0808 -52.0795 -52.0784
   -52.0752 -52.0746 -52.0671 -52.0667 -52.0604 -52.0564 -52.0488 -52.0350
   -52.0313 -52.0200 -52.0193 -52.0186 -52.0172 -52.0172 -52.0160 -52.0160
   -52.0153 -52.0152 -52.0142 -52.0116 -52.0099 -52.0069 -52.0054 -52.0048
   -52.0034 -52.0030 -52.0011 -51.9993 -51.9929 -51.9917 -51.9849 -51.9843
   -51.9679 -51.9675 -51.9517 -51.9514 -51.9473 -51.9441 -51.9406 -51.9398
   -51.9292 -51.9271 -51.9239 -51.9236 -51.9210 -51.9179 -51.9153 -51.9146
   -51.9144 -51.9133 -51.9132 -51.9112 -51.9106 -51.9105 -51.9057 -51.9053
   -51.9044 -51.9022 -51.9010 -51.8976 -51.8964 -51.8957 -51.8952 -51.8944
   -51.8940 -51.8930 -51.8751 -51.8721 -51.8618 -51.8603 -51.8593 -51.8591
   -51.8386 -51.8383 -51.8370 -51.8339 -51.8322 -51.8318 -51.8307 -51.8302
   -51.8297 -51.8294 -51.8270 -51.8267 -51.8259 -51.8257 -51.8219 -51.8218
   -51.8174 -51.8168 -51.8160 -51.8158 -51.8150 -51.8096 -51.8077 -51.8055
   -51.8052 -51.8031 -51.8019 -51.7994 -51.7885 -51.7881 -51.7872 -51.7859
   -51.7856 -51.7852 -51.7842 -51.7814 -51.7812 -51.7806 -51.7800 -51.7730
   -51.7721 -51.7684 -51.7683 -51.7670 -51.7647 -51.7629 -51.7602 -51.7573
   -51.7565 -51.7545 -51.7520 -51.7495 -51.7489 -51.7469 -51.7363 -51.7324
   -51.7318 -51.7314 -51.7307 -51.7300 -51.7103 -51.7089 -51.7079 -51.7054
   -51.7038 -51.7028 -51.7018 -51.6984 -51.6966 -51.6965 -51.6950 -51.6949
   -51.6920 -51.6910 -51.6903 -51.6899 -51.6891 -51.6890 -51.6886 -51.6879
   -51.6868 -51.6856 -51.6848 -51.6846 -51.6840 -51.6832 -51.6826 -51.6824
   -51.6821 -51.6810 -51.6809 -51.6802 -51.6772 -51.6768 -51.6715 -51.6667
    -5.1902  -5.0985  -4.6542  -4.5312  -4.2899  -3.9126  -3.6545  -3.3874
    -3.1638  -2.7600  -2.7593  -2.7585  -2.7545  -2.6000  -2.4924  -2.4502
    -2.4242  -2.3132  -2.3124  -2.3111  -2.3001  -2.2851  -2.2850  -2.2829
    -2.2817  -2.2445  -2.2122  -2.1590  -2.1590  -2.1568  -2.1532  -2.0891
    -2.0857  -2.0778  -2.0769  -2.0514  -1.9708  -1.9371  -1.9059  -1.8808
    -1.8673  -1.8446  -1.8438  -1.8009  -1.7916  -1.7617  -1.7610  -1.7586
    -1.7452  -1.7309  -1.7307  -1.7286  -1.7040  -1.6745  -1.6742  -1.6658
    -1.5739  -1.4572  -1.4566  -1.4537  -1.4407  -1.4240  -1.4220  -1.4188
    -1.4174  -1.4069  -1.3263  -1.2203  -1.2084  -1.1872  -1.1864  -1.1844
    -1.1475  -1.1145  -1.1133  -1.1130  -1.1101  -1.0829  -1.0810  -1.0785
    -1.0766  -1.0508  -1.0491  -1.0483  -1.0283  -0.9593  -0.9589  -0.9550
    -0.9147  -0.9087  -0.8997  -0.7963  -0.7937  -0.7907  -0.7875  -0.7687
    -0.7659  -0.7614  -0.7545  -0.7527  -0.7519  -0.7514  -0.7500  -0.7476
    -0.7452  -0.7309  -0.7292  -0.7250  -0.7249  -0.7239  -0.7146  -0.7075
    -0.6970  -0.6807  -0.6801  -0.6773  -0.6761  -0.6759  -0.6752  -0.6745
    -0.6708  -0.6695  -0.6494  -0.6474  -0.6422  -0.6271  -0.5907  -0.5849
    -0.5674  -0.5636  -0.5140  -0.5112  -0.5090  -0.5088  -0.4763  -0.4386
    -0.4370  -0.3339  -0.3309  -0.2771  -0.2762  -0.2687  -0.2480  -0.2429
    -0.2418  -0.2400  -0.2342  -0.2245  -0.2241  -0.2208  -0.1964  -0.1877
    -0.1833  -0.1822  -0.1798  -0.1751  -0.1739  -0.0985  -0.0971  -0.0955
    -0.0912  -0.0912  -0.0886  -0.0819  -0.0765  -0.0756  -0.0706  -0.0683
    -0.0551  -0.0499   0.0159   0.0214   0.0906   0.1689   0.1771   0.1834
     0.2295   0.3033   0.3227   0.3792   0.3899   0.3906   0.3919   0.3931
     0.4028   0.4070   0.5048   0.5317   0.5373   0.5460   0.5756   0.5809
     0.6087   0.6308   0.6313   0.6585   0.6663   0.6673   0.6682   0.6724
     0.6741   0.6826   0.6849   0.6904   0.6904   0.6922   0.6931   0.6937
     0.6956   0.6988   0.7026   0.7030   0.7064   0.7073   0.7471   0.7516
     0.7539   0.7611   0.8421   0.8572   0.8633   0.8677   0.8684   0.8710
     0.8726   0.8738   0.8910   0.8946   0.9022   0.9043   0.9164   0.9188
     0.9642   0.9711   0.9824   0.9829   0.9841   0.9854   1.0298   1.0365
     1.0380   1.0384   1.0401   1.0450   1.1046   1.1070   1.1097   1.1100
     1.1114   1.1128   1.1285   1.1293   1.1498   1.1524   1.1863   1.1878
     1.1914   1.1919   1.2185   1.2312   1.2522   1.2650   1.2690   1.2741
     1.2773   1.2777   1.2880   1.2904   1.2911   1.2917   1.2938   1.2946
     1.2952   1.2965   1.2977   1.2983   1.3002   1.3011   1.3030   1.3038
     1.3042   1.3048   1.3069   1.3073   1.3080   1.3093   1.4133   1.4200
     1.4718   1.4741   1.4995   1.5501   1.5563   1.5564   1.5831   1.5843
     1.5873   1.5986   1.6073   1.6084   1.6584   1.6603   1.6649   1.6662
     1.6676   1.6692   1.6818   1.6891   1.7208   1.7307   1.7531   1.7728
     1.7768   1.7769   1.8018   1.8090   1.8109   1.8130   1.9112   1.9142
     1.9151   1.9169   1.9190   1.9193   1.9492   1.9522   2.0442   2.0550
     2.0679   2.0755   2.0763   2.1554   2.1576   2.1592   2.1609   2.1665
     2.1981   2.2003   2.2021   2.2030   2.2356   2.2456   2.5020   2.6726
     2.6767   2.6774   2.6809   2.7032   2.8855   3.0489   3.0619   3.0636
     3.0995   3.1255   3.1429   3.1570   3.1641   3.1674   3.6167   3.6779

 ------ SPIN DOWN ----------


          k = 0.0000 0.0000 0.0000 (128403 PWs)   bands (ev):

   -82.9737 -82.9644 -82.9428 -82.9229 -82.9213 -82.9175 -82.9166 -82.9112
   -82.9109 -82.9039 -82.9001 -82.8918 -82.8913 -82.8894 -82.8885 -82.8875
   -82.8861 -82.8842 -82.8839 -82.8809 -82.8809 -82.8792 -82.8770 -82.8764
   -82.8731 -82.8710 -82.8699 -82.8691 -82.8670 -82.8667 -82.8566 -82.8550
   -82.8514 -82.8511 -82.8452 -82.8412 -82.8381 -82.8313 -82.8301 -82.8300
   -82.8288 -82.8287 -82.8265 -82.8257 -82.8209 -82.8164 -82.8157 -82.8156
[...]
     3.0493   3.0600   3.0962   3.1140   3.1287   3.1337   3.1591   3.1785
     3.1845   3.1913   3.1935   3.2246   3.2444   3.2527   3.2592   3.3041
     3.3734   3.3817   3.3996   3.4126   3.4168   3.4273   3.4349   3.4427
     3.4478   3.4534   3.4589   3.4658   3.4818   3.4899   3.5237   3.5551
     3.5971   3.6194   3.6352   3.6571   3.6654   3.6693   3.6793   3.6849
     3.7005   3.7247   3.7260   3.7343   3.7531   3.7573   3.7631   3.7698
     3.7970   3.8055   3.8116   3.8201   3.8289   3.8509   3.8556   3.8595
     3.8754   3.9005   3.9160   3.9283   3.9319   3.9333   3.9422   3.9463
     3.9541   3.9577   3.9754   3.9802   3.9834   3.9941   4.0077   4.0172
     4.0184   4.0226   4.0414   4.0514   4.0567   4.0715   4.0745   4.0805
     4.0884   4.0944   4.0983   4.1388   4.1531   4.1586   4.1621   4.1683
     4.1710   4.1829   4.1900   4.1921   4.1931   4.1964   4.2088   4.2121
     4.2231   4.2292   4.2433   4.2608   4.2652   4.2719   4.2880   4.2922
     4.2956   4.3038   4.3066   4.3106   4.3130   4.3159   4.3248   4.3444
     4.3473   4.3530   4.3679   4.3777   4.3863   4.3904   4.3954   4.4009
     4.4191   4.4276   4.4337   4.4726   4.4792   4.4886   4.5052   4.5122
     4.5281   4.5341   4.5361   4.5390   4.5403   4.5544   4.5657   4.5727
     4.6091   4.6124   4.6169   4.6340   4.6362   4.6590   4.6669   4.6883
     4.7703   4.8218   4.8880   4.9010   4.9132   5.0159   5.0812   5.1531
     5.2518   5.2893   5.3273   5.4372   5.4911   5.5069   5.5361   5.6528

          k =-0.5000-0.3536 0.0000 (128560 PWs)   bands (ev):

   -82.9733 -82.9644 -82.9383 -82.9340 -82.9285 -82.9272 -82.9125 -82.9074
   -82.9019 -82.9003 -82.8995 -82.8983 -82.8969 -82.8950 -82.8931 -82.8928
   -82.8897 -82.8883 -82.8861 -82.8838 -82.8812 -82.8789 -82.8772 -82.8756
   -82.8739 -82.8726 -82.8725 -82.8699 -82.8687 -82.8686 -82.8675 -82.8514
   -82.8495 -82.8483 -82.8470 -82.8387 -82.8372 -82.8367 -82.8355 -82.8348
   -82.8342 -82.8338 -82.8244 -82.8172 -82.8164 -82.8158 -82.8156 -82.8155
   -82.8153 -82.8149 -82.8142 -82.8136 -82.8133 -82.8129 -82.8127 -82.8089
   -82.8069 -82.7963 -82.7953 -82.7933 -82.7928 -82.7922 -82.7911 -82.7883
   -49.2508 -49.2215 -49.1956 -49.1894 -49.1890 -49.1855 -49.1833 -49.1816
   -49.1788 -49.1762 -49.1760 -49.1758 -49.1732 -49.1716 -49.1704 -49.1652
   -49.1633 -49.1632 -49.1628 -49.1616 -49.1572 -49.1557 -49.1520 -49.1497
   -49.1488 -49.1446 -49.1396 -49.1379 -49.1351 -49.1326 -49.1290 -49.1289
   -49.1191 -49.1168 -49.1149 -49.1095 -49.1064 -49.1032 -49.1006 -49.0987
   -49.0974 -49.0955 -49.0937 -49.0907 -49.0901 -49.0889 -49.0884 -49.0879
   -49.0877 -49.0873 -49.0864 -49.0851 -49.0835 -49.0818 -49.0785 -49.0780
   -49.0759 -49.0754 -49.0748 -49.0738 -49.0736 -49.0717 -49.0533 -49.0494
   -49.0394 -49.0370 -49.0344 -49.0296 -49.0280 -49.0273 -49.0222 -49.0180
   -49.0147 -49.0122 -49.0084 -49.0027 -48.9975 -48.9954 -48.9857 -48.9849
   -48.9806 -48.9797 -48.9789 -48.9779 -48.9750 -48.9730 -48.9720 -48.9717
   -48.9697 -48.9678 -48.9656 -48.9655 -48.9649 -48.9635 -48.9573 -48.9530
   -48.9507 -48.9482 -48.9436 -48.9433 -48.9421 -48.9398 -48.9365 -48.9354
   -48.9353 -48.9337 -48.9331 -48.9271 -48.9262 -48.9247 -48.9237 -48.9215
   -48.9215 -48.9174 -48.9122 -48.9106 -48.9084 -48.9055 -48.9050 -48.9007
   -48.8994 -48.8983 -48.8968 -48.8965 -48.8925 -48.8907 -48.8894 -48.8890
   -48.8870 -48.8848 -48.8806 -48.8795 -48.8765 -48.8748 -48.8737 -48.8733
   -48.8729 -48.8721 -48.8707 -48.8692 -48.8667 -48.8667 -48.8657 -48.8651
   -48.8642 -48.8629 -48.8625 -48.8622 -48.8596 -48.8549 -48.8540 -48.8526
   -48.8520 -48.8498 -48.8485 -48.8483 -48.8472 -48.8457 -48.8453 -48.8448
   -48.8446 -48.8438 -48.8433 -48.8433 -48.8424 -48.8421 -48.8419 -48.8408
   -48.8400 -48.8360 -48.8340 -48.8332 -48.8323 -48.8316 -48.8307 -48.8302
   -48.8298 -48.8292 -48.8289 -48.8286 -48.8206 -48.8204 -48.8187 -48.8163
   -48.8163 -48.8151 -48.8150 -48.8140 -48.8124 -48.8107 -48.8102 -48.8096
    -4.9716  -4.8909  -4.4082  -4.3058  -3.9792  -3.5978  -3.3047  -3.0548
    -2.7299  -2.3042  -2.3041  -2.3021  -2.2729  -1.8931  -1.7306  -1.4583
    -1.4568  -1.4539  -1.4525  -1.4515  -1.4262  -1.3588  -1.3240  -1.3210
    -1.3209  -1.3195  -1.1350  -0.8948  -0.8945  -0.8938  -0.8928  -0.8916
    -0.7837  -0.6817  -0.6564  -0.4249  -0.4108  -0.3938  -0.3925  -0.3893
    -0.3390  -0.3315  -0.3212  -0.2952  -0.2912  -0.2874  -0.2055  -0.1307
    -0.1287  -0.1197  -0.1126  -0.1003  -0.0418   0.1428   0.1443   0.1570
     0.1573   0.1628   0.1956   0.3794   0.4086   0.4297   0.4421   0.4814
     0.4825   0.5869   0.5971   0.6655   0.6662   0.6698   0.6700   0.6782
     0.6927   0.6953   0.7033   0.7040   0.7163   0.7954   0.8000   0.8019
     0.8038   0.8053   0.8067   0.8097   0.8105   0.8144   0.8145   0.8169
     0.9183   1.0193   1.0276   1.0365   1.0373   1.1655   1.1665   1.1684
     1.1773   1.1790   1.1810   1.2139   1.2220   1.2314   1.2333   1.2406
     1.2415   1.2442   1.2449   1.2605   1.2642   1.2690   1.2715   1.2892
     1.2955   1.2999   1.3005   1.3041   1.3074   1.3078   1.3099   1.3131
     1.3143   1.3490   1.3503   1.3562   1.3844   1.4065   1.4092   1.4113
     1.4137   1.4148   1.4148   1.4175   1.4179   1.4201   1.4260   1.4314
     1.4800   1.4862   1.5072   1.6124   1.6261   1.6826   1.6835   1.6875
     1.6890   1.7019   1.7098   1.7389   1.7431   1.7468   1.7750   1.8481
     1.8577   1.8603   1.8667   1.8705   1.8741   1.8748   1.9183   1.9240
     1.9321   1.9358   1.9565   1.9851   2.0507   2.1125   2.1126   2.1191
     2.1296   2.1863   2.1884   2.2028   2.2111   2.2140   2.2197   2.2245
     2.2320   2.2382   2.2402   2.2434   2.2997   2.3171   2.3174   2.3230
     2.3430   2.3513   2.5633   2.5960   2.6034   2.6663   2.6976   2.7107
     2.7660   2.7796   2.9298   2.9598   2.9654   2.9844   3.0201   3.0274
     3.0875   3.0980   3.1301   3.1348   3.1393   3.1433   3.1996   3.2132
     3.2220   3.2223   3.2595   3.2602   3.2655   3.2800   3.3520   3.3620
     3.3685   3.3770   3.3772   3.3829   3.4590   3.4631   3.4728   3.4795
     3.4839   3.4858   3.4888   3.4889   3.5048   3.5084   3.5123   3.5125
     3.5761   3.5826   3.5868   3.5875   3.6390   3.6469   3.6512   3.6536
     3.6772   3.6882   3.7226   3.7324   3.7839   3.7862   3.8304   3.8364
     3.8996   3.9079   3.9116   3.9187   3.9208   3.9251   3.9284   3.9287
     3.9347   3.9359   3.9532   3.9729   3.9738   3.9754   3.9787   3.9802
     3.9831   3.9840   3.9891   3.9902   4.0037   4.0101   4.0531   4.0560
     4.0566   4.0592   4.0639   4.0650   4.0849   4.0856   4.0877   4.0885
     4.0896   4.0910   4.1144   4.1236   4.1288   4.1291   4.1468   4.1522
     4.1602   4.1605   4.1651   4.1681   4.1696   4.1724   4.1742   4.1746
     4.2107   4.2129   4.2677   4.2761   4.2931   4.2968   4.3097   4.3098
     4.3143   4.3156   4.3452   4.3498   4.3509   4.3579   4.3610   4.3620
     4.3625   4.3630   4.3729   4.3730   4.3757   4.3773   4.3791   4.3796
     4.3809   4.3873   4.4276   4.4301   4.4363   4.4368   4.4379   4.4406
     4.4534   4.4567   4.4589   4.4636   4.4657   4.4671   4.5462   4.5479
     4.5489   4.5555   4.5585   4.5589   4.7177   4.7471   4.7635   4.7725
     4.9045   4.9737   4.9824   4.9834   4.9931   5.0404   5.0485   5.0510
     5.0558   5.0629   5.0710   5.0738   5.0883   5.0930   5.3246   5.3571

     the Fermi energy is     2.2175 ev

!    total energy              =  -21073.44660614 Ry
     Harris-Foulkes estimate   =  -21073.44660587 Ry
     estimated scf accuracy    <          4.5E-11 Ry

     The total energy is the sum of the following terms:

     one-electron contribution = -167132.10818466 Ry
     hartree contribution      =   83644.03818093 Ry
     xc contribution           =   -2228.95138256 Ry
     ewald contribution        =   69518.38135347 Ry
     Dispersion Correction     =      -1.37726487 Ry
     one-center paw contrib.   =   -4873.43015797 Ry
     smearing contrib. (-TS)   =       0.00084952 Ry

     total magnetization       =   162.51 Bohr mag/cell
     absolute magnetization    =   168.97 Bohr mag/cell

     convergence has been achieved in  10 iterations

     negative rho (up, down):  2.541E-02 1.745E-02

     Forces acting on atoms (cartesian axes, Ry/au):

     atom    1 type  1   force =     0.00016933    0.00015261    0.00961803
     atom    2 type  1   force =    -0.00003961   -0.00016850   -0.00859934
     atom    3 type  1   force =    -0.00010197   -0.00003546    0.00916490
     atom    4 type  1   force =    -0.00020157   -0.00018222   -0.00950544
     atom    5 type  1   force =     0.00001815    0.00004967    0.00010118
     atom    6 type  1   force =     0.00000460    0.00000850    0.00001966
     atom    7 type  1   force =    -0.00004441    0.00000529    0.00002589
     atom    8 type  1   force =     0.00004662    0.00001048   -0.00001086
     atom    9 type  1   force =     0.00007112    0.00006893    0.00956171
     atom   10 type  1   force =    -0.00004146   -0.00005790    0.00946861
     atom   11 type  1   force =     0.00026047    0.00010202   -0.00986750
     atom   12 type  1   force =     0.00002647    0.00011785   -0.00908829
     atom   13 type  1   force =     0.00004530   -0.00000345    0.00003961
     atom   14 type  1   force =    -0.00007814   -0.00007177   -0.00005412
     atom   15 type  1   force =    -0.00004079    0.00003237    0.00002376
     atom   16 type  1   force =     0.00011614    0.00008160    0.00006439
     atom   17 type  1   force =    -0.00004305   -0.00010771    0.00911802
     atom   18 type  1   force =    -0.00024394   -0.00007224   -0.00950252
     atom   19 type  1   force =     0.00002090    0.00014360    0.00924592
     atom   20 type  1   force =     0.00029056   -0.00053792   -0.00995071
     atom   21 type  1   force =     0.00001503   -0.00008681    0.00004925
     atom   22 type  1   force =     0.00004911   -0.00000900    0.00001833
     atom   23 type  1   force =     0.00000638   -0.00003333   -0.00001780
     atom   24 type  1   force =     0.00004287    0.00001981    0.00015833
     atom   25 type  1   force =     0.00012943    0.00006535    0.00916034
     atom   26 type  1   force =    -0.00021780    0.00012856    0.00960420
     atom   27 type  1   force =    -0.00024147   -0.00022052   -0.00924869
     atom   28 type  1   force =    -0.00020559   -0.00008981   -0.00937951
     atom   29 type  1   force =     0.00003598    0.00003700   -0.00004100
     atom   30 type  1   force =     0.00005381   -0.00009407   -0.00003299
     atom   31 type  1   force =     0.00004605   -0.00001253    0.00014667
     atom   32 type  1   force =     0.00008538    0.00006966   -0.00003580
     atom   33 type  1   force =    -0.00005289   -0.00032427    0.00970104
     atom   34 type  1   force =     0.00028635    0.00027697   -0.00971976
     atom   35 type  1   force =     0.00016347    0.00013191    0.00967746
     atom   36 type  1   force =    -0.00029696    0.00018375   -0.00858513
     atom   37 type  1   force =    -0.00000188    0.00002941    0.00000910
     atom   38 type  1   force =    -0.00001247    0.00006118    0.00006870
     atom   39 type  1   force =     0.00003266    0.00001734    0.00007892
     atom   40 type  1   force =     0.00004137   -0.00000937   -0.00003009
     atom   41 type  1   force =    -0.00002838    0.00000647    0.00846098
     atom   42 type  1   force =     0.00003176   -0.00022474    0.00968595
     atom   43 type  1   force =    -0.00021538   -0.00002785   -0.00930622
     atom   44 type  1   force =    -0.00024533   -0.00012872   -0.00936410
     atom   45 type  1   force =     0.00000014    0.00002540    0.00002323
     atom   46 type  1   force =    -0.00004925    0.00004829   -0.00000576
     atom   47 type  1   force =    -0.00001255   -0.00004656    0.00010279
     atom   48 type  1   force =     0.00014384    0.00003080   -0.00009725
     atom   49 type  1   force =     0.00016736   -0.00004620    0.00929900
     atom   50 type  1   force =    -0.00037719    0.00039313   -0.00991676
     atom   51 type  1   force =    -0.00035175    0.00006905    0.00965251
     atom   52 type  1   force =     0.00036302    0.00025125   -0.00972753
     atom   53 type  1   force =    -0.00000079   -0.00002762   -0.00003771
     atom   54 type  1   force =     0.00004883    0.00000914    0.00019102
     atom   55 type  1   force =     0.00000962   -0.00003639    0.00004448
     atom   56 type  1   force =     0.00006821   -0.00009618    0.00005522
     atom   57 type  1   force =     0.00002849    0.00007748    0.00956659
     atom   58 type  1   force =    -0.00012307   -0.00010868    0.00940907
     atom   59 type  1   force =     0.00019659    0.00028839   -0.00984788
     atom   60 type  1   force =    -0.00000409   -0.00003650   -0.00963998
     atom   61 type  1   force =     0.00004331    0.00002964    0.00003908
     atom   62 type  1   force =     0.00010950    0.00007829    0.00008205
     atom   63 type  1   force =     0.00000252   -0.00009182   -0.00010245
     atom   64 type  1   force =    -0.00003979   -0.00005899    0.00000473
     atom   65 type  2   force =     0.00004086   -0.00005406   -0.00002556

     Total force =     0.000591     Total SCF correction =     0.000019

     bfgs converged in  67 scf cycles and  66 bfgs steps
     (criteria: energy <  7.3E-07 Ry, force <  3.9E-04 Ry/Bohr)

     End of BFGS Geometry Optimization

     Final energy   =  -21073.4466061383 Ry
Begin final coordinates

ATOMIC_POSITIONS (angstrom)
Fe       1.654912953   1.170200133   0.000000000    0   0   0
Fe       0.000000000   0.000000000   2.026984232    0   0   0
Fe       4.964738858   3.510600399   0.000000000    0   0   0
Fe       3.309825906   2.340400266   2.026984232    0   0   0
Fe       1.650445154   1.168492614   4.026683079
Fe       3.304201718   9.369005408   6.007562406
Fe       4.962664720   3.509330591   4.029193226
Fe       3.299603850   2.340219757   6.001367506
Fe       2.482363858   3.510600399   0.000000000    0   0   0
Fe       4.137287953   1.170200133   0.000000000    0   0   0
Fe       0.827450906   2.340400266   2.026984232    0   0   0
Fe       2.482375000   0.000000000   2.026984232    0   0   0
Fe       2.480786837   3.510787823   4.027610032
Fe       4.134586534   1.168811350   4.027376428
Fe       0.825303932   2.342227202   6.005969527
Fe       2.475908492  -0.003691555   6.010395422
Fe       6.619662953   1.170200133   0.000000000    0   0   0
Fe       4.964750000   0.000000000   2.026984232    0   0   0
Fe       9.929488858   3.510600399   0.000000000    0   0   0
Fe       8.274575906   2.340400266   2.026984232    0   0   0
Fe       6.617424349   1.169245869   4.029174060
Fe       4.960335333  -0.008553365   6.001093745
Fe       9.930598003   3.512338332   4.025574211
Fe       8.274265421   2.343850554   6.010817821
Fe       7.447113858   3.510600399   0.000000000    0   0   0
Fe       9.102037953   1.170200133   0.000000000    0   0   0
Fe       5.792200906   2.340400266   2.026984232    0   0   0
Fe       7.447125000   0.000000000   2.026984232    0   0   0
Fe       7.445262405   3.509363629   4.020313366
Fe       9.096855440   1.174228818   4.032846641
Fe       5.775513752   2.329494669   6.005030377
Fe      10.759515796   9.366855804   6.006034148
Fe       3.309814764   5.851000664   0.000000000    0   0   0
Fe       1.654901811   4.680800531   2.026984232    0   0   0
Fe       6.619640670   8.191400930   0.000000000    0   0   0
Fe       4.964727717   7.021200797   2.026984232    0   0   0
Fe       3.311523158   5.851937217   4.027507556
Fe      11.581338810   4.686102916   6.003212986
Fe       6.616241329   8.188501679   4.026849997
Fe       4.968638124   7.014903936   6.008361664
Fe       4.137265670   8.191400930   0.000000000    0   0   0
Fe       5.792189764   5.851000664   0.000000000    0   0   0
Fe       2.482352717   7.021200797   2.026984232    0   0   0
Fe       4.137276811   4.680800531   2.026984232    0   0   0
Fe       4.136018996   8.191092750   4.028820905
Fe       5.793557867   5.845681319   4.032866108
Fe      12.415837710   7.025244173   6.006294327
Fe       4.142225602   4.682714013   6.006135275
Fe       8.274564764   5.851000664   0.000000000    0   0   0
Fe       6.619651811   4.680800531   2.026984232    0   0   0
Fe      11.584390670   8.191400930   0.000000000    0   0   0
Fe       9.929477717   7.021200797   2.026984232    0   0   0
Fe       8.276149697   5.852054699   4.025726474
Fe       6.621971879   4.680376467   6.009961993
Fe      11.585420155   8.193744931   4.027373356
Fe       9.932520005   7.017764446   6.003452120
Fe       9.102015670   8.191400930   0.000000000    0   0   0
Fe      10.756939764   5.851000664   0.000000000    0   0   0
Fe       7.447102717   7.021200797   2.026984232    0   0   0
Fe       9.102026811   4.680800531   2.026984232    0   0   0
Fe       9.101405710   8.190555026   4.027602003
Fe      10.757609444   5.852034508   4.027700685
Fe       7.447100540   7.019657311   6.006696780
Fe       9.104692097   4.683444741   6.000584010
H        7.867469615   3.809713726   6.941998234
End final coordinates



     Writing output data file Fe_H_paper_480c.save/

     init_run     :     16.58s CPU     21.49s WALL (       1 calls)
     electrons    :  38198.96s CPU  38652.95s WALL (      17 calls)
     update_pot   :    200.43s CPU    201.54s WALL (      16 calls)
     forces       :    604.10s CPU    611.49s WALL (      17 calls)

     Called by init_run:
     wfcinit      :      4.47s CPU      8.85s WALL (       1 calls)
     potinit      :      2.46s CPU      2.81s WALL (       1 calls)
     hinit0       :      6.80s CPU      6.85s WALL (       1 calls)

     Called by electrons:
     c_bands      :  32613.07s CPU  32987.58s WALL (     204 calls)
     sum_band     :   3189.38s CPU   3242.46s WALL (     204 calls)
     v_of_rho     :    303.97s CPU    305.59s WALL (     204 calls)
     newd         :     57.05s CPU     59.01s WALL (     204 calls)
     PAW_pot      :     97.94s CPU     98.52s WALL (     220 calls)
     mix_rho      :   1905.65s CPU   1921.83s WALL (     204 calls)

     Called by c_bands:
     init_us_2    :     96.12s CPU    100.73s WALL (    1323 calls)
     cegterg      :  31483.60s CPU  31729.87s WALL (     612 calls)

     Called by sum_band:
     sum_band:bec :      6.31s CPU      6.34s WALL (     660 calls)
     addusdens    :     69.21s CPU     72.17s WALL (     204 calls)

     Called by *egterg:
     h_psi        :  13129.41s CPU  13243.97s WALL (    2095 calls)
     s_psi        :   2643.36s CPU   2650.72s WALL (    2095 calls)
     g_psi        :     35.55s CPU     35.64s WALL (    1483 calls)
     cdiaghg      :   6651.82s CPU   6687.44s WALL (    1993 calls)

     Called by h_psi:
     h_psi:pot    :  13069.78s CPU  13140.69s WALL (    2095 calls)
     h_psi:calbec :   2693.63s CPU   2698.19s WALL (    2095 calls)
     vloc_psi     :   7727.26s CPU   7789.05s WALL (    2095 calls)
     add_vuspsi   :   2648.86s CPU   2653.42s WALL (    2095 calls)

     General routines
     calbec       :   4238.94s CPU   4248.99s WALL (    2959 calls)
     fft          :    214.72s CPU    216.14s WALL (    5371 calls)
     ffts         :    973.50s CPU    981.00s WALL (  117068 calls)
     fftw         :   7512.63s CPU   7575.08s WALL ( 2221706 calls)
     interpolate  :     20.26s CPU     20.36s WALL (     408 calls)
     davcio       :      0.76s CPU    131.53s WALL (    4139 calls)

     Parallel routines
     fft_scatt_xy :   1563.83s CPU   1572.17s WALL ( 2344145 calls)
     fft_scatt_yz :   2223.71s CPU   2254.83s WALL ( 2344145 calls)

     PWSCF        :     10h52m CPU     11h 0m WALL


   This run was terminated on:   3:26:20   4Jun2022            

=------------------------------------------------------------------------------=
   JOB DONE.
=------------------------------------------------------------------------------=
