
     Program PHONON v.6.7MaX starts on 20Sep2022 at 16:22:16 

     This program is part of the open-source Quantum ESPRESSO suite
     for quantum simulation of materials; please cite
         "P. Giannozzi et al., J. Phys.:Condens. Matter 21 395502 (2009);
         "P. Giannozzi et al., J. Phys.:Condens. Matter 29 465901 (2017);
          URL http://www.quantum-espresso.org", 
     in publications or presentations arising from this work. More details at
     http://www.quantum-espresso.org/quote

     Parallel version (MPI), running on   120 processors

     MPI processes distributed on     1 nodes
     K-points division:     npool     =       8
     R & G space division:  proc/nbgrp/npool/nimage =      15
     Waiting for input...
     Reading input from standard input

     Reading xml data from directory:

     ./NH_ESM_std.save/

     IMPORTANT: XC functional enforced from input :
     Exchange-correlation= PBE
                           (   1   4   3   4   0   0   0)
     Any further DFT definition will be discarded
     Please, verify this is what you really want


     Parallelization info
     --------------------
     sticks:   dense  smooth     PW     G-vecs:    dense   smooth      PW
     Min        3636    1818    468               639190   225950   29545
     Max        3637    1819    470               639197   225953   29547
     Sum       54553   27281   7033              9587919  3389267  443191


     negative rho (up, down):  2.786E-04 1.227E-04
     Reading collected, re-writing distributed wavefunctions

     Calculation of q =    0.0000000   0.0000000   0.0000000

     phonons (vibrational modes) for NH                                         

     bravais-lattice index     =            0
     lattice parameter (alat)  =      37.7945  a.u.
     unit-cell volume          =   53986.6760 (a.u.)^3
     number of atoms/cell      =            2
     number of atomic types    =            2
     kinetic-energy cut-off    =      60.0000  Ry
     charge density cut-off    =     480.0000  Ry
     convergence threshold     =      1.0E-12
     beta                      =       0.7000
     number of iterations used =            4
     Exchange-correlation= PBE
                           (   1   4   3   4   0   0   0)


     celldm(1)=   37.79452  celldm(2)=    0.00000  celldm(3)=    0.00000
     celldm(4)=    0.00000  celldm(5)=    0.00000  celldm(6)=    0.00000

     crystal axes: (cart. coord. in units of alat)
               a(1) = (  1.0000  0.0000  0.0000 )  
               a(2) = (  0.0000  1.0000  0.0000 )  
               a(3) = (  0.0000  0.0000  1.0000 )  

     reciprocal axes: (cart. coord. in units 2 pi/alat)
               b(1) = (  1.0000  0.0000  0.0000 )  
               b(2) = (  0.0000  1.0000  0.0000 )  
               b(3) = (  0.0000  0.0000  1.0000 )  


     Atoms inside the unit cell: 

     Cartesian axes

     site n.  atom      mass           positions (alat units)
        1     N   14.0067   tau(    1) = (    0.50000    0.50000    0.00000  )
        2     H    1.0078   tau(    2) = (    0.50015    0.49994   -0.05249  )

     Computing dynamical matrix for 
                    q = (   0.0000000   0.0000000   0.0000000 )

      2 Sym.Ops. (with q -> -q+G )


     G cutoff =17367.5767  ( 639197 G-vectors)     FFT grid: (270,270,270)
     G cutoff = 8683.7884  ( 225950 G-vectors)  smooth grid: (192,192,192)

     number of k points=    20  Methfessel-Paxton smearing, width (Ry)=  0.0100
                       cart. coord. in units 2pi/alat
        k(    1) = (   0.0000000   0.0000000   0.0000000), wk =   0.0625000
        k(    2) = (   0.0000000   0.2500000   0.0000000), wk =   0.1250000
        k(    3) = (   0.0000000  -0.5000000   0.0000000), wk =   0.0625000
        k(    4) = (   0.2500000   0.0000000   0.0000000), wk =   0.1250000
        k(    5) = (   0.2500000   0.2500000   0.0000000), wk =   0.1250000
        k(    6) = (   0.2500000  -0.5000000   0.0000000), wk =   0.1250000
        k(    7) = (   0.2500000  -0.2500000   0.0000000), wk =   0.1250000
        k(    8) = (  -0.5000000   0.0000000   0.0000000), wk =   0.0625000
        k(    9) = (  -0.5000000   0.2500000   0.0000000), wk =   0.1250000
        k(   10) = (  -0.5000000  -0.5000000   0.0000000), wk =   0.0625000
        k(   11) = (   0.0000000   0.0000000   0.0000000), wk =   0.0625000
        k(   12) = (   0.0000000   0.2500000   0.0000000), wk =   0.1250000
        k(   13) = (   0.0000000  -0.5000000   0.0000000), wk =   0.0625000
        k(   14) = (   0.2500000   0.0000000   0.0000000), wk =   0.1250000
        k(   15) = (   0.2500000   0.2500000   0.0000000), wk =   0.1250000
        k(   16) = (   0.2500000  -0.5000000   0.0000000), wk =   0.1250000
        k(   17) = (   0.2500000  -0.2500000   0.0000000), wk =   0.1250000
        k(   18) = (  -0.5000000   0.0000000   0.0000000), wk =   0.0625000
        k(   19) = (  -0.5000000   0.2500000   0.0000000), wk =   0.1250000
        k(   20) = (  -0.5000000  -0.5000000   0.0000000), wk =   0.0625000

     PseudoPot. # 1 for N  read from file:
     ../../SSSP/N.pbe-n-radius_5.UPF
     MD5 check sum: 16739722b17309cd8fe442a2ace49922
     Pseudo is Ultrasoft + core correction, Zval =  5.0
     Generated using "atomic" code by A. Dal Corso  v.5.1
     Using radial grid of 1085 points,  4 beta functions with: 
                l(1) =   0
                l(2) =   0
                l(3) =   1
                l(4) =   1
     Q(r) pseudized with 0 coefficients 


     PseudoPot. # 2 for H  read from file:
     ../../SSSP/H.pbe-rrkjus_psl.1.0.0.UPF
     MD5 check sum: f52b6d4d1c606e5624b1dc7b2218f220
     Pseudo is Ultrasoft, Zval =  1.0
     Generated using "atomic" code by A. Dal Corso  v.5.1
     Using radial grid of  929 points,  2 beta functions with: 
                l(1) =   0
                l(2) =   0
     Q(r) pseudized with 0 coefficients 


     Mode symmetry, C_1 (1)     point group:


     Atomic displacements:
     There are    6 irreducible representations

     Representation     1      1 modes -  To be done

     Representation     2      1 modes -  To be done

     Representation     3      1 modes -  To be done

     Representation     4      1 modes -  To be done

     Representation     5      1 modes -  To be done

     Representation     6      1 modes -  To be done



     Alpha used in Ewald sum =   2.8000

     -------------------------------------------------
     Parameters for Dispersion (Grimme-D2) Correction:
     -------------------------------------------------
       atom      VdW radius       C_6     

        N          2.640         42.670
        H          1.892          4.857

     Calculating the D2 contribution to the dynamical matrix.
     D2 energy =       -0.00000240 Ry
     Done.


     negative rho (up, down):  2.786E-04 1.227E-04
     PHONON       :   2m28.12s CPU   2m36.84s WALL



     Representation #   1 mode #   1

     Self-consistent Calculation

     Pert. #  1: Fermi energy shift (Ry) =     0.0000E+00     0.0000E+00

      iter #   1 total cpu time :   194.0 secs   av.it.:   8.2
      thresh= 1.000E-02 alpha_mix =  0.700 |ddv_scf|^2 =  2.325E-09

     Pert. #  1: Fermi energy shift (Ry) =     0.0000E+00     0.0000E+00

      iter #   2 total cpu time :   236.7 secs   av.it.:  16.1
      thresh= 4.822E-06 alpha_mix =  0.700 |ddv_scf|^2 =  5.499E-10

     Pert. #  1: Fermi energy shift (Ry) =     0.0000E+00     0.0000E+00

      iter #   3 total cpu time :   280.3 secs   av.it.:  15.9
      thresh= 2.345E-06 alpha_mix =  0.700 |ddv_scf|^2 =  2.280E-11

     Pert. #  1: Fermi energy shift (Ry) =     0.0000E+00     0.0000E+00

      iter #   4 total cpu time :   319.4 secs   av.it.:  16.4
      thresh= 4.775E-07 alpha_mix =  0.700 |ddv_scf|^2 =  9.814E-13

     End of self-consistent calculation

     Convergence has been achieved 


     Representation #   2 mode #   2

     Self-consistent Calculation

     Pert. #  1: Fermi energy shift (Ry) =     0.0000E+00     0.0000E+00

      iter #   1 total cpu time :   372.7 secs   av.it.:   8.1
      thresh= 1.000E-02 alpha_mix =  0.700 |ddv_scf|^2 =  2.240E-09

     Pert. #  1: Fermi energy shift (Ry) =     0.0000E+00     0.0000E+00

      iter #   2 total cpu time :   411.9 secs   av.it.:  16.1
      thresh= 4.733E-06 alpha_mix =  0.700 |ddv_scf|^2 =  5.070E-10

     Pert. #  1: Fermi energy shift (Ry) =     0.0000E+00     0.0000E+00

      iter #   3 total cpu time :   451.0 secs   av.it.:  15.6
      thresh= 2.252E-06 alpha_mix =  0.700 |ddv_scf|^2 =  2.068E-11

     Pert. #  1: Fermi energy shift (Ry) =     0.0000E+00     0.0000E+00

      iter #   4 total cpu time :   495.0 secs   av.it.:  16.4
      thresh= 4.548E-07 alpha_mix =  0.700 |ddv_scf|^2 =  9.069E-13

     End of self-consistent calculation

     Convergence has been achieved 


     Representation #   3 mode #   3

     Self-consistent Calculation

     Pert. #  1: Fermi energy shift (Ry) =     0.0000E+00     0.0000E+00

      iter #   1 total cpu time :   547.9 secs   av.it.:   8.0
      thresh= 1.000E-02 alpha_mix =  0.700 |ddv_scf|^2 =  4.234E-09

     Pert. #  1: Fermi energy shift (Ry) =     0.0000E+00     0.0000E+00

      iter #   2 total cpu time :   587.5 secs   av.it.:  17.9
      thresh= 6.507E-06 alpha_mix =  0.700 |ddv_scf|^2 =  7.262E-10

     Pert. #  1: Fermi energy shift (Ry) =     0.0000E+00     0.0000E+00

      iter #   3 total cpu time :   628.3 secs   av.it.:  17.0
      thresh= 2.695E-06 alpha_mix =  0.700 |ddv_scf|^2 =  7.167E-10

     Pert. #  1: Fermi energy shift (Ry) =     0.0000E+00     0.0000E+00

      iter #   4 total cpu time :   671.9 secs   av.it.:  15.4
      thresh= 2.677E-06 alpha_mix =  0.700 |ddv_scf|^2 =  4.420E-11

     Pert. #  1: Fermi energy shift (Ry) =     0.0000E+00     0.0000E+00

      iter #   5 total cpu time :   719.4 secs   av.it.:  16.9
      thresh= 6.648E-07 alpha_mix =  0.700 |ddv_scf|^2 =  1.304E-12

     Pert. #  1: Fermi energy shift (Ry) =     0.0000E+00     0.0000E+00

      iter #   6 total cpu time :   763.0 secs   av.it.:  16.0
      thresh= 1.142E-07 alpha_mix =  0.700 |ddv_scf|^2 =  5.315E-15

     End of self-consistent calculation

     Convergence has been achieved 


     Representation #   4 mode #   4

     Self-consistent Calculation

     Pert. #  1: Fermi energy shift (Ry) =     0.0000E+00     0.0000E+00

      iter #   1 total cpu time :   812.7 secs   av.it.:   6.0
      thresh= 1.000E-02 alpha_mix =  0.700 |ddv_scf|^2 =  1.218E-10

     Pert. #  1: Fermi energy shift (Ry) =     0.0000E+00     0.0000E+00

      iter #   2 total cpu time :   851.7 secs   av.it.:  16.1
      thresh= 1.103E-06 alpha_mix =  0.700 |ddv_scf|^2 =  1.494E-11

     Pert. #  1: Fermi energy shift (Ry) =     0.0000E+00     0.0000E+00

      iter #   3 total cpu time :   890.8 secs   av.it.:  16.9
      thresh= 3.865E-07 alpha_mix =  0.700 |ddv_scf|^2 =  6.599E-13

     End of self-consistent calculation

     Convergence has been achieved 


     Representation #   5 mode #   5

     Self-consistent Calculation

     Pert. #  1: Fermi energy shift (Ry) =     0.0000E+00     0.0000E+00

      iter #   1 total cpu time :   940.1 secs   av.it.:   6.0
      thresh= 1.000E-02 alpha_mix =  0.700 |ddv_scf|^2 =  1.011E-10

     Pert. #  1: Fermi energy shift (Ry) =     0.0000E+00     0.0000E+00

      iter #   2 total cpu time :   978.9 secs   av.it.:  15.8
      thresh= 1.005E-06 alpha_mix =  0.700 |ddv_scf|^2 =  1.287E-11

     Pert. #  1: Fermi energy shift (Ry) =     0.0000E+00     0.0000E+00

      iter #   3 total cpu time :  1017.9 secs   av.it.:  16.4
      thresh= 3.587E-07 alpha_mix =  0.700 |ddv_scf|^2 =  6.647E-13

     End of self-consistent calculation

     Convergence has been achieved 


     Representation #   6 mode #   6

     Self-consistent Calculation

     Pert. #  1: Fermi energy shift (Ry) =     0.0000E+00     0.0000E+00

      iter #   1 total cpu time :  1067.8 secs   av.it.:   6.0
      thresh= 1.000E-02 alpha_mix =  0.700 |ddv_scf|^2 =  8.985E-10

     Pert. #  1: Fermi energy shift (Ry) =     0.0000E+00     0.0000E+00

      iter #   2 total cpu time :  1107.5 secs   av.it.:  16.8
      thresh= 2.997E-06 alpha_mix =  0.700 |ddv_scf|^2 =  4.945E-10

     Pert. #  1: Fermi energy shift (Ry) =     0.0000E+00     0.0000E+00

      iter #   3 total cpu time :  1147.6 secs   av.it.:  15.5
      thresh= 2.224E-06 alpha_mix =  0.700 |ddv_scf|^2 =  1.067E-11

     Pert. #  1: Fermi energy shift (Ry) =     0.0000E+00     0.0000E+00

      iter #   4 total cpu time :  1185.1 secs   av.it.:  14.6
      thresh= 3.266E-07 alpha_mix =  0.700 |ddv_scf|^2 =  8.788E-13

     End of self-consistent calculation

     Convergence has been achieved 

     Number of q in the star =    1
     List of q in the star:
          1   0.000000000   0.000000000   0.000000000

     Diagonalizing the dynamical matrix

     q = (    0.000000000   0.000000000   0.000000000 ) 

 **************************************************************************
     freq (    1) =     -29.148098 [THz] =    -972.275900 [cm-1]
     freq (    2) =     -29.132439 [THz] =    -971.753575 [cm-1]
     freq (    3) =     -17.864746 [THz] =    -595.903773 [cm-1]
     freq (    4) =     -12.297367 [THz] =    -410.196019 [cm-1]
     freq (    5) =     -12.258661 [THz] =    -408.904922 [cm-1]
     freq (    6) =      93.066421 [THz] =    3104.361668 [cm-1]
 **************************************************************************

     Mode symmetry, C_1 (1)     point group:

     freq (   1-   1) =       -972.3  [cm-1]   --> A               I+R
     freq (   2-   2) =       -971.8  [cm-1]   --> A               I+R
     freq (   3-   3) =       -595.9  [cm-1]   --> A               I+R
     freq (   4-   4) =       -410.2  [cm-1]   --> A               I+R
     freq (   5-   5) =       -408.9  [cm-1]   --> A               I+R
     freq (   6-   6) =       3104.4  [cm-1]   --> A               I+R

     PHONON       :  17m37.19s CPU  20m 5.06s WALL

     INITIALIZATION: 
     phq_setup    :     12.85s CPU     15.70s WALL (       1 calls)
     phq_init     :    117.59s CPU    121.06s WALL (       1 calls)

     phq_init     :    117.59s CPU    121.06s WALL (       1 calls)
     set_drhoc    :     24.16s CPU     24.27s WALL (       3 calls)
     init_vloc    :      0.32s CPU      0.32s WALL (       1 calls)
     init_us_1    :      0.03s CPU      0.03s WALL (       1 calls)
     newd         :      1.11s CPU      1.16s WALL (       1 calls)
     dvanqq       :     43.13s CPU     43.75s WALL (       1 calls)
     drho         :     28.83s CPU     30.77s WALL (       1 calls)

     DYNAMICAL MATRIX:
     dynmat0      :     22.97s CPU     23.77s WALL (       1 calls)
     phqscf       :    909.02s CPU   1042.69s WALL (       1 calls)
     dynmatrix    :      0.05s CPU      0.09s WALL (       1 calls)

     phqscf       :    909.02s CPU   1042.69s WALL (       1 calls)
     solve_linter :    904.82s CPU   1024.35s WALL (       6 calls)
     drhodv       :      4.20s CPU      4.33s WALL (       6 calls)

     dynmat0      :     22.97s CPU     23.77s WALL (       1 calls)
     dynmat_us    :      0.79s CPU      0.86s WALL (       1 calls)
     d2ionq       :      0.20s CPU      0.20s WALL (       1 calls)
     dynmatcc     :     21.95s CPU     22.61s WALL (       1 calls)

     dynmat_us    :      0.79s CPU      0.86s WALL (       1 calls)
     addusdynmat  :      0.00s CPU      0.00s WALL (       1 calls)

     phqscf       :    909.02s CPU   1042.69s WALL (       1 calls)
     solve_linter :    904.82s CPU   1024.35s WALL (       6 calls)

     solve_linter :    904.82s CPU   1024.35s WALL (       6 calls)
     dvqpsi_us    :     11.01s CPU     11.28s WALL (      18 calls)
     ortho        :      1.39s CPU      1.42s WALL (      72 calls)
     cgsolve      :    280.98s CPU    284.17s WALL (      72 calls)
     incdrhoscf   :     17.01s CPU     17.24s WALL (      72 calls)
     addusddens   :     46.62s CPU     49.84s WALL (      30 calls)
     vpsifft      :     13.73s CPU     13.95s WALL (      54 calls)
     dv_of_drho   :    161.21s CPU    168.00s WALL (      24 calls)
     mix_pot      :     11.51s CPU     24.26s WALL (      24 calls)
     ef_shift     :     23.00s CPU     23.44s WALL (      30 calls)
     localdos     :     29.62s CPU     30.65s WALL (       6 calls)
     psymdvscf    :    116.00s CPU    169.23s WALL (      24 calls)
     newdq        :     71.30s CPU     74.97s WALL (      24 calls)
     adddvscf     :      0.37s CPU      0.37s WALL (      54 calls)
     drhodvus     :      1.01s CPU     13.49s WALL (       6 calls)

     dvqpsi_us    :     11.01s CPU     11.28s WALL (      18 calls)
     dvqpsi_us_on :      0.15s CPU      0.15s WALL (      18 calls)

     cgsolve      :    280.98s CPU    284.17s WALL (      72 calls)
     ch_psi       :    271.83s CPU    274.91s WALL (    1277 calls)

     ch_psi       :    271.83s CPU    274.91s WALL (    1277 calls)
     h_psi        :    249.79s CPU    252.63s WALL (    1277 calls)
     last         :     15.90s CPU     16.07s WALL (    1277 calls)

     h_psi        :    249.79s CPU    252.63s WALL (    1277 calls)
     add_vuspsi   :      3.56s CPU      3.60s WALL (    1277 calls)

     incdrhoscf   :     17.01s CPU     17.24s WALL (      72 calls)
     addusdbec    :      0.70s CPU      0.71s WALL (      90 calls)

     drhodvus     :      1.01s CPU     13.49s WALL (       6 calls)

      General routines
     calbec       :     10.48s CPU     10.66s WALL (    2836 calls)
     fft          :    277.83s CPU    283.31s WALL (    1049 calls)
     ffts         :     18.35s CPU     18.78s WALL (     254 calls)
     fftw         :    238.26s CPU    240.98s WALL (    9739 calls)
     davcio       :      0.09s CPU     25.44s WALL (     540 calls)
     write_rec    :      0.00s CPU     28.36s WALL (      30 calls)


     PHONON       :  17m37.19s CPU  20m 5.06s WALL


   This run was terminated on:  16:42:21  20Sep2022            

=------------------------------------------------------------------------------=
   JOB DONE.
=------------------------------------------------------------------------------=
