     Message from routine get_command_line:
     unexpected argument # 4     :-in

     Program PWSCF v.6.7MaX starts on  8Jul2022 at 18:30:48 

     This program is part of the open-source Quantum ESPRESSO suite
     for quantum simulation of materials; please cite
         "P. Giannozzi et al., J. Phys.:Condens. Matter 21 395502 (2009);
         "P. Giannozzi et al., J. Phys.:Condens. Matter 29 465901 (2017);
          URL http://www.quantum-espresso.org", 
     in publications or presentations arising from this work. More details at
     http://www.quantum-espresso.org/quote

     Parallel version (MPI), running on   120 processors

     MPI processes distributed on     1 nodes
     K-points division:     npool     =       8
     R & G space division:  proc/nbgrp/npool/nimage =      15
     Waiting for input...
     Reading input from standard input
Warning: card &CELL ignored
Warning: card / ignored

     Current dimensions of program PWSCF are:
     Max number of different atomic species (ntypx) = 10
     Max number of k-points (npk) =  40000
     Max angular momentum in pseudopotentials (lmaxx) =  3

     IMPORTANT: XC functional enforced from input :
     Exchange-correlation= PBE
                           (   1   4   3   4   0   0   0)
     Any further DFT definition will be discarded
     Please, verify this is what you really want


     -------------------------------------------------
     Parameters for Dispersion (Grimme-D2) Correction:
     -------------------------------------------------
       atom      VdW radius       C_6     

        N          2.640         42.670
        H          1.892          4.857

     Subspace diagonalization in iterative solution of the eigenvalue problem:
     one sub-group per band group will be used
     scalapack distributed-memory algorithm (size of sub-group:  3*  3 procs)


     Parallelization info
     --------------------
     sticks:   dense  smooth     PW     G-vecs:    dense   smooth      PW
     Min        3636    1818    468               639190   225950   29545
     Max        3637    1819    470               639197   225953   29547
     Sum       54553   27281   7033              9587919  3389267  443191



     bravais-lattice index     =            0
     lattice parameter (alat)  =      37.7945  a.u.
     unit-cell volume          =   53986.6760 (a.u.)^3
     number of atoms/cell      =            2
     number of atomic types    =            2
     number of electrons       =         6.00
     number of Kohn-Sham states=            7
     kinetic-energy cutoff     =      60.0000  Ry
     charge density cutoff     =     480.0000  Ry
     scf convergence threshold =      1.0E-08
     mixing beta               =       0.7000
     number of iterations used =           10  plain     mixing
     energy convergence thresh.=      7.3E-07
     force convergence thresh. =      3.9E-04
     Exchange-correlation= PBE
                           (   1   4   3   4   0   0   0)
     nstep                     =           50


     Effective Screening Medium Method
     =================================
     Boundary Conditions: Metal-Slab-Metal
     field strength                   =     0.00 Ry/a.u.
     grid points for fit at edges     =        4 


     celldm(1)=  37.794522  celldm(2)=   0.000000  celldm(3)=   0.000000
     celldm(4)=   0.000000  celldm(5)=   0.000000  celldm(6)=   0.000000

     crystal axes: (cart. coord. in units of alat)
               a(1) = (   1.000000   0.000000   0.000000 )  
               a(2) = (   0.000000   1.000000   0.000000 )  
               a(3) = (   0.000000   0.000000   1.000000 )  

     reciprocal axes: (cart. coord. in units 2 pi/alat)
               b(1) = (  1.000000  0.000000  0.000000 )  
               b(2) = (  0.000000  1.000000  0.000000 )  
               b(3) = (  0.000000  0.000000  1.000000 )  


     PseudoPot. # 1 for N  read from file:
     ../../SSSP/N.pbe-n-radius_5.UPF
     MD5 check sum: 16739722b17309cd8fe442a2ace49922
     Pseudo is Ultrasoft + core correction, Zval =  5.0
     Generated using "atomic" code by A. Dal Corso  v.5.1
     Using radial grid of 1085 points,  4 beta functions with: 
                l(1) =   0
                l(2) =   0
                l(3) =   1
                l(4) =   1
     Q(r) pseudized with 0 coefficients 


     PseudoPot. # 2 for H  read from file:
     ../../SSSP/H.pbe-rrkjus_psl.1.0.0.UPF
     MD5 check sum: f52b6d4d1c606e5624b1dc7b2218f220
     Pseudo is Ultrasoft, Zval =  1.0
     Generated using "atomic" code by A. Dal Corso  v.5.1
     Using radial grid of  929 points,  2 beta functions with: 
                l(1) =   0
                l(2) =   0
     Q(r) pseudized with 0 coefficients 


     atomic species   valence    mass     pseudopotential
        N              5.00    14.00700     N ( 1.00)
        H              1.00     1.00800     H ( 1.00)

     Starting magnetic structure 
     atomic species   magnetization
        N            0.100
        H            0.100

     No symmetry found



   Cartesian axes

     site n.     atom                  positions (alat units)
         1           N   tau(   1) = (   0.5000000   0.5000000   0.0000000  )
         2           H   tau(   2) = (   0.5001513   0.4999379  -0.0524424  )

     number of k points=    10  Methfessel-Paxton smearing, width (Ry)=  0.0100
                       cart. coord. in units 2pi/alat
        k(    1) = (   0.0000000   0.0000000   0.0000000), wk =   0.0625000
        k(    2) = (   0.0000000   0.2500000   0.0000000), wk =   0.1250000
        k(    3) = (   0.0000000  -0.5000000   0.0000000), wk =   0.0625000
        k(    4) = (   0.2500000   0.0000000   0.0000000), wk =   0.1250000
        k(    5) = (   0.2500000   0.2500000   0.0000000), wk =   0.1250000
        k(    6) = (   0.2500000  -0.5000000   0.0000000), wk =   0.1250000
        k(    7) = (   0.2500000  -0.2500000   0.0000000), wk =   0.1250000
        k(    8) = (  -0.5000000   0.0000000   0.0000000), wk =   0.0625000
        k(    9) = (  -0.5000000   0.2500000   0.0000000), wk =   0.1250000
        k(   10) = (  -0.5000000  -0.5000000   0.0000000), wk =   0.0625000

     Dense  grid:  9587919 G-vectors     FFT dimensions: ( 270, 270, 270)

     Smooth grid:  3389267 G-vectors     FFT dimensions: ( 192, 192, 192)

     Estimated max dynamical RAM per process >     385.51 MB

     Estimated total dynamical RAM >      45.18 GB
     Generating pointlists ...
     new r_m :   0.0216 (alat units)  0.8176 (a.u.) for type    1
     new r_m :   0.0216 (alat units)  0.8176 (a.u.) for type    2

     Initial potential from superposition of free atoms

     starting charge    5.99998, renormalised to    6.00000

     negative rho (up, down):  9.688E-05 7.927E-05
     Starting wfcs are    5 randomized atomic wfcs +    2 random wfcs

     total cpu time spent up to now is       21.9 secs

     Self-consistent Calculation

     iteration #  1     ecut=    60.00 Ry     beta= 0.70
     CG style diagonalization
     c_bands:  1 eigenvalues not converged
     c_bands:  2 eigenvalues not converged
     c_bands:  2 eigenvalues not converged
     ethr =  1.00E-04,  avg # of iterations = 10.1

     negative rho (up, down):  2.329E-04 9.291E-05

     total cpu time spent up to now is       50.4 secs

     total energy              =     -21.06317386 Ry
     estimated scf accuracy    <       0.13752663 Ry

     total magnetization       =     2.00 Bohr mag/cell
     absolute magnetization    =     2.00 Bohr mag/cell

     iteration #  2     ecut=    60.00 Ry     beta= 0.70
     CG style diagonalization
     ethr =  2.29E-03,  avg # of iterations =  3.2

     negative rho (up, down):  2.454E-04 1.149E-04

     total cpu time spent up to now is       67.5 secs

     total energy              =     -21.08736129 Ry
     estimated scf accuracy    <       0.01363942 Ry

     total magnetization       =     2.00 Bohr mag/cell
     absolute magnetization    =     2.02 Bohr mag/cell

     iteration #  3     ecut=    60.00 Ry     beta= 0.70
     CG style diagonalization
     ethr =  2.27E-04,  avg # of iterations =  3.7

     negative rho (up, down):  2.697E-04 1.221E-04

     total cpu time spent up to now is       85.5 secs

     total energy              =     -21.09598445 Ry
     estimated scf accuracy    <       0.00120970 Ry

     total magnetization       =     2.00 Bohr mag/cell
     absolute magnetization    =     2.03 Bohr mag/cell

     iteration #  4     ecut=    60.00 Ry     beta= 0.70
     CG style diagonalization
     ethr =  2.02E-05,  avg # of iterations =  6.1

     negative rho (up, down):  2.758E-04 1.235E-04

     total cpu time spent up to now is      107.6 secs

     total energy              =     -21.09709889 Ry
     estimated scf accuracy    <       0.00004891 Ry

     total magnetization       =     2.00 Bohr mag/cell
     absolute magnetization    =     2.04 Bohr mag/cell

     iteration #  5     ecut=    60.00 Ry     beta= 0.70
     CG style diagonalization
     ethr =  8.15E-07,  avg # of iterations =  6.9

     negative rho (up, down):  2.780E-04 1.234E-04

     total cpu time spent up to now is      131.6 secs

     total energy              =     -21.09717655 Ry
     estimated scf accuracy    <       0.00000539 Ry

     total magnetization       =     2.00 Bohr mag/cell
     absolute magnetization    =     2.04 Bohr mag/cell

     iteration #  6     ecut=    60.00 Ry     beta= 0.70
     CG style diagonalization
     ethr =  8.98E-08,  avg # of iterations =  5.0

     negative rho (up, down):  2.784E-04 1.230E-04

     total cpu time spent up to now is      152.1 secs

     total energy              =     -21.09718510 Ry
     estimated scf accuracy    <       0.00000054 Ry

     total magnetization       =     2.00 Bohr mag/cell
     absolute magnetization    =     2.04 Bohr mag/cell

     iteration #  7     ecut=    60.00 Ry     beta= 0.70
     CG style diagonalization
     ethr =  9.02E-09,  avg # of iterations =  4.2

     negative rho (up, down):  2.786E-04 1.229E-04

     total cpu time spent up to now is      171.4 secs

     total energy              =     -21.09718587 Ry
     estimated scf accuracy    <       0.00000014 Ry

     total magnetization       =     2.00 Bohr mag/cell
     absolute magnetization    =     2.05 Bohr mag/cell

     iteration #  8     ecut=    60.00 Ry     beta= 0.70
     CG style diagonalization
     ethr =  2.39E-09,  avg # of iterations =  3.6

     negative rho (up, down):  2.787E-04 1.229E-04

     total cpu time spent up to now is      189.9 secs

     total energy              =     -21.09718600 Ry
     estimated scf accuracy    <       0.00000002 Ry

     total magnetization       =     2.00 Bohr mag/cell
     absolute magnetization    =     2.05 Bohr mag/cell

     iteration #  9     ecut=    60.00 Ry     beta= 0.70
     CG style diagonalization
     ethr =  2.58E-10,  avg # of iterations =  3.8

     negative rho (up, down):  2.787E-04 1.229E-04

     Magnetic moment per site:
     atom:    1    charge:    1.3449    magn:    0.5550    constr:    0.0000
     atom:    2    charge:    0.4605    magn:   -0.0086    constr:    0.0000

     total cpu time spent up to now is      206.5 secs

     End of self-consistent calculation

 ------ SPIN UP ------------


          k = 0.0000 0.0000 0.0000 (423701 PWs)   bands (ev):

   -20.0516  -8.8724  -7.1283  -7.1283   0.1787   0.4408   0.7826

          k = 0.0000 0.2500 0.0000 (423725 PWs)   bands (ev):

   -20.0516  -8.8724  -7.1283  -7.1283   0.1803   0.4597   0.6300

          k = 0.0000-0.5000 0.0000 (423542 PWs)   bands (ev):

   -20.0516  -8.8724  -7.1283  -7.1283   0.1825   0.5035   0.5410

          k = 0.2500 0.0000 0.0000 (423725 PWs)   bands (ev):

   -20.0516  -8.8724  -7.1283  -7.1283   0.1804   0.4595   0.6307

          k = 0.2500 0.2500 0.0000 (423766 PWs)   bands (ev):

   -20.0516  -8.8724  -7.1283  -7.1283   0.1827   0.4794   0.6488

          k = 0.2500-0.5000 0.0000 (423782 PWs)   bands (ev):

   -20.0516  -8.8724  -7.1283  -7.1283   0.1838   0.5266   0.5579

          k = 0.2500-0.2500 0.0000 (423766 PWs)   bands (ev):

   -20.0516  -8.8724  -7.1283  -7.1283   0.1822   0.4792   0.6613

          k =-0.5000 0.0000 0.0000 (423542 PWs)   bands (ev):

   -20.0516  -8.8724  -7.1283  -7.1283   0.1823   0.5029   0.5401

          k =-0.5000 0.2500 0.0000 (423782 PWs)   bands (ev):

   -20.0516  -8.8724  -7.1283  -7.1283   0.1844   0.5279   0.5594

          k =-0.5000-0.5000 0.0000 (423708 PWs)   bands (ev):

   -20.0516  -8.8724  -7.1283  -7.1283   0.1862   0.5942   0.5997

 ------ SPIN DOWN ----------


          k = 0.0000 0.0000 0.0000 (423701 PWs)   bands (ev):

   -17.3595  -7.7789  -3.2784  -3.2784   0.3901   0.5850   0.7941

          k = 0.0000 0.2500 0.0000 (423725 PWs)   bands (ev):

   -17.3595  -7.7789  -3.2784  -3.2784   0.4103   0.5655   0.6667

          k = 0.0000-0.5000 0.0000 (423542 PWs)   bands (ev):

   -17.3595  -7.7789  -3.2784  -3.2784   0.4491   0.5117   0.6383

          k = 0.2500 0.0000 0.0000 (423725 PWs)   bands (ev):

   -17.3595  -7.7789  -3.2784  -3.2784   0.4099   0.5663   0.6676

          k = 0.2500 0.2500 0.0000 (423766 PWs)   bands (ev):

   -17.3595  -7.7789  -3.2784  -3.2784   0.4307   0.5660   0.6666

          k = 0.2500-0.5000 0.0000 (423782 PWs)   bands (ev):

   -17.3595  -7.7789  -3.2784  -3.2784   0.4641   0.5379   0.6293

          k = 0.2500-0.2500 0.0000 (423766 PWs)   bands (ev):

   -17.3595  -7.7789  -3.2784  -3.2784   0.4301   0.5663   0.6981

          k =-0.5000 0.0000 0.0000 (423542 PWs)   bands (ev):

   -17.3595  -7.7789  -3.2784  -3.2784   0.4488   0.5128   0.6391

          k =-0.5000 0.2500 0.0000 (423782 PWs)   bands (ev):

   -17.3595  -7.7789  -3.2784  -3.2784   0.4657   0.5355   0.6328

          k =-0.5000-0.5000 0.0000 (423708 PWs)   bands (ev):

   -17.3595  -7.7789  -3.2784  -3.2784   0.4857   0.6052   0.6072

     the Fermi energy is    -4.2813 ev

!    total energy              =     -21.09718602 Ry
     estimated scf accuracy    <          1.6E-09 Ry
     smearing contrib. (-TS)   =       0.00000000 Ry
     internal energy E=F+TS    =     -21.09718602 Ry

     The total energy is F=E-TS. E is the sum of the following terms:
     one-electron contribution =     -40.50860895 Ry
     hartree contribution      =      21.37357059 Ry
     xc contribution           =      -5.89946844 Ry
     ewald contribution        =       3.93732316 Ry
     Dispersion Correction     =      -0.00000239 Ry

     total magnetization       =     2.00 Bohr mag/cell
     absolute magnetization    =     2.05 Bohr mag/cell

     convergence has been achieved in   9 iterations

     negative rho (up, down):  2.787E-04 1.229E-04

     Forces acting on atoms (cartesian axes, Ry/au):

     atom    1 type  1   force =    -0.00000104    0.00000040    0.00130833
     atom    2 type  2   force =     0.00000104   -0.00000040   -0.00131313

     Total force =     0.001313     Total SCF correction =     0.000005

     BFGS Geometry Optimization
     Energy error            =      0.0E+00
     Gradient error          =      1.3E-03

     number of scf cycles    =   1
     number of bfgs steps    =   0

     energy   new            =     -21.0971860246 Ry

     new trust radius        =       0.0013131324 bohr
     new conv_thr            =       0.0000000100 Ry


ATOMIC_POSITIONS (angstrom)
N            10.0000000000       10.0000000000        0.0000000000    0   0   0
H            10.0030272101        9.9987571193       -1.0495427764



     Writing output data file ./NH_ESM_std.save/
     NEW-OLD atomic charge density approx. for the potential

     negative rho (up, down):  1.543E-04 2.010E-04
     Generating pointlists ...

     total cpu time spent up to now is      228.0 secs

     Self-consistent Calculation

     iteration #  1     ecut=    60.00 Ry     beta= 0.70
     CG style diagonalization
     ethr =  1.00E-06,  avg # of iterations =  2.0

     Threshold (ethr) on eigenvalues was too large:
     Diagonalizing with lowered threshold

     CG style diagonalization
     ethr =  1.43E-09,  avg # of iterations =  3.0

     negative rho (up, down):  2.484E-04 1.385E-04

     total cpu time spent up to now is      250.8 secs

     total energy              =     -21.09718707 Ry
     estimated scf accuracy    <       0.00000019 Ry

     total magnetization       =     2.00 Bohr mag/cell
     absolute magnetization    =     2.05 Bohr mag/cell

     iteration #  2     ecut=    60.00 Ry     beta= 0.70
     CG style diagonalization
     ethr =  3.15E-09,  avg # of iterations =  3.4

     negative rho (up, down):  2.673E-04 1.294E-04

     total cpu time spent up to now is      268.4 secs

     total energy              =     -21.09718711 Ry
     estimated scf accuracy    <       0.00000002 Ry

     total magnetization       =     2.00 Bohr mag/cell
     absolute magnetization    =     2.05 Bohr mag/cell

     iteration #  3     ecut=    60.00 Ry     beta= 0.70
     CG style diagonalization
     ethr =  3.92E-10,  avg # of iterations =  3.5

     negative rho (up, down):  2.786E-04 1.228E-04

     Magnetic moment per site:
     atom:    1    charge:    1.3447    magn:    0.5550    constr:    0.0000
     atom:    2    charge:    0.4599    magn:   -0.0087    constr:    0.0000

     total cpu time spent up to now is      284.4 secs

     End of self-consistent calculation

 ------ SPIN UP ------------


          k = 0.0000 0.0000 0.0000 (423701 PWs)   bands (ev):

   -20.0474  -8.8714  -7.1280  -7.1280   0.1776   0.4404   0.7822

          k = 0.0000 0.2500 0.0000 (423725 PWs)   bands (ev):

   -20.0474  -8.8714  -7.1280  -7.1280   0.1794   0.4593   0.6297

          k = 0.0000-0.5000 0.0000 (423542 PWs)   bands (ev):

   -20.0474  -8.8714  -7.1280  -7.1280   0.1814   0.5030   0.5405

          k = 0.2500 0.0000 0.0000 (423725 PWs)   bands (ev):

   -20.0474  -8.8714  -7.1280  -7.1280   0.1794   0.4590   0.6304

          k = 0.2500 0.2500 0.0000 (423766 PWs)   bands (ev):

   -20.0474  -8.8714  -7.1280  -7.1280   0.1815   0.4789   0.6482

          k = 0.2500-0.5000 0.0000 (423782 PWs)   bands (ev):

   -20.0474  -8.8714  -7.1280  -7.1280   0.1828   0.5262   0.5575

          k = 0.2500-0.2500 0.0000 (423766 PWs)   bands (ev):

   -20.0474  -8.8714  -7.1280  -7.1280   0.1812   0.4788   0.6610

          k =-0.5000 0.0000 0.0000 (423542 PWs)   bands (ev):

   -20.0474  -8.8714  -7.1280  -7.1280   0.1813   0.5025   0.5397

          k =-0.5000 0.2500 0.0000 (423782 PWs)   bands (ev):

   -20.0474  -8.8714  -7.1280  -7.1280   0.1832   0.5274   0.5589

          k =-0.5000-0.5000 0.0000 (423708 PWs)   bands (ev):

   -20.0474  -8.8714  -7.1280  -7.1280   0.1849   0.5939   0.5994

 ------ SPIN DOWN ----------


          k = 0.0000 0.0000 0.0000 (423701 PWs)   bands (ev):

   -17.3545  -7.7785  -3.2781  -3.2781   0.3901   0.5841   0.7941

          k = 0.0000 0.2500 0.0000 (423725 PWs)   bands (ev):

   -17.3545  -7.7785  -3.2781  -3.2781   0.4102   0.5651   0.6664

          k = 0.0000-0.5000 0.0000 (423542 PWs)   bands (ev):

   -17.3545  -7.7785  -3.2781  -3.2781   0.4488   0.5120   0.6377

          k = 0.2500 0.0000 0.0000 (423725 PWs)   bands (ev):

   -17.3545  -7.7785  -3.2781  -3.2781   0.4100   0.5658   0.6672

          k = 0.2500 0.2500 0.0000 (423766 PWs)   bands (ev):

   -17.3545  -7.7785  -3.2781  -3.2781   0.4303   0.5656   0.6588

          k = 0.2500-0.5000 0.0000 (423782 PWs)   bands (ev):

   -17.3545  -7.7785  -3.2781  -3.2781   0.4638   0.5378   0.6289

          k = 0.2500-0.2500 0.0000 (423766 PWs)   bands (ev):

   -17.3545  -7.7785  -3.2781  -3.2781   0.4300   0.5659   0.6977

          k =-0.5000 0.0000 0.0000 (423542 PWs)   bands (ev):

   -17.3545  -7.7785  -3.2781  -3.2781   0.4486   0.5129   0.6383

          k =-0.5000 0.2500 0.0000 (423782 PWs)   bands (ev):

   -17.3545  -7.7785  -3.2781  -3.2781   0.4646   0.5358   0.6322

          k =-0.5000-0.5000 0.0000 (423708 PWs)   bands (ev):

   -17.3545  -7.7785  -3.2781  -3.2781   0.4852   0.6054   0.6072

     the Fermi energy is    -4.2802 ev

!    total energy              =     -21.09718712 Ry
     estimated scf accuracy    <          1.8E-09 Ry
     smearing contrib. (-TS)   =       0.00000000 Ry
     internal energy E=F+TS    =     -21.09718712 Ry

     The total energy is F=E-TS. E is the sum of the following terms:
     one-electron contribution =     -40.50312892 Ry
     hartree contribution      =      21.37089786 Ry
     xc contribution           =      -5.89892629 Ry
     ewald contribution        =       3.93397262 Ry
     Dispersion Correction     =      -0.00000240 Ry

     total magnetization       =     2.00 Bohr mag/cell
     absolute magnetization    =     2.05 Bohr mag/cell

     convergence has been achieved in   3 iterations

     negative rho (up, down):  2.786E-04 1.228E-04

     Forces acting on atoms (cartesian axes, Ry/au):

     atom    1 type  1   force =     0.00000167   -0.00000070    0.00036361
     atom    2 type  2   force =    -0.00000167    0.00000070   -0.00036342

     Total force =     0.000363     Total SCF correction =     0.000009
     Energy error            =      1.1E-06
     Gradient error          =      3.6E-04

     number of scf cycles    =   2
     number of bfgs steps    =   1

     energy   old            =     -21.0971860246 Ry
     energy   new            =     -21.0971871243 Ry

     CASE: energy  _new < energy  _old

     new trust radius        =       0.0005024981 bohr
     new conv_thr            =            1.0E-10 Ry


ATOMIC_POSITIONS (angstrom)
N            10.0000000000       10.0000000000        0.0000000000    0   0   0
H            10.0030259853        9.9987576319       -1.0498086836



     Writing output data file ./NH_ESM_std.save/
     NEW-OLD atomic charge density approx. for the potential

     negative rho (up, down):  1.542E-04 2.009E-04
     Generating pointlists ...

     total cpu time spent up to now is      305.3 secs

     Self-consistent Calculation

     iteration #  1     ecut=    60.00 Ry     beta= 0.70
     CG style diagonalization
     ethr =  1.00E-06,  avg # of iterations =  2.0

     Threshold (ethr) on eigenvalues was too large:
     Diagonalizing with lowered threshold

     CG style diagonalization
     ethr =  1.80E-10,  avg # of iterations =  3.1

     negative rho (up, down):  2.484E-04 1.385E-04

     total cpu time spent up to now is      328.2 secs

     total energy              =     -21.09718721 Ry
     estimated scf accuracy    <       0.00000002 Ry

     total magnetization       =     2.00 Bohr mag/cell
     absolute magnetization    =     2.05 Bohr mag/cell

     iteration #  2     ecut=    60.00 Ry     beta= 0.70
     CG style diagonalization
     ethr =  4.02E-10,  avg # of iterations =  3.4

     negative rho (up, down):  2.673E-04 1.293E-04

     total cpu time spent up to now is      345.8 secs

     total energy              =     -21.09718721 Ry
     estimated scf accuracy    <          3.2E-09 Ry

     total magnetization       =     2.00 Bohr mag/cell
     absolute magnetization    =     2.05 Bohr mag/cell

     iteration #  3     ecut=    60.00 Ry     beta= 0.70
     CG style diagonalization
     ethr =  5.34E-11,  avg # of iterations =  3.5

     negative rho (up, down):  2.765E-04 1.233E-04

     total cpu time spent up to now is      363.4 secs

     total energy              =     -21.09718722 Ry
     estimated scf accuracy    <          2.2E-10 Ry

     total magnetization       =     2.00 Bohr mag/cell
     absolute magnetization    =     2.05 Bohr mag/cell

     iteration #  4     ecut=    60.00 Ry     beta= 0.70
     CG style diagonalization
     ethr =  3.68E-12,  avg # of iterations =  3.3

     negative rho (up, down):  2.786E-04 1.227E-04

     Magnetic moment per site:
     atom:    1    charge:    1.3447    magn:    0.5550    constr:    0.0000
     atom:    2    charge:    0.4597    magn:   -0.0087    constr:    0.0000

     total cpu time spent up to now is      379.0 secs

     End of self-consistent calculation

 ------ SPIN UP ------------


          k = 0.0000 0.0000 0.0000 (423701 PWs)   bands (ev):

   -20.0459  -8.8711  -7.1280  -7.1280   0.1774   0.4405   0.7824

          k = 0.0000 0.2500 0.0000 (423725 PWs)   bands (ev):

   -20.0459  -8.8711  -7.1280  -7.1280   0.1791   0.4593   0.6299

          k = 0.0000-0.5000 0.0000 (423542 PWs)   bands (ev):

   -20.0459  -8.8711  -7.1280  -7.1280   0.1812   0.5031   0.5404

          k = 0.2500 0.0000 0.0000 (423725 PWs)   bands (ev):

   -20.0459  -8.8711  -7.1280  -7.1280   0.1792   0.4591   0.6304

          k = 0.2500 0.2500 0.0000 (423766 PWs)   bands (ev):

   -20.0459  -8.8711  -7.1280  -7.1280   0.1811   0.4789   0.6482

          k = 0.2500-0.5000 0.0000 (423782 PWs)   bands (ev):

   -20.0459  -8.8711  -7.1280  -7.1280   0.1826   0.5264   0.5576

          k = 0.2500-0.2500 0.0000 (423766 PWs)   bands (ev):

   -20.0459  -8.8711  -7.1280  -7.1280   0.1809   0.4789   0.6610

          k =-0.5000 0.0000 0.0000 (423542 PWs)   bands (ev):

   -20.0459  -8.8711  -7.1280  -7.1280   0.1811   0.5027   0.5398

          k =-0.5000 0.2500 0.0000 (423782 PWs)   bands (ev):

   -20.0459  -8.8711  -7.1280  -7.1280   0.1828   0.5274   0.5588

          k =-0.5000-0.5000 0.0000 (423708 PWs)   bands (ev):

   -20.0459  -8.8711  -7.1280  -7.1280   0.1844   0.5940   0.5995

 ------ SPIN DOWN ----------


          k = 0.0000 0.0000 0.0000 (423701 PWs)   bands (ev):

   -17.3526  -7.7785  -3.2780  -3.2780   0.3897   0.5836   0.7936

          k = 0.0000 0.2500 0.0000 (423725 PWs)   bands (ev):

   -17.3526  -7.7785  -3.2780  -3.2780   0.4098   0.5647   0.6659

          k = 0.0000-0.5000 0.0000 (423542 PWs)   bands (ev):

   -17.3526  -7.7784  -3.2780  -3.2780   0.4484   0.5117   0.6372

          k = 0.2500 0.0000 0.0000 (423725 PWs)   bands (ev):

   -17.3526  -7.7785  -3.2780  -3.2780   0.4097   0.5653   0.6667

          k = 0.2500 0.2500 0.0000 (423766 PWs)   bands (ev):

   -17.3526  -7.7785  -3.2780  -3.2780   0.4298   0.5652   0.6581

          k = 0.2500-0.5000 0.0000 (423782 PWs)   bands (ev):

   -17.3526  -7.7785  -3.2780  -3.2780   0.4635   0.5372   0.6284

          k = 0.2500-0.2500 0.0000 (423766 PWs)   bands (ev):

   -17.3526  -7.7785  -3.2780  -3.2780   0.4295   0.5654   0.6970

          k =-0.5000 0.0000 0.0000 (423542 PWs)   bands (ev):

   -17.3526  -7.7784  -3.2780  -3.2780   0.4483   0.5124   0.6377

          k =-0.5000 0.2500 0.0000 (423782 PWs)   bands (ev):

   -17.3526  -7.7785  -3.2780  -3.2780   0.4641   0.5354   0.6315

          k =-0.5000-0.5000 0.0000 (423708 PWs)   bands (ev):

   -17.3526  -7.7785  -3.2780  -3.2780   0.4848   0.6051   0.6067

     the Fermi energy is    -4.2802 ev

!    total energy              =     -21.09718722 Ry
     estimated scf accuracy    <          4.9E-12 Ry
     smearing contrib. (-TS)   =       0.00000000 Ry
     internal energy E=F+TS    =     -21.09718722 Ry

     The total energy is F=E-TS. E is the sum of the following terms:
     one-electron contribution =     -40.50108719 Ry
     hartree contribution      =      21.36994559 Ry
     xc contribution           =      -5.89873489 Ry
     ewald contribution        =       3.93269168 Ry
     Dispersion Correction     =      -0.00000240 Ry

     total magnetization       =     2.00 Bohr mag/cell
     absolute magnetization    =     2.05 Bohr mag/cell

     convergence has been achieved in   4 iterations

     negative rho (up, down):  2.786E-04 1.227E-04

     Forces acting on atoms (cartesian axes, Ry/au):

     atom    1 type  1   force =     0.00000274   -0.00000113    0.00000037
     atom    2 type  2   force =    -0.00000274    0.00000113   -0.00000148

     Total force =     0.000003     Total SCF correction =     0.000000
     Energy error            =      9.1E-08
     Gradient error          =      2.7E-06

     bfgs converged in   3 scf cycles and   2 bfgs steps
     (criteria: energy <  7.3E-07 Ry, force <  3.9E-04 Ry/Bohr)

     End of BFGS Geometry Optimization

     Final energy   =     -21.0971872152 Ry

     File ./NH_ESM_std.bfgs deleted, as requested
Begin final coordinates

ATOMIC_POSITIONS (angstrom)
N            10.0000000000       10.0000000000        0.0000000000    0   0   0
H            10.0030259853        9.9987576319       -1.0498086836
End final coordinates



     Writing output data file ./NH_ESM_std.save/

     init_run     :     20.53s CPU     21.68s WALL (       1 calls)
     electrons    :    298.90s CPU    320.10s WALL (       3 calls)
     update_pot   :     15.69s CPU     16.52s WALL (       2 calls)
     forces       :     24.95s CPU     26.67s WALL (       3 calls)

     Called by init_run:
     wfcinit      :      1.65s CPU      1.72s WALL (       1 calls)
     potinit      :      7.43s CPU      8.08s WALL (       1 calls)
     hinit0       :      1.47s CPU      1.63s WALL (       1 calls)

     Called by electrons:
     c_bands      :    118.82s CPU    120.60s WALL (      18 calls)
     sum_band     :     38.73s CPU     40.03s WALL (      18 calls)
     v_of_rho     :    110.00s CPU    119.39s WALL (      19 calls)
     newd         :     14.55s CPU     15.37s WALL (      19 calls)
     mix_rho      :     18.45s CPU     22.32s WALL (      18 calls)

     Called by c_bands:
     init_us_2    :      0.63s CPU      0.66s WALL (     120 calls)
     ccgdiagg     :     94.73s CPU     95.83s WALL (      54 calls)
     wfcrot       :     20.39s CPU     20.63s WALL (      42 calls)

     Called by *cgdiagg:
     h_psi        :    102.50s CPU    103.68s WALL (    1339 calls)
     s_psi        :      3.98s CPU      4.03s WALL (    2636 calls)

     Called by h_psi:
     h_psi:calbec :      3.39s CPU      3.44s WALL (    1339 calls)
     vloc_psi     :     94.89s CPU     95.98s WALL (    1339 calls)
     add_vuspsi   :      3.72s CPU      3.77s WALL (    1339 calls)
     hs_1psi      :     85.62s CPU     86.62s WALL (    1297 calls)
     s_1psi       :      4.76s CPU      4.81s WALL (    1297 calls)

     General routines
     calbec       :      6.45s CPU      6.56s WALL (    2726 calls)
     fft          :    120.43s CPU    123.56s WALL (     520 calls)
     ffts         :      5.69s CPU      5.75s WALL (      74 calls)
     fftw         :     88.55s CPU     89.53s WALL (    3560 calls)
     interpolate  :     12.67s CPU     13.70s WALL (      38 calls)
     davcio       :      0.05s CPU      2.13s WALL (     287 calls)

     Parallel routines
     fft_scatt_xy :     33.26s CPU     33.63s WALL (    4154 calls)
     fft_scatt_yz :     77.80s CPU     78.60s WALL (    4154 calls)

     PWSCF        :   6m 5.33s CPU   6m31.39s WALL


   This run was terminated on:  18:37:19   8Jul2022            

=------------------------------------------------------------------------------=
   JOB DONE.
=------------------------------------------------------------------------------=
