
     Program PWSCF v.6.4.1 starts on 15Jun2022 at 15: 7:33 

     This program is part of the open-source Quantum ESPRESSO suite
     for quantum simulation of materials; please cite
         "P. Giannozzi et al., J. Phys.:Condens. Matter 21 395502 (2009);
         "P. Giannozzi et al., J. Phys.:Condens. Matter 29 465901 (2017);
          URL http://www.quantum-espresso.org", 
     in publications or presentations arising from this work. More details at
     http://www.quantum-espresso.org/quote

     Parallel version (MPI), running on   160 processors

     MPI processes distributed on     8 nodes
     K-points division:     npool     =       8
     R & G space division:  proc/nbgrp/npool/nimage =      20
     Waiting for input...
     Reading input from standard input
Warning: card &CELL ignored
Warning: card / ignored

     Current dimensions of program PWSCF are:
     Max number of different atomic species (ntypx) = 10
     Max number of k-points (npk) =  40000
     Max angular momentum in pseudopotentials (lmaxx) =  3

     IMPORTANT: XC functional enforced from input :
     Exchange-correlation      = PBE ( 1  4  3  4 0 0)
     Any further DFT definition will be discarded
     Please, verify this is what you really want

               file Fe.pbe-spn-kjpaw_psl.0.2.1.UPF: wavefunction(s)  3D renormalized

     -------------------------------------------------
     Parameters for Dispersion (Grimme-D2) Correction:
     -------------------------------------------------
       atom      VdW radius       C_6     

        Fe         2.952        374.666

     Subspace diagonalization in iterative solution of the eigenvalue problem:
     one sub-group per band group will be used
     scalapack distributed-memory algorithm (size of sub-group:  3*  3 procs)


     Parallelization info
     --------------------
     sticks:   dense  smooth     PW     G-vecs:    dense   smooth      PW
     Min         634     317     83               145278    51361    6989
     Max         635     318     84               145287    51370    7000
     Sum       12685    6351   1677              2905599  1027285  139897



     bravais-lattice index     =            0
     lattice parameter (alat)  =      18.7640  a.u.
     unit-cell volume          =   16360.3163 (a.u.)^3
     number of atoms/cell      =           64
     number of atomic types    =            1
     number of electrons       =      1024.00
     number of Kohn-Sham states=          614
     kinetic-energy cutoff     =      60.0000  Ry
     charge density cutoff     =     480.0000  Ry
     convergence threshold     =      1.0E-08
     mixing beta               =       0.2000
     number of iterations used =           10  local-TF  mixing
     Exchange-correlation      = PBE ( 1  4  3  4 0 0)
     nstep                     =           50


     Effective Screening Medium Method
     =================================
     Boundary Conditions: Metal-Slab-Metal
     field strength                   =    -0.02 Ry/a.u.
     grid points for fit at edges     =        4 


     celldm(1)=  18.764036  celldm(2)=   0.000000  celldm(3)=   0.000000
     celldm(4)=   0.000000  celldm(5)=   0.000000  celldm(6)=   0.000000

     crystal axes: (cart. coord. in units of alat)
               a(1) = (   1.000000   0.000000   0.000000 )  
               a(2) = (   0.333330   0.942807   0.000000 )  
               a(3) = (   0.000000   0.000000   2.626577 )  

     reciprocal axes: (cart. coord. in units 2 pi/alat)
               b(1) = (  1.000000 -0.353551  0.000000 )  
               b(2) = (  0.000000  1.060663  0.000000 )  
               b(3) = (  0.000000  0.000000  0.380724 )  


     PseudoPot. # 1 for Fe read from file:
     ../SSSP/Fe.pbe-spn-kjpaw_psl.0.2.1.UPF
     MD5 check sum: e86618425769142926afa95317d90200
     Pseudo is Projector augmented-wave + core cor, Zval = 16.0
     Generated using "atomic" code by A. Dal Corso v.5.0.99 svn rev. 10869
     Shape of augmentation charge: PSQ
     Using radial grid of 1191 points,  6 beta functions with: 
                l(1) =   0
                l(2) =   0
                l(3) =   1
                l(4) =   1
                l(5) =   2
                l(6) =   2
     Q(r) pseudized with 0 coefficients 


     atomic species   valence    mass     pseudopotential
        Fe            16.00    55.84500     Fe( 1.00)

     Starting magnetic structure 
     atomic species   magnetization
        Fe           0.100

     No symmetry found



   Cartesian axes

     site n.     atom                  positions (alat units)
         1           Fe  tau(   1) = (   0.1666663   0.1178509   0.0000000  )
         2           Fe  tau(   2) = (   0.0000000   0.0000000   0.2041376  )
         3           Fe  tau(   3) = (   0.4999989   0.3535526   0.0000000  )
         4           Fe  tau(   4) = (   0.3333326   0.2357017   0.2041376  )
         5           Fe  tau(   5) = (   0.1666883   0.1178565   0.4055485  )
         6           Fe  tau(   6) = (   0.3333688   0.9428184   0.6047447  )
         7           Fe  tau(   7) = (   0.5000206   0.3535572   0.4055456  )
         8           Fe  tau(   8) = (   0.3333470   0.2357998   0.6047191  )
         9           Fe  tau(   9) = (   0.2499989   0.3535526   0.0000000  )
        10           Fe  tau(  10) = (   0.4166663   0.1178509   0.0000000  )
        11           Fe  tau(  11) = (   0.0833326   0.2357017   0.2041376  )
        12           Fe  tau(  12) = (   0.2500000   0.0000000   0.2041376  )
        13           Fe  tau(  13) = (   0.2500056   0.3535711   0.4054970  )
        14           Fe  tau(  14) = (   0.4166800   0.1178886   0.4055435  )
        15           Fe  tau(  15) = (   0.0833671   0.2357290   0.6047215  )
        16           Fe  tau(  16) = (   0.2500711   0.0000921   0.6047608  )
        17           Fe  tau(  17) = (   0.6666663   0.1178509   0.0000000  )
        18           Fe  tau(  18) = (   0.5000000   0.0000000   0.2041376  )
        19           Fe  tau(  19) = (   0.9999989   0.3535526   0.0000000  )
        20           Fe  tau(  20) = (   0.8333326   0.2357017   0.2041376  )
        21           Fe  tau(  21) = (   0.6666909   0.1178765   0.4055642  )
        22           Fe  tau(  22) = (   0.5000465   0.0000236   0.6046761  )
        23           Fe  tau(  23) = (   1.0000109   0.3535665   0.4055626  )
        24           Fe  tau(  24) = (   0.8333753   0.2357096   0.6046948  )
        25           Fe  tau(  25) = (   0.7499989   0.3535526   0.0000000  )
        26           Fe  tau(  26) = (   0.9166663   0.1178509   0.0000000  )
        27           Fe  tau(  27) = (   0.5833326   0.2357017   0.2041376  )
        28           Fe  tau(  28) = (   0.7500000   0.0000000   0.2041376  )
        29           Fe  tau(  29) = (   0.7500298   0.3535537   0.4055237  )
        30           Fe  tau(  30) = (   0.9166973   0.1178520   0.4055727  )
        31           Fe  tau(  31) = (   0.5833528   0.2357440   0.6048152  )
        32           Fe  tau(  32) = (   1.0833550   0.9428301   0.6047230  )
        33           Fe  tau(  33) = (   0.3333315   0.5892543   0.0000000  )
        34           Fe  tau(  34) = (   0.1666652   0.4714034   0.2041376  )
        35           Fe  tau(  35) = (   0.6666640   0.8249560   0.0000000  )
        36           Fe  tau(  36) = (   0.4999978   0.7071052   0.2041376  )
        37           Fe  tau(  37) = (   0.3333024   0.5893238   0.4055334  )
        38           Fe  tau(  38) = (   1.1666931   0.4714090   0.6046775  )
        39           Fe  tau(  39) = (   0.6666498   0.8250381   0.4055339  )
        40           Fe  tau(  40) = (   0.4999795   0.7072006   0.6047873  )
        41           Fe  tau(  41) = (   0.4166640   0.8249560   0.0000000  )
        42           Fe  tau(  42) = (   0.5833315   0.5892543   0.0000000  )
        43           Fe  tau(  43) = (   0.2499978   0.7071052   0.2041376  )
        44           Fe  tau(  44) = (   0.4166652   0.4714034   0.2041376  )
        45           Fe  tau(  45) = (   0.4166645   0.8250008   0.4055405  )
        46           Fe  tau(  46) = (   0.5833194   0.5893164   0.4055538  )
        47           Fe  tau(  47) = (   1.2499531   0.7071110   0.6047598  )
        48           Fe  tau(  48) = (   0.4166762   0.4714800   0.6046684  )
        49           Fe  tau(  49) = (   0.8333315   0.5892543   0.0000000  )
        50           Fe  tau(  50) = (   0.6666652   0.4714034   0.2041376  )
        51           Fe  tau(  51) = (   1.1666640   0.8249560   0.0000000  )
        52           Fe  tau(  52) = (   0.9999978   0.7071052   0.2041376  )
        53           Fe  tau(  53) = (   0.8333620   0.5892670   0.4055440  )
        54           Fe  tau(  54) = (   0.6666665   0.4714716   0.6046004  )
        55           Fe  tau(  55) = (   1.1666930   0.8249675   0.4055502  )
        56           Fe  tau(  56) = (   0.9999653   0.7071693   0.6047169  )
        57           Fe  tau(  57) = (   0.9166640   0.8249560   0.0000000  )
        58           Fe  tau(  58) = (   1.0833315   0.5892543   0.0000000  )
        59           Fe  tau(  59) = (   0.7499978   0.7071052   0.2041376  )
        60           Fe  tau(  60) = (   0.9166652   0.4714034   0.2041376  )
        61           Fe  tau(  61) = (   0.9166861   0.8249876   0.4054965  )
        62           Fe  tau(  62) = (   1.0833354   0.5892828   0.4055429  )
        63           Fe  tau(  63) = (   0.7499872   0.7071671   0.6046676  )
        64           Fe  tau(  64) = (   0.9166845   0.4714443   0.6048084  )

     number of k points=    10  Methfessel-Paxton smearing, width (Ry)=  0.0100
                       cart. coord. in units 2pi/alat
        k(    1) = (   0.0000000   0.0000000   0.0000000), wk =   0.0625000
        k(    2) = (   0.0000000   0.2651656   0.0000000), wk =   0.1250000
        k(    3) = (   0.0000000  -0.5303313   0.0000000), wk =   0.0625000
        k(    4) = (   0.2500000  -0.0883878   0.0000000), wk =   0.1250000
        k(    5) = (   0.2500000   0.1767779   0.0000000), wk =   0.1250000
        k(    6) = (   0.2500000  -0.6187190   0.0000000), wk =   0.1250000
        k(    7) = (   0.2500000  -0.3535534   0.0000000), wk =   0.1250000
        k(    8) = (  -0.5000000   0.1767755   0.0000000), wk =   0.0625000
        k(    9) = (  -0.5000000   0.4419412   0.0000000), wk =   0.1250000
        k(   10) = (  -0.5000000  -0.3535558   0.0000000), wk =   0.0625000

     Dense  grid:  2905599 G-vectors     FFT dimensions: ( 135, 135, 360)

     Smooth grid:  1027285 G-vectors     FFT dimensions: (  96,  96, 243)

     Estimated max dynamical RAM per process >    1009.58 MB

     Estimated total dynamical RAM >     157.75 GB
     Generating pointlists ...
     new r_m :   0.1014 (alat units)  1.9031 (a.u.) for type    1

     Check: negative core charge=   -0.000039

     Initial potential from superposition of free atoms

     starting charge 1023.97194, renormalised to 1024.00000

     negative rho (up, down):  2.482E-02 2.555E-03
     Starting wfcs are  832 randomized atomic wfcs
     Checking if some PAW data can be deallocated... 

     total cpu time spent up to now is       76.6 secs

     Self-consistent Calculation

     iteration #  1     ecut=    60.00 Ry     beta= 0.20
     Davidson diagonalization with overlap
     ethr =  1.00E-04,  avg # of iterations = 18.7

     negative rho (up, down):  1.515E-02 3.247E-03

     total cpu time spent up to now is     1074.2 secs

     total energy              =  -21056.47358071 Ry
     Harris-Foulkes estimate   =  -21079.25249395 Ry
     estimated scf accuracy    <    1190.50344261 Ry

     total magnetization       =    69.01 Bohr mag/cell
     absolute magnetization    =    70.85 Bohr mag/cell

     iteration #  2     ecut=    60.00 Ry     beta= 0.20
     Davidson diagonalization with overlap
     ethr =  1.00E-02,  avg # of iterations =  1.0

     negative rho (up, down):  1.267E-02 2.827E-02

     total cpu time spent up to now is     1209.3 secs

     total energy              =  -21069.39449669 Ry
     Harris-Foulkes estimate   =  -21076.48558438 Ry
     estimated scf accuracy    <     366.31048339 Ry

     total magnetization       =    81.66 Bohr mag/cell
     absolute magnetization    =    83.84 Bohr mag/cell

     iteration #  3     ecut=    60.00 Ry     beta= 0.20
     Davidson diagonalization with overlap
     ethr =  1.00E-02,  avg # of iterations =  1.0

     negative rho (up, down):  9.987E-03 6.154E-02

     total cpu time spent up to now is     1342.8 secs

     total energy              =  -21072.16605250 Ry
     Harris-Foulkes estimate   =  -21072.43525275 Ry
     estimated scf accuracy    <      14.89618258 Ry

     total magnetization       =   120.89 Bohr mag/cell
     absolute magnetization    =   121.50 Bohr mag/cell

     iteration #  4     ecut=    60.00 Ry     beta= 0.20
     Davidson diagonalization with overlap
     ethr =  1.45E-03,  avg # of iterations =  1.0

     negative rho (up, down):  7.105E-03 6.527E-02

     total cpu time spent up to now is     1471.3 secs

     total energy              =  -21072.24446527 Ry
     Harris-Foulkes estimate   =  -21072.30506173 Ry
     estimated scf accuracy    <      17.65854017 Ry

     total magnetization       =   128.19 Bohr mag/cell
     absolute magnetization    =   128.72 Bohr mag/cell

     iteration #  5     ecut=    60.00 Ry     beta= 0.20
     Davidson diagonalization with overlap
     ethr =  1.45E-03,  avg # of iterations =  1.0

     negative rho (up, down):  2.135E-02 2.414E-01

     total cpu time spent up to now is     1605.8 secs

     total energy              =  -21070.25953991 Ry
     Harris-Foulkes estimate   =  -21072.28919092 Ry
     estimated scf accuracy    <      21.55484943 Ry

     total magnetization       =   132.69 Bohr mag/cell
     absolute magnetization    =   133.23 Bohr mag/cell

     iteration #  6     ecut=    60.00 Ry     beta= 0.20
     Davidson diagonalization with overlap
     ethr =  1.45E-03,  avg # of iterations =  4.2

     negative rho (up, down):  1.198E-02 1.861E-01

     total cpu time spent up to now is     1802.1 secs

     total energy              =  -21071.17600780 Ry
     Harris-Foulkes estimate   =  -21071.34301972 Ry
     estimated scf accuracy    <       6.86199265 Ry

     total magnetization       =   154.77 Bohr mag/cell
     absolute magnetization    =   156.21 Bohr mag/cell

     iteration #  7     ecut=    60.00 Ry     beta= 0.20
     Davidson diagonalization with overlap
     ethr =  6.70E-04,  avg # of iterations =  4.2

     negative rho (up, down):  5.016E-03 7.472E-02

     total cpu time spent up to now is     1985.6 secs

     total energy              =  -21071.44197222 Ry
     Harris-Foulkes estimate   =  -21071.45064567 Ry
     estimated scf accuracy    <       1.45532604 Ry

     total magnetization       =   152.87 Bohr mag/cell
     absolute magnetization    =   155.26 Bohr mag/cell

     iteration #  8     ecut=    60.00 Ry     beta= 0.20
     Davidson diagonalization with overlap
     ethr =  1.42E-04,  avg # of iterations = 16.1

     negative rho (up, down):  6.313E-04 4.937E-02

     total cpu time spent up to now is     2615.1 secs

     total energy              =  -21071.68739579 Ry
     Harris-Foulkes estimate   =  -21072.84739705 Ry
     estimated scf accuracy    <      10.38263148 Ry

     total magnetization       =   151.94 Bohr mag/cell
     absolute magnetization    =   158.21 Bohr mag/cell

     iteration #  9     ecut=    60.00 Ry     beta= 0.20
     Davidson diagonalization with overlap
     ethr =  1.42E-04,  avg # of iterations =  7.8

     negative rho (up, down):  5.049E-04 3.235E-02

     total cpu time spent up to now is     2858.1 secs

     total energy              =  -21072.26459180 Ry
     Harris-Foulkes estimate   =  -21072.25937995 Ry
     estimated scf accuracy    <       1.10122352 Ry

     total magnetization       =   147.72 Bohr mag/cell
     absolute magnetization    =   152.25 Bohr mag/cell

     iteration # 10     ecut=    60.00 Ry     beta= 0.20
     Davidson diagonalization with overlap
     ethr =  1.08E-04,  avg # of iterations =  2.1

     negative rho (up, down):  5.453E-04 5.536E-02

     total cpu time spent up to now is     3011.1 secs

     total energy              =  -21072.32920494 Ry
     Harris-Foulkes estimate   =  -21072.28382351 Ry
     estimated scf accuracy    <       1.03394670 Ry

     total magnetization       =   147.84 Bohr mag/cell
     absolute magnetization    =   152.32 Bohr mag/cell

     iteration # 11     ecut=    60.00 Ry     beta= 0.20
     Davidson diagonalization with overlap
     ethr =  1.01E-04,  avg # of iterations =  6.7

     negative rho (up, down):  1.688E-03 6.435E-02

     total cpu time spent up to now is     3205.4 secs

     total energy              =  -21072.43796802 Ry
     Harris-Foulkes estimate   =  -21072.43543266 Ry
     estimated scf accuracy    <       1.30791122 Ry

     total magnetization       =   153.19 Bohr mag/cell
     absolute magnetization    =   157.69 Bohr mag/cell

     iteration # 12     ecut=    60.00 Ry     beta= 0.20
     Davidson diagonalization with overlap
     ethr =  1.01E-04,  avg # of iterations =  1.0

     negative rho (up, down):  1.053E-03 4.641E-02

     total cpu time spent up to now is     3336.2 secs

     total energy              =  -21072.41834779 Ry
     Harris-Foulkes estimate   =  -21072.48126365 Ry
     estimated scf accuracy    <       1.81328398 Ry

     total magnetization       =   159.13 Bohr mag/cell
     absolute magnetization    =   163.66 Bohr mag/cell

     iteration # 13     ecut=    60.00 Ry     beta= 0.20
     Davidson diagonalization with overlap
     ethr =  1.01E-04,  avg # of iterations =  1.4

     negative rho (up, down):  1.475E-03 3.086E-02

     total cpu time spent up to now is     3478.7 secs

     total energy              =  -21072.34975194 Ry
     Harris-Foulkes estimate   =  -21072.44062331 Ry
     estimated scf accuracy    <       1.96682266 Ry

     total magnetization       =   161.50 Bohr mag/cell
     absolute magnetization    =   166.03 Bohr mag/cell

     iteration # 14     ecut=    60.00 Ry     beta= 0.20
     Davidson diagonalization with overlap
     ethr =  1.01E-04,  avg # of iterations =  3.6

     negative rho (up, down):  5.825E-02 5.766E-02

     total cpu time spent up to now is     3653.8 secs

     total energy              =  -21072.33960448 Ry
     Harris-Foulkes estimate   =  -21072.38641216 Ry
     estimated scf accuracy    <       1.88192068 Ry

     total magnetization       =   163.47 Bohr mag/cell
     absolute magnetization    =   167.95 Bohr mag/cell

     iteration # 15     ecut=    60.00 Ry     beta= 0.20
     Davidson diagonalization with overlap
     ethr =  1.01E-04,  avg # of iterations =  1.4

     negative rho (up, down):  5.459E-02 5.142E-02

     total cpu time spent up to now is     3800.0 secs

     total energy              =  -21072.36450407 Ry
     Harris-Foulkes estimate   =  -21072.36036628 Ry
     estimated scf accuracy    <       0.33865490 Ry

     total magnetization       =   163.81 Bohr mag/cell
     absolute magnetization    =   168.32 Bohr mag/cell

     iteration # 16     ecut=    60.00 Ry     beta= 0.20
     Davidson diagonalization with overlap
     ethr =  3.31E-05,  avg # of iterations =  4.5

     negative rho (up, down):  1.173E-01 3.547E-02

     total cpu time spent up to now is     4001.1 secs

     total energy              =  -21072.34032336 Ry
     Harris-Foulkes estimate   =  -21072.37260735 Ry
     estimated scf accuracy    <       0.39035556 Ry

     total magnetization       =   163.89 Bohr mag/cell
     absolute magnetization    =   168.56 Bohr mag/cell

     iteration # 17     ecut=    60.00 Ry     beta= 0.20
     Davidson diagonalization with overlap
     ethr =  3.31E-05,  avg # of iterations =  7.5

     negative rho (up, down):  9.620E-02 3.070E-02

     total cpu time spent up to now is     4229.2 secs

     total energy              =  -21072.33481046 Ry
     Harris-Foulkes estimate   =  -21072.35885109 Ry
     estimated scf accuracy    <       0.21869688 Ry

     total magnetization       =   163.89 Bohr mag/cell
     absolute magnetization    =   168.67 Bohr mag/cell

     iteration # 18     ecut=    60.00 Ry     beta= 0.20
     Davidson diagonalization with overlap
     ethr =  2.14E-05,  avg # of iterations = 32.7

     negative rho (up, down):  5.840E-03 2.648E-02

     total cpu time spent up to now is     6265.2 secs

     total energy              =  -21072.40828854 Ry
     Harris-Foulkes estimate   =  -21072.43186460 Ry
     estimated scf accuracy    <       0.31466158 Ry

     total magnetization       =   160.48 Bohr mag/cell
     absolute magnetization    =   167.92 Bohr mag/cell

     iteration # 19     ecut=    60.00 Ry     beta= 0.20
     Davidson diagonalization with overlap
     ethr =  2.14E-05,  avg # of iterations = 14.7

     negative rho (up, down):  7.950E-03 2.584E-02

     total cpu time spent up to now is     7472.5 secs

     total energy              =  -21072.44987537 Ry
     Harris-Foulkes estimate   =  -21072.44530978 Ry
     estimated scf accuracy    <       0.56809725 Ry

     total magnetization       =   160.24 Bohr mag/cell
     absolute magnetization    =   168.73 Bohr mag/cell

     iteration # 20     ecut=    60.00 Ry     beta= 0.20
     Davidson diagonalization with overlap
     ethr =  2.14E-05,  avg # of iterations =  5.2

     negative rho (up, down):  3.521E-03 2.458E-02

     total cpu time spent up to now is     7784.6 secs

     total energy              =  -21072.44250505 Ry
     Harris-Foulkes estimate   =  -21072.45172894 Ry
     estimated scf accuracy    <       0.70318273 Ry

     total magnetization       =   159.79 Bohr mag/cell
     absolute magnetization    =   168.54 Bohr mag/cell

     iteration # 21     ecut=    60.00 Ry     beta= 0.20
     Davidson diagonalization with overlap
     ethr =  2.14E-05,  avg # of iterations =  1.9

     negative rho (up, down):  4.529E-03 2.165E-02

     total cpu time spent up to now is     7955.4 secs

     total energy              =  -21072.44552112 Ry
     Harris-Foulkes estimate   =  -21072.44418472 Ry
     estimated scf accuracy    <       0.54290057 Ry

     total magnetization       =   159.92 Bohr mag/cell
     absolute magnetization    =   168.39 Bohr mag/cell

     iteration # 22     ecut=    60.00 Ry     beta= 0.20
     Davidson diagonalization with overlap
     ethr =  2.14E-05,  avg # of iterations =  1.9

     negative rho (up, down):  1.362E-02 6.761E-02

     total cpu time spent up to now is     8123.6 secs

     total energy              =  -21072.46179924 Ry
     Harris-Foulkes estimate   =  -21072.44657933 Ry
     estimated scf accuracy    <       0.58152353 Ry

     total magnetization       =   159.79 Bohr mag/cell
     absolute magnetization    =   168.34 Bohr mag/cell

     iteration # 23     ecut=    60.00 Ry     beta= 0.20
     Davidson diagonalization with overlap
     ethr =  2.14E-05,  avg # of iterations =  1.9

     negative rho (up, down):  8.488E-03 3.484E-02

     total cpu time spent up to now is     8291.5 secs

     total energy              =  -21072.46429650 Ry
     Harris-Foulkes estimate   =  -21072.46526454 Ry
     estimated scf accuracy    <       0.73664099 Ry

     total magnetization       =   160.55 Bohr mag/cell
     absolute magnetization    =   169.52 Bohr mag/cell

     iteration # 24     ecut=    60.00 Ry     beta= 0.20
     Davidson diagonalization with overlap
     ethr =  2.14E-05,  avg # of iterations =  1.0

     negative rho (up, down):  1.249E-02 4.127E-02

     total cpu time spent up to now is     8417.2 secs

     total energy              =  -21072.46424746 Ry
     Harris-Foulkes estimate   =  -21072.46573366 Ry
     estimated scf accuracy    <       0.75662306 Ry

     total magnetization       =   160.00 Bohr mag/cell
     absolute magnetization    =   169.01 Bohr mag/cell

     iteration # 25     ecut=    60.00 Ry     beta= 0.20
     Davidson diagonalization with overlap
     ethr =  2.14E-05,  avg # of iterations =  1.0

     negative rho (up, down):  1.522E-02 3.731E-02

     total cpu time spent up to now is     8545.8 secs

     total energy              =  -21072.45862521 Ry
     Harris-Foulkes estimate   =  -21072.46516325 Ry
     estimated scf accuracy    <       0.74062986 Ry

     total magnetization       =   160.14 Bohr mag/cell
     absolute magnetization    =   169.16 Bohr mag/cell

     iteration # 26     ecut=    60.00 Ry     beta= 0.20
     Davidson diagonalization with overlap
     ethr =  2.14E-05,  avg # of iterations =  1.0

     negative rho (up, down):  2.262E-02 5.166E-02

     total cpu time spent up to now is     8671.2 secs

     total energy              =  -21072.44177231 Ry
     Harris-Foulkes estimate   =  -21072.45973054 Ry
     estimated scf accuracy    <       0.73132805 Ry

     total magnetization       =   160.32 Bohr mag/cell
     absolute magnetization    =   169.28 Bohr mag/cell

     iteration # 27     ecut=    60.00 Ry     beta= 0.20
     Davidson diagonalization with overlap
     ethr =  2.14E-05,  avg # of iterations =  3.2

     negative rho (up, down):  1.235E-02 5.621E-02

     total cpu time spent up to now is     8863.3 secs

     total energy              =  -21072.44148243 Ry
     Harris-Foulkes estimate   =  -21072.44531596 Ry
     estimated scf accuracy    <       0.56045210 Ry

     total magnetization       =   160.50 Bohr mag/cell
     absolute magnetization    =   169.21 Bohr mag/cell

     iteration # 28     ecut=    60.00 Ry     beta= 0.20
     Davidson diagonalization with overlap
     ethr =  2.14E-05,  avg # of iterations =  2.2

     negative rho (up, down):  6.040E-03 8.005E-02

     total cpu time spent up to now is     9027.4 secs

     total energy              =  -21072.37921303 Ry
     Harris-Foulkes estimate   =  -21072.44426428 Ry
     estimated scf accuracy    <       0.41031851 Ry

     total magnetization       =   161.13 Bohr mag/cell
     absolute magnetization    =   169.51 Bohr mag/cell

     iteration # 29     ecut=    60.00 Ry     beta= 0.20
     Davidson diagonalization with overlap
     ethr =  2.14E-05,  avg # of iterations =  6.0

     negative rho (up, down):  3.823E-03 7.890E-02

     total cpu time spent up to now is     9325.8 secs

     total energy              =  -21072.40619087 Ry
     Harris-Foulkes estimate   =  -21072.40100511 Ry
     estimated scf accuracy    <       0.06660950 Ry

     total magnetization       =   161.56 Bohr mag/cell
     absolute magnetization    =   168.61 Bohr mag/cell

     iteration # 30     ecut=    60.00 Ry     beta= 0.20
     Davidson diagonalization with overlap
     ethr =  6.50E-06,  avg # of iterations = 17.1

     negative rho (up, down):  9.299E-03 8.361E-02

     total cpu time spent up to now is    10057.5 secs

     total energy              =  -21072.40957420 Ry
     Harris-Foulkes estimate   =  -21072.41217492 Ry
     estimated scf accuracy    <       0.09095984 Ry

     total magnetization       =   161.54 Bohr mag/cell
     absolute magnetization    =   168.90 Bohr mag/cell

     iteration # 31     ecut=    60.00 Ry     beta= 0.20
     Davidson diagonalization with overlap
     ethr =  6.50E-06,  avg # of iterations =  8.3

     negative rho (up, down):  3.715E-03 8.754E-02

     total cpu time spent up to now is    10607.2 secs

     total energy              =  -21072.42014616 Ry
     Harris-Foulkes estimate   =  -21072.41514911 Ry
     estimated scf accuracy    <       0.19563628 Ry

     total magnetization       =   161.56 Bohr mag/cell
     absolute magnetization    =   169.32 Bohr mag/cell

     iteration # 32     ecut=    60.00 Ry     beta= 0.20
     Davidson diagonalization with overlap
     ethr =  6.50E-06,  avg # of iterations =  9.1

     negative rho (up, down):  3.649E-03 1.062E-01

     total cpu time spent up to now is    11010.8 secs

     total energy              =  -21072.43885832 Ry
     Harris-Foulkes estimate   =  -21072.42720750 Ry
     estimated scf accuracy    <       0.29793822 Ry

     total magnetization       =   161.50 Bohr mag/cell
     absolute magnetization    =   169.79 Bohr mag/cell

     iteration # 33     ecut=    60.00 Ry     beta= 0.20
     Davidson diagonalization with overlap
     ethr =  6.50E-06,  avg # of iterations =  5.2

     negative rho (up, down):  8.048E-03 7.876E-02

     total cpu time spent up to now is    11240.7 secs

     total energy              =  -21072.40332961 Ry
     Harris-Foulkes estimate   =  -21072.43988779 Ry
     estimated scf accuracy    <       0.38290452 Ry

     total magnetization       =   161.37 Bohr mag/cell
     absolute magnetization    =   169.90 Bohr mag/cell

     iteration # 34     ecut=    60.00 Ry     beta= 0.20
     Davidson diagonalization with overlap
     ethr =  6.50E-06,  avg # of iterations =  6.9

     negative rho (up, down):  1.572E-02 7.550E-02

     total cpu time spent up to now is    11526.0 secs

     total energy              =  -21072.39413992 Ry
     Harris-Foulkes estimate   =  -21072.40799426 Ry
     estimated scf accuracy    <       0.22512282 Ry

     total magnetization       =   161.85 Bohr mag/cell
     absolute magnetization    =   169.95 Bohr mag/cell

     iteration # 35     ecut=    60.00 Ry     beta= 0.20
     Davidson diagonalization with overlap
     ethr =  6.50E-06,  avg # of iterations =  6.8

     negative rho (up, down):  1.195E-02 6.853E-02

     total cpu time spent up to now is    11810.5 secs

     total energy              =  -21072.40443203 Ry
     Harris-Foulkes estimate   =  -21072.39552142 Ry
     estimated scf accuracy    <       0.20913938 Ry

     total magnetization       =   161.81 Bohr mag/cell
     absolute magnetization    =   169.87 Bohr mag/cell

     iteration # 36     ecut=    60.00 Ry     beta= 0.20
     Davidson diagonalization with overlap
     ethr =  6.50E-06,  avg # of iterations =  6.1

     negative rho (up, down):  1.096E-02 6.618E-02

     total cpu time spent up to now is    12068.0 secs

     total energy              =  -21072.40851215 Ry
     Harris-Foulkes estimate   =  -21072.40612166 Ry
     estimated scf accuracy    <       0.28243339 Ry

     total magnetization       =   161.52 Bohr mag/cell
     absolute magnetization    =   169.90 Bohr mag/cell

     iteration # 37     ecut=    60.00 Ry     beta= 0.20
     Davidson diagonalization with overlap
     ethr =  6.50E-06,  avg # of iterations =  1.9

     negative rho (up, down):  1.195E-02 5.230E-02

     total cpu time spent up to now is    12237.7 secs

     total energy              =  -21072.40768763 Ry
     Harris-Foulkes estimate   =  -21072.40941135 Ry
     estimated scf accuracy    <       0.39721773 Ry

     total magnetization       =   161.17 Bohr mag/cell
     absolute magnetization    =   169.90 Bohr mag/cell

     iteration # 38     ecut=    60.00 Ry     beta= 0.20
     Davidson diagonalization with overlap
     ethr =  6.50E-06,  avg # of iterations =  1.3

     negative rho (up, down):  1.531E-02 8.188E-02

     total cpu time spent up to now is    12375.4 secs

     total energy              =  -21072.40806045 Ry
     Harris-Foulkes estimate   =  -21072.40889495 Ry
     estimated scf accuracy    <       0.26791194 Ry

     total magnetization       =   161.27 Bohr mag/cell
     absolute magnetization    =   169.65 Bohr mag/cell

     iteration # 39     ecut=    60.00 Ry     beta= 0.20
     Davidson diagonalization with overlap
     ethr =  6.50E-06,  avg # of iterations =  5.2

     negative rho (up, down):  2.120E-02 8.596E-02

     total cpu time spent up to now is    12596.0 secs

     total energy              =  -21072.39597505 Ry
     Harris-Foulkes estimate   =  -21072.40950955 Ry
     estimated scf accuracy    <       0.30034043 Ry

     total magnetization       =   161.38 Bohr mag/cell
     absolute magnetization    =   169.89 Bohr mag/cell

     iteration # 40     ecut=    60.00 Ry     beta= 0.20
     Davidson diagonalization with overlap
     ethr =  6.50E-06,  avg # of iterations =  7.2

     negative rho (up, down):  3.339E-02 1.030E-01

     total cpu time spent up to now is    12886.7 secs

     total energy              =  -21072.39056907 Ry
     Harris-Foulkes estimate   =  -21072.39903453 Ry
     estimated scf accuracy    <       0.31550595 Ry

     total magnetization       =   161.29 Bohr mag/cell
     absolute magnetization    =   169.81 Bohr mag/cell

     iteration # 41     ecut=    60.00 Ry     beta= 0.20
     Davidson diagonalization with overlap
     ethr =  6.50E-06,  avg # of iterations =  5.1

     negative rho (up, down):  2.582E-02 7.760E-02

     total cpu time spent up to now is    13108.9 secs

     total energy              =  -21072.39730230 Ry
     Harris-Foulkes estimate   =  -21072.39177621 Ry
     estimated scf accuracy    <       0.27512679 Ry

     total magnetization       =   161.36 Bohr mag/cell
     absolute magnetization    =   169.78 Bohr mag/cell

     iteration # 42     ecut=    60.00 Ry     beta= 0.20
     Davidson diagonalization with overlap
     ethr =  6.50E-06,  avg # of iterations =  5.2

     negative rho (up, down):  1.019E-02 8.073E-02

     total cpu time spent up to now is    13328.9 secs

     total energy              =  -21072.38644093 Ry
     Harris-Foulkes estimate   =  -21072.39900333 Ry
     estimated scf accuracy    <       0.38761622 Ry

     total magnetization       =   161.21 Bohr mag/cell
     absolute magnetization    =   169.96 Bohr mag/cell

     iteration # 43     ecut=    60.00 Ry     beta= 0.20
     Davidson diagonalization with overlap
     ethr =  6.50E-06,  avg # of iterations =  4.7

     negative rho (up, down):  7.296E-03 8.026E-02

     total cpu time spent up to now is    13529.8 secs

     total energy              =  -21072.38840864 Ry
     Harris-Foulkes estimate   =  -21072.39003962 Ry
     estimated scf accuracy    <       0.16035343 Ry

     total magnetization       =   161.54 Bohr mag/cell
     absolute magnetization    =   169.60 Bohr mag/cell

     iteration # 44     ecut=    60.00 Ry     beta= 0.20
     Davidson diagonalization with overlap
     ethr =  6.50E-06,  avg # of iterations =  4.5

     negative rho (up, down):  5.220E-03 7.170E-02

     total cpu time spent up to now is    13734.6 secs

     total energy              =  -21072.39097376 Ry
     Harris-Foulkes estimate   =  -21072.38907465 Ry
     estimated scf accuracy    <       0.14949596 Ry

     total magnetization       =   161.63 Bohr mag/cell
     absolute magnetization    =   169.67 Bohr mag/cell

     iteration # 45     ecut=    60.00 Ry     beta= 0.20
     Davidson diagonalization with overlap
     ethr =  6.50E-06,  avg # of iterations =  1.0

     negative rho (up, down):  1.217E-02 8.270E-02

     total cpu time spent up to now is    13865.4 secs

     total energy              =  -21072.38689939 Ry
     Harris-Foulkes estimate   =  -21072.39118535 Ry
     estimated scf accuracy    <       0.14844195 Ry

     total magnetization       =   161.56 Bohr mag/cell
     absolute magnetization    =   169.61 Bohr mag/cell

     iteration # 46     ecut=    60.00 Ry     beta= 0.20
     Davidson diagonalization with overlap
     ethr =  6.50E-06,  avg # of iterations =  2.8

     negative rho (up, down):  5.824E-03 1.028E-01

     total cpu time spent up to now is    14028.9 secs

     total energy              =  -21072.39451174 Ry
     Harris-Foulkes estimate   =  -21072.38722116 Ry
     estimated scf accuracy    <       0.16010294 Ry

     total magnetization       =   161.57 Bohr mag/cell
     absolute magnetization    =   169.66 Bohr mag/cell

     iteration # 47     ecut=    60.00 Ry     beta= 0.20
     Davidson diagonalization with overlap
     ethr =  6.50E-06,  avg # of iterations =  7.2

     negative rho (up, down):  4.973E-03 1.093E-01

     total cpu time spent up to now is    14319.3 secs

     total energy              =  -21072.39879478 Ry
     Harris-Foulkes estimate   =  -21072.39672884 Ry
     estimated scf accuracy    <       0.11657331 Ry

     total magnetization       =   161.86 Bohr mag/cell
     absolute magnetization    =   169.81 Bohr mag/cell

     iteration # 48     ecut=    60.00 Ry     beta= 0.20
     Davidson diagonalization with overlap
     ethr =  6.50E-06,  avg # of iterations =  7.2

     negative rho (up, down):  4.799E-03 1.208E-01

     total cpu time spent up to now is    14600.9 secs

     total energy              =  -21072.39712227 Ry
     Harris-Foulkes estimate   =  -21072.40034622 Ry
     estimated scf accuracy    <       0.09463544 Ry

     total magnetization       =   161.51 Bohr mag/cell
     absolute magnetization    =   169.40 Bohr mag/cell

     iteration # 49     ecut=    60.00 Ry     beta= 0.20
     Davidson diagonalization with overlap
     ethr =  6.50E-06,  avg # of iterations =  2.4

     negative rho (up, down):  6.431E-03 1.527E-01

     total cpu time spent up to now is    14775.7 secs

     total energy              =  -21072.37807749 Ry
     Harris-Foulkes estimate   =  -21072.39742029 Ry
     estimated scf accuracy    <       0.08535747 Ry

     total magnetization       =   161.70 Bohr mag/cell
     absolute magnetization    =   169.55 Bohr mag/cell

     iteration # 50     ecut=    60.00 Ry     beta= 0.20
     Davidson diagonalization with overlap
     ethr =  6.50E-06,  avg # of iterations =  4.6

     negative rho (up, down):  1.572E-02 1.541E-01

     total cpu time spent up to now is    14993.0 secs

     total energy              =  -21072.37566699 Ry
     Harris-Foulkes estimate   =  -21072.38093180 Ry
     estimated scf accuracy    <       0.01915725 Ry

     total magnetization       =   162.03 Bohr mag/cell
     absolute magnetization    =   169.40 Bohr mag/cell

     iteration # 51     ecut=    60.00 Ry     beta= 0.20
     Davidson diagonalization with overlap
     c_bands:  3 eigenvalues not converged
     c_bands:  1 eigenvalues not converged
     ethr =  1.87E-06,  avg # of iterations = 20.7

     negative rho (up, down):  6.885E-03 1.381E-01

     total cpu time spent up to now is    15782.9 secs

     total energy              =  -21072.38123014 Ry
     Harris-Foulkes estimate   =  -21072.37697386 Ry
     estimated scf accuracy    <       0.03830039 Ry

     total magnetization       =   162.07 Bohr mag/cell
     absolute magnetization    =   169.69 Bohr mag/cell

     iteration # 52     ecut=    60.00 Ry     beta= 0.20
     Davidson diagonalization with overlap
     c_bands:  3 eigenvalues not converged
     c_bands:  2 eigenvalues not converged
     ethr =  1.87E-06,  avg # of iterations = 15.7

     negative rho (up, down):  6.298E-03 1.337E-01

     total cpu time spent up to now is    16253.4 secs

     total energy              =  -21072.38713089 Ry
     Harris-Foulkes estimate   =  -21072.38528909 Ry
     estimated scf accuracy    <       0.11232887 Ry

     total magnetization       =   161.83 Bohr mag/cell
     absolute magnetization    =   169.92 Bohr mag/cell

     iteration # 53     ecut=    60.00 Ry     beta= 0.20
     Davidson diagonalization with overlap
     c_bands:  1 eigenvalues not converged
     ethr =  1.87E-06,  avg # of iterations = 13.2

     negative rho (up, down):  6.444E-03 1.327E-01

     total cpu time spent up to now is    16562.3 secs

     total energy              =  -21072.38930084 Ry
     Harris-Foulkes estimate   =  -21072.38883325 Ry
     estimated scf accuracy    <       0.11447319 Ry

     total magnetization       =   161.90 Bohr mag/cell
     absolute magnetization    =   169.96 Bohr mag/cell

     iteration # 54     ecut=    60.00 Ry     beta= 0.20
     Davidson diagonalization with overlap
     c_bands:  1 eigenvalues not converged
     ethr =  1.87E-06,  avg # of iterations =  3.9

     negative rho (up, down):  2.839E-02 1.371E-01

     total cpu time spent up to now is    16832.6 secs

     total energy              =  -21072.39597707 Ry
     Harris-Foulkes estimate   =  -21072.38938488 Ry
     estimated scf accuracy    <       0.12026887 Ry

     total magnetization       =   161.89 Bohr mag/cell
     absolute magnetization    =   169.98 Bohr mag/cell

     iteration # 55     ecut=    60.00 Ry     beta= 0.20
     Davidson diagonalization with overlap
     c_bands:  3 eigenvalues not converged
     c_bands:  3 eigenvalues not converged
     ethr =  1.87E-06,  avg # of iterations = 16.4

     negative rho (up, down):  1.777E-02 1.319E-01

     total cpu time spent up to now is    17313.9 secs

     total energy              =  -21072.40299718 Ry
     Harris-Foulkes estimate   =  -21072.39968247 Ry
     estimated scf accuracy    <       0.20701332 Ry

     total magnetization       =   161.74 Bohr mag/cell
     absolute magnetization    =   170.06 Bohr mag/cell

     iteration # 56     ecut=    60.00 Ry     beta= 0.20
     Davidson diagonalization with overlap
     c_bands:  1 eigenvalues not converged
     c_bands:  1 eigenvalues not converged
     ethr =  1.87E-06,  avg # of iterations = 11.2

     negative rho (up, down):  1.160E-02 1.221E-01

     total cpu time spent up to now is    17601.9 secs

     total energy              =  -21072.40426376 Ry
     Harris-Foulkes estimate   =  -21072.40363977 Ry
     estimated scf accuracy    <       0.19067644 Ry

     total magnetization       =   161.70 Bohr mag/cell
     absolute magnetization    =   170.08 Bohr mag/cell

     iteration # 57     ecut=    60.00 Ry     beta= 0.20
     Davidson diagonalization with overlap
     c_bands:  1 eigenvalues not converged
     c_bands:  1 eigenvalues not converged
     ethr =  1.87E-06,  avg # of iterations = 11.2

     negative rho (up, down):  1.314E-02 1.354E-01

     total cpu time spent up to now is    17881.6 secs

     total energy              =  -21072.40770815 Ry
     Harris-Foulkes estimate   =  -21072.40481349 Ry
     estimated scf accuracy    <       0.14359993 Ry

     total magnetization       =   161.75 Bohr mag/cell
     absolute magnetization    =   169.94 Bohr mag/cell

     iteration # 58     ecut=    60.00 Ry     beta= 0.20
     Davidson diagonalization with overlap
     c_bands:  1 eigenvalues not converged
     c_bands:  1 eigenvalues not converged
     ethr =  1.87E-06,  avg # of iterations = 12.8

     negative rho (up, down):  5.341E-03 1.347E-01

     total cpu time spent up to now is    18187.0 secs

     total energy              =  -21072.40621180 Ry
     Harris-Foulkes estimate   =  -21072.40967326 Ry
     estimated scf accuracy    <       0.24885558 Ry

     total magnetization       =   161.53 Bohr mag/cell
     absolute magnetization    =   170.10 Bohr mag/cell

     iteration # 59     ecut=    60.00 Ry     beta= 0.20
     Davidson diagonalization with overlap
     c_bands:  1 eigenvalues not converged
     c_bands:  1 eigenvalues not converged
     ethr =  1.87E-06,  avg # of iterations = 16.2

     negative rho (up, down):  4.687E-03 1.237E-01

     total cpu time spent up to now is    18732.2 secs

     total energy              =  -21072.41194274 Ry
     Harris-Foulkes estimate   =  -21072.41129355 Ry
     estimated scf accuracy    <       0.14580913 Ry

     total magnetization       =   161.70 Bohr mag/cell
     absolute magnetization    =   169.96 Bohr mag/cell

     iteration # 60     ecut=    60.00 Ry     beta= 0.20
     Davidson diagonalization with overlap
     c_bands:  1 eigenvalues not converged
     ethr =  1.87E-06,  avg # of iterations =  9.3

     negative rho (up, down):  8.267E-03 1.240E-01

     total cpu time spent up to now is    18988.0 secs

     total energy              =  -21072.40576240 Ry
     Harris-Foulkes estimate   =  -21072.41212495 Ry
     estimated scf accuracy    <       0.14317029 Ry

     total magnetization       =   161.45 Bohr mag/cell
     absolute magnetization    =   169.70 Bohr mag/cell

     iteration # 61     ecut=    60.00 Ry     beta= 0.20
     Davidson diagonalization with overlap
     ethr =  1.87E-06,  avg # of iterations = 12.8

     negative rho (up, down):  2.740E-02 1.671E-01

     total cpu time spent up to now is    19314.6 secs

     total energy              =  -21072.37712792 Ry
     Harris-Foulkes estimate   =  -21072.40784300 Ry
     estimated scf accuracy    <       0.19485959 Ry

     total magnetization       =   161.79 Bohr mag/cell
     absolute magnetization    =   170.21 Bohr mag/cell

     iteration # 62     ecut=    60.00 Ry     beta= 0.20
     Davidson diagonalization with overlap
     c_bands:  1 eigenvalues not converged
     c_bands:  1 eigenvalues not converged
     ethr =  1.87E-06,  avg # of iterations = 13.3

     negative rho (up, down):  8.005E-02 1.410E-01

     total cpu time spent up to now is    19641.0 secs

     total energy              =  -21072.38139071 Ry
     Harris-Foulkes estimate   =  -21072.39692033 Ry
     estimated scf accuracy    <       0.02437644 Ry

     total magnetization       =   162.86 Bohr mag/cell
     absolute magnetization    =   169.51 Bohr mag/cell

     iteration # 63     ecut=    60.00 Ry     beta= 0.20
     Davidson diagonalization with overlap
     c_bands:  3 eigenvalues not converged
     c_bands:  2 eigenvalues not converged
     ethr =  1.87E-06,  avg # of iterations = 18.6

     negative rho (up, down):  8.825E-02 1.267E-01

     total cpu time spent up to now is    20168.0 secs

     total energy              =  -21072.38726227 Ry
     Harris-Foulkes estimate   =  -21072.39078255 Ry
     estimated scf accuracy    <       0.10267699 Ry

     total magnetization       =   162.45 Bohr mag/cell
     absolute magnetization    =   170.25 Bohr mag/cell

     iteration # 64     ecut=    60.00 Ry     beta= 0.20
     Davidson diagonalization with overlap
     c_bands:  3 eigenvalues not converged
     c_bands:  1 eigenvalues not converged
     ethr =  1.87E-06,  avg # of iterations = 11.3

     negative rho (up, down):  7.508E-02 1.173E-01

     total cpu time spent up to now is    20459.2 secs

     total energy              =  -21072.39007115 Ry
     Harris-Foulkes estimate   =  -21072.38877757 Ry
     estimated scf accuracy    <       0.02195892 Ry

     total magnetization       =   162.65 Bohr mag/cell
     absolute magnetization    =   170.09 Bohr mag/cell

     iteration # 65     ecut=    60.00 Ry     beta= 0.20
     Davidson diagonalization with overlap
     c_bands:  1 eigenvalues not converged
     ethr =  1.87E-06,  avg # of iterations = 11.5

     negative rho (up, down):  1.099E-01 1.330E-01

     total cpu time spent up to now is    20752.8 secs

     total energy              =  -21072.38782486 Ry
     Harris-Foulkes estimate   =  -21072.39104383 Ry
     estimated scf accuracy    <       0.00455865 Ry

     total magnetization       =   162.63 Bohr mag/cell
     absolute magnetization    =   169.76 Bohr mag/cell

     iteration # 66     ecut=    60.00 Ry     beta= 0.20
     Davidson diagonalization with overlap
     c_bands:  1 eigenvalues not converged
     c_bands:  1 eigenvalues not converged
     ethr =  4.45E-07,  avg # of iterations = 19.5

     negative rho (up, down):  8.980E-02 1.212E-01

     total cpu time spent up to now is    21422.3 secs

     total energy              =  -21072.38835505 Ry
     Harris-Foulkes estimate   =  -21072.38865666 Ry
     estimated scf accuracy    <       0.02163705 Ry

     total magnetization       =   162.76 Bohr mag/cell
     absolute magnetization    =   169.97 Bohr mag/cell

     iteration # 67     ecut=    60.00 Ry     beta= 0.20
     Davidson diagonalization with overlap
     c_bands:  1 eigenvalues not converged
     c_bands:  1 eigenvalues not converged
     ethr =  4.45E-07,  avg # of iterations = 13.7

     negative rho (up, down):  5.851E-02 1.117E-01

     total cpu time spent up to now is    21712.1 secs

     total energy              =  -21072.39026661 Ry
     Harris-Foulkes estimate   =  -21072.38925504 Ry
     estimated scf accuracy    <       0.05879616 Ry

     total magnetization       =   162.51 Bohr mag/cell
     absolute magnetization    =   170.21 Bohr mag/cell

     iteration # 68     ecut=    60.00 Ry     beta= 0.20
     Davidson diagonalization with overlap
     c_bands:  1 eigenvalues not converged
     c_bands:  1 eigenvalues not converged
     ethr =  4.45E-07,  avg # of iterations = 15.1

     negative rho (up, down):  6.241E-02 1.086E-01

     total cpu time spent up to now is    22013.4 secs

     total energy              =  -21072.39176915 Ry
     Harris-Foulkes estimate   =  -21072.39184738 Ry
     estimated scf accuracy    <       0.05653359 Ry

     total magnetization       =   162.43 Bohr mag/cell
     absolute magnetization    =   170.33 Bohr mag/cell

     iteration # 69     ecut=    60.00 Ry     beta= 0.20
     Davidson diagonalization with overlap
     ethr =  4.45E-07,  avg # of iterations =  6.8

     negative rho (up, down):  6.757E-02 1.119E-01

     total cpu time spent up to now is    22271.5 secs

     total energy              =  -21072.38900906 Ry
     Harris-Foulkes estimate   =  -21072.39181433 Ry
     estimated scf accuracy    <       0.05063109 Ry

     total magnetization       =   162.46 Bohr mag/cell
     absolute magnetization    =   170.31 Bohr mag/cell

     iteration # 70     ecut=    60.00 Ry     beta= 0.20
     Davidson diagonalization with overlap
     ethr =  4.45E-07,  avg # of iterations =  9.0

     negative rho (up, down):  4.264E-02 1.143E-01

     total cpu time spent up to now is    22534.8 secs

     total energy              =  -21072.39304472 Ry
     Harris-Foulkes estimate   =  -21072.38916807 Ry
     estimated scf accuracy    <       0.06395403 Ry

     total magnetization       =   162.46 Bohr mag/cell
     absolute magnetization    =   170.41 Bohr mag/cell

     iteration # 71     ecut=    60.00 Ry     beta= 0.20
     Davidson diagonalization with overlap
     c_bands:  1 eigenvalues not converged
     c_bands:  1 eigenvalues not converged
     ethr =  4.45E-07,  avg # of iterations = 14.2

     negative rho (up, down):  4.706E-02 1.086E-01

     total cpu time spent up to now is    22813.1 secs

     total energy              =  -21072.39455041 Ry
     Harris-Foulkes estimate   =  -21072.39336592 Ry
     estimated scf accuracy    <       0.04529430 Ry

     total magnetization       =   162.57 Bohr mag/cell
     absolute magnetization    =   170.39 Bohr mag/cell

     iteration # 72     ecut=    60.00 Ry     beta= 0.20
     Davidson diagonalization with overlap
     ethr =  4.45E-07,  avg # of iterations = 10.4

     negative rho (up, down):  4.133E-02 1.158E-01

     total cpu time spent up to now is    23059.5 secs

     total energy              =  -21072.39320553 Ry
     Harris-Foulkes estimate   =  -21072.39476139 Ry
     estimated scf accuracy    <       0.05963356 Ry

     total magnetization       =   162.24 Bohr mag/cell
     absolute magnetization    =   170.19 Bohr mag/cell

     iteration # 73     ecut=    60.00 Ry     beta= 0.20
     Davidson diagonalization with overlap
     ethr =  4.45E-07,  avg # of iterations =  7.5

     negative rho (up, down):  6.159E-02 9.978E-02

     total cpu time spent up to now is    23289.7 secs

     total energy              =  -21072.38907652 Ry
     Harris-Foulkes estimate   =  -21072.39331918 Ry
     estimated scf accuracy    <       0.07521075 Ry

     total magnetization       =   162.26 Bohr mag/cell
     absolute magnetization    =   170.30 Bohr mag/cell

     iteration # 74     ecut=    60.00 Ry     beta= 0.20
     Davidson diagonalization with overlap
     c_bands:  1 eigenvalues not converged
     ethr =  4.45E-07,  avg # of iterations = 14.7

     negative rho (up, down):  5.389E-02 9.684E-02

     total cpu time spent up to now is    23576.5 secs

     total energy              =  -21072.38596749 Ry
     Harris-Foulkes estimate   =  -21072.38961888 Ry
     estimated scf accuracy    <       0.05166274 Ry

     total magnetization       =   162.37 Bohr mag/cell
     absolute magnetization    =   170.24 Bohr mag/cell

     iteration # 75     ecut=    60.00 Ry     beta= 0.20
     Davidson diagonalization with overlap
     c_bands:  2 eigenvalues not converged
     ethr =  4.45E-07,  avg # of iterations = 14.1

     negative rho (up, down):  4.970E-02 8.245E-02

     total cpu time spent up to now is    23860.1 secs

     total energy              =  -21072.39244756 Ry
     Harris-Foulkes estimate   =  -21072.38631446 Ry
     estimated scf accuracy    <       0.05799962 Ry

     total magnetization       =   162.40 Bohr mag/cell
     absolute magnetization    =   170.23 Bohr mag/cell

     iteration # 76     ecut=    60.00 Ry     beta= 0.20
     Davidson diagonalization with overlap
     c_bands:  1 eigenvalues not converged
     ethr =  4.45E-07,  avg # of iterations = 13.9

     negative rho (up, down):  3.942E-02 1.100E-01

     total cpu time spent up to now is    24137.3 secs

     total energy              =  -21072.37772778 Ry
     Harris-Foulkes estimate   =  -21072.39307102 Ry
     estimated scf accuracy    <       0.06784683 Ry

     total magnetization       =   162.28 Bohr mag/cell
     absolute magnetization    =   170.25 Bohr mag/cell

     iteration # 77     ecut=    60.00 Ry     beta= 0.20
     Davidson diagonalization with overlap
     ethr =  4.45E-07,  avg # of iterations = 14.2

     negative rho (up, down):  3.433E-02 1.041E-01

     total cpu time spent up to now is    24442.6 secs

     total energy              =  -21072.38049458 Ry
     Harris-Foulkes estimate   =  -21072.38033148 Ry
     estimated scf accuracy    <       0.00656159 Ry

     total magnetization       =   162.78 Bohr mag/cell
     absolute magnetization    =   170.11 Bohr mag/cell

     iteration # 78     ecut=    60.00 Ry     beta= 0.20
     Davidson diagonalization with overlap
     ethr =  4.45E-07,  avg # of iterations =  7.2

     negative rho (up, down):  1.929E-02 9.187E-02

     total cpu time spent up to now is    24685.5 secs

     total energy              =  -21072.38227984 Ry
     Harris-Foulkes estimate   =  -21072.38057912 Ry
     estimated scf accuracy    <       0.01020078 Ry

     total magnetization       =   162.73 Bohr mag/cell
     absolute magnetization    =   170.15 Bohr mag/cell

     iteration # 79     ecut=    60.00 Ry     beta= 0.20
     Davidson diagonalization with overlap
     c_bands:  1 eigenvalues not converged
     c_bands:  1 eigenvalues not converged
     ethr =  4.45E-07,  avg # of iterations = 15.2

     negative rho (up, down):  1.981E-02 8.858E-02

     total cpu time spent up to now is    25007.7 secs

     total energy              =  -21072.38224177 Ry
     Harris-Foulkes estimate   =  -21072.38287567 Ry
     estimated scf accuracy    <       0.00691869 Ry

     total magnetization       =   162.79 Bohr mag/cell
     absolute magnetization    =   170.17 Bohr mag/cell

     iteration # 80     ecut=    60.00 Ry     beta= 0.20
     Davidson diagonalization with overlap
     ethr =  4.45E-07,  avg # of iterations =  9.9

     negative rho (up, down):  2.224E-02 8.869E-02

     total cpu time spent up to now is    25255.1 secs

     total energy              =  -21072.38378201 Ry
     Harris-Foulkes estimate   =  -21072.38231492 Ry
     estimated scf accuracy    <       0.00470186 Ry

     total magnetization       =   162.80 Bohr mag/cell
     absolute magnetization    =   170.12 Bohr mag/cell

     iteration # 81     ecut=    60.00 Ry     beta= 0.20
     Davidson diagonalization with overlap
     ethr =  4.45E-07,  avg # of iterations =  9.1

     negative rho (up, down):  2.108E-02 8.984E-02

     total cpu time spent up to now is    25534.0 secs

     total energy              =  -21072.38594473 Ry
     Harris-Foulkes estimate   =  -21072.38394336 Ry
     estimated scf accuracy    <       0.00569482 Ry

     total magnetization       =   162.75 Bohr mag/cell
     absolute magnetization    =   170.11 Bohr mag/cell

     iteration # 82     ecut=    60.00 Ry     beta= 0.20
     Davidson diagonalization with overlap
     ethr =  4.45E-07,  avg # of iterations =  7.2

     negative rho (up, down):  2.904E-02 9.017E-02

     total cpu time spent up to now is    25768.2 secs

     total energy              =  -21072.38098455 Ry
     Harris-Foulkes estimate   =  -21072.38598673 Ry
     estimated scf accuracy    <       0.00566097 Ry

     total magnetization       =   162.74 Bohr mag/cell
     absolute magnetization    =   170.10 Bohr mag/cell

     iteration # 83     ecut=    60.00 Ry     beta= 0.20
     Davidson diagonalization with overlap
     ethr =  4.45E-07,  avg # of iterations =  7.8

     negative rho (up, down):  2.360E-02 9.113E-02

     total cpu time spent up to now is    26024.8 secs

     total energy              =  -21072.38222663 Ry
     Harris-Foulkes estimate   =  -21072.38108828 Ry
     estimated scf accuracy    <       0.00661074 Ry

     total magnetization       =   162.74 Bohr mag/cell
     absolute magnetization    =   170.12 Bohr mag/cell

     iteration # 84     ecut=    60.00 Ry     beta= 0.20
     Davidson diagonalization with overlap
     ethr =  4.45E-07,  avg # of iterations =  7.9

     negative rho (up, down):  1.732E-02 1.048E-01

     total cpu time spent up to now is    26280.6 secs

     total energy              =  -21072.38377505 Ry
     Harris-Foulkes estimate   =  -21072.38234904 Ry
     estimated scf accuracy    <       0.00443137 Ry

     total magnetization       =   162.85 Bohr mag/cell
     absolute magnetization    =   170.17 Bohr mag/cell

     iteration # 85     ecut=    60.00 Ry     beta= 0.20
     Davidson diagonalization with overlap
     c_bands:  1 eigenvalues not converged
     c_bands:  1 eigenvalues not converged
     ethr =  4.33E-07,  avg # of iterations = 15.1

     negative rho (up, down):  2.585E-02 9.842E-02

     total cpu time spent up to now is    26592.8 secs

     total energy              =  -21072.38230775 Ry
     Harris-Foulkes estimate   =  -21072.38447956 Ry
     estimated scf accuracy    <       0.00843304 Ry

     total magnetization       =   162.78 Bohr mag/cell
     absolute magnetization    =   170.22 Bohr mag/cell

     iteration # 86     ecut=    60.00 Ry     beta= 0.20
     Davidson diagonalization with overlap
     c_bands:  1 eigenvalues not converged
     ethr =  4.33E-07,  avg # of iterations = 13.9

     negative rho (up, down):  2.681E-02 7.893E-02

     total cpu time spent up to now is    26912.5 secs

     total energy              =  -21072.38498367 Ry
     Harris-Foulkes estimate   =  -21072.38328499 Ry
     estimated scf accuracy    <       0.01044149 Ry

     total magnetization       =   162.79 Bohr mag/cell
     absolute magnetization    =   170.26 Bohr mag/cell

     iteration # 87     ecut=    60.00 Ry     beta= 0.20
     Davidson diagonalization with overlap
     c_bands:  1 eigenvalues not converged
     ethr =  4.33E-07,  avg # of iterations = 12.6

     negative rho (up, down):  2.133E-02 6.699E-02

     total cpu time spent up to now is    27175.3 secs

     total energy              =  -21072.38773315 Ry
     Harris-Foulkes estimate   =  -21072.38524514 Ry
     estimated scf accuracy    <       0.00573256 Ry

     total magnetization       =   162.85 Bohr mag/cell
     absolute magnetization    =   170.20 Bohr mag/cell

     iteration # 88     ecut=    60.00 Ry     beta= 0.20
     Davidson diagonalization with overlap
     ethr =  4.33E-07,  avg # of iterations = 13.9

     negative rho (up, down):  2.314E-02 7.034E-02

     total cpu time spent up to now is    27491.3 secs

     total energy              =  -21072.38714095 Ry
     Harris-Foulkes estimate   =  -21072.38830253 Ry
     estimated scf accuracy    <       0.00844312 Ry

     total magnetization       =   162.67 Bohr mag/cell
     absolute magnetization    =   170.09 Bohr mag/cell

     iteration # 89     ecut=    60.00 Ry     beta= 0.20
     Davidson diagonalization with overlap
     ethr =  4.33E-07,  avg # of iterations =  8.1

     negative rho (up, down):  2.314E-02 7.220E-02

     total cpu time spent up to now is    27726.2 secs

     total energy              =  -21072.38869918 Ry
     Harris-Foulkes estimate   =  -21072.38725286 Ry
     estimated scf accuracy    <       0.01106329 Ry

     total magnetization       =   162.59 Bohr mag/cell
     absolute magnetization    =   170.06 Bohr mag/cell

     iteration # 90     ecut=    60.00 Ry     beta= 0.20
     Davidson diagonalization with overlap
     ethr =  4.33E-07,  avg # of iterations =  7.7

     negative rho (up, down):  1.821E-02 6.963E-02

     total cpu time spent up to now is    27953.8 secs

     total energy              =  -21072.38814717 Ry
     Harris-Foulkes estimate   =  -21072.38876897 Ry
     estimated scf accuracy    <       0.01350689 Ry

     total magnetization       =   162.52 Bohr mag/cell
     absolute magnetization    =   170.03 Bohr mag/cell

     iteration # 91     ecut=    60.00 Ry     beta= 0.20
     Davidson diagonalization with overlap
     ethr =  4.33E-07,  avg # of iterations = 11.3

     negative rho (up, down):  2.048E-02 7.326E-02

     total cpu time spent up to now is    28250.9 secs

     total energy              =  -21072.38801418 Ry
     Harris-Foulkes estimate   =  -21072.38876768 Ry
     estimated scf accuracy    <       0.01276080 Ry

     total magnetization       =   162.56 Bohr mag/cell
     absolute magnetization    =   170.07 Bohr mag/cell

     iteration # 92     ecut=    60.00 Ry     beta= 0.20
     Davidson diagonalization with overlap
     ethr =  4.33E-07,  avg # of iterations = 10.3

     negative rho (up, down):  1.971E-02 7.281E-02

     total cpu time spent up to now is    28539.6 secs

     total energy              =  -21072.38820250 Ry
     Harris-Foulkes estimate   =  -21072.38816623 Ry
     estimated scf accuracy    <       0.01049605 Ry

     total magnetization       =   162.63 Bohr mag/cell
     absolute magnetization    =   170.10 Bohr mag/cell

     iteration # 93     ecut=    60.00 Ry     beta= 0.20
     Davidson diagonalization with overlap
     ethr =  4.33E-07,  avg # of iterations =  2.0

     negative rho (up, down):  1.516E-02 7.353E-02

     total cpu time spent up to now is    28717.5 secs

     total energy              =  -21072.38786140 Ry
     Harris-Foulkes estimate   =  -21072.38820863 Ry
     estimated scf accuracy    <       0.00985469 Ry

     total magnetization       =   162.63 Bohr mag/cell
     absolute magnetization    =   170.09 Bohr mag/cell

     iteration # 94     ecut=    60.00 Ry     beta= 0.20
     Davidson diagonalization with overlap
     c_bands:  1 eigenvalues not converged
     ethr =  4.33E-07,  avg # of iterations = 12.2

     negative rho (up, down):  1.782E-02 7.924E-02

     total cpu time spent up to now is    29013.0 secs

     total energy              =  -21072.38819603 Ry
     Harris-Foulkes estimate   =  -21072.38853447 Ry
     estimated scf accuracy    <       0.00920188 Ry

     total magnetization       =   162.60 Bohr mag/cell
     absolute magnetization    =   170.06 Bohr mag/cell

     iteration # 95     ecut=    60.00 Ry     beta= 0.20
     Davidson diagonalization with overlap
     c_bands:  1 eigenvalues not converged
     ethr =  4.33E-07,  avg # of iterations = 13.7

     negative rho (up, down):  2.534E-02 8.526E-02

     total cpu time spent up to now is    29315.3 secs

     total energy              =  -21072.38374921 Ry
     Harris-Foulkes estimate   =  -21072.38858745 Ry
     estimated scf accuracy    <       0.01040627 Ry

     total magnetization       =   162.61 Bohr mag/cell
     absolute magnetization    =   170.10 Bohr mag/cell

     iteration # 96     ecut=    60.00 Ry     beta= 0.20
     Davidson diagonalization with overlap
     c_bands:  1 eigenvalues not converged
     ethr =  4.33E-07,  avg # of iterations = 13.2

     negative rho (up, down):  1.888E-02 8.014E-02

     total cpu time spent up to now is    29626.3 secs

     total energy              =  -21072.38617664 Ry
     Harris-Foulkes estimate   =  -21072.38424438 Ry
     estimated scf accuracy    <       0.00646086 Ry

     total magnetization       =   162.57 Bohr mag/cell
     absolute magnetization    =   169.98 Bohr mag/cell

     iteration # 97     ecut=    60.00 Ry     beta= 0.20
     Davidson diagonalization with overlap
     c_bands:  1 eigenvalues not converged
     ethr =  4.33E-07,  avg # of iterations = 12.8

     negative rho (up, down):  1.681E-02 7.933E-02

     total cpu time spent up to now is    29933.4 secs

     total energy              =  -21072.38656019 Ry
     Harris-Foulkes estimate   =  -21072.38702940 Ry
     estimated scf accuracy    <       0.02559723 Ry

     total magnetization       =   162.42 Bohr mag/cell
     absolute magnetization    =   170.11 Bohr mag/cell

     iteration # 98     ecut=    60.00 Ry     beta= 0.20
     Davidson diagonalization with overlap
     c_bands:  1 eigenvalues not converged
     ethr =  4.33E-07,  avg # of iterations =  9.4

     negative rho (up, down):  1.868E-02 7.122E-02

     total cpu time spent up to now is    30182.5 secs

     total energy              =  -21072.38885181 Ry
     Harris-Foulkes estimate   =  -21072.38670041 Ry
     estimated scf accuracy    <       0.01827722 Ry

     total magnetization       =   162.44 Bohr mag/cell
     absolute magnetization    =   170.05 Bohr mag/cell

     iteration # 99     ecut=    60.00 Ry     beta= 0.20
     Davidson diagonalization with overlap
     c_bands:  1 eigenvalues not converged
     c_bands:  1 eigenvalues not converged
     ethr =  4.33E-07,  avg # of iterations = 13.1

     negative rho (up, down):  1.872E-02 7.205E-02

     total cpu time spent up to now is    30466.8 secs

     total energy              =  -21072.38770282 Ry
     Harris-Foulkes estimate   =  -21072.38906278 Ry
     estimated scf accuracy    <       0.02845969 Ry

     total magnetization       =   162.30 Bohr mag/cell
     absolute magnetization    =   170.04 Bohr mag/cell

     iteration #100     ecut=    60.00 Ry     beta= 0.20
     Davidson diagonalization with overlap
     ethr =  4.33E-07,  avg # of iterations = 11.7

     negative rho (up, down):  1.595E-02 8.602E-02

     Magnetic moment per site:
     atom:    1    charge:   14.2648    magn:    2.6426    constr:    0.0000
     atom:    2    charge:   14.3384    magn:    2.4293    constr:    0.0000
     atom:    3    charge:   14.2647    magn:    2.6425    constr:    0.0000
     atom:    4    charge:   14.3386    magn:    2.4291    constr:    0.0000
     atom:    5    charge:   14.3528    magn:    2.4111    constr:    0.0000
     atom:    6    charge:   14.2789    magn:    2.6550    constr:    0.0000
     atom:    7    charge:   14.3527    magn:    2.4116    constr:    0.0000
     atom:    8    charge:   14.2793    magn:    2.6545    constr:    0.0000
     atom:    9    charge:   14.2649    magn:    2.6425    constr:    0.0000
     atom:   10    charge:   14.2649    magn:    2.6424    constr:    0.0000
     atom:   11    charge:   14.3384    magn:    2.4294    constr:    0.0000
     atom:   12    charge:   14.3385    magn:    2.4293    constr:    0.0000
     atom:   13    charge:   14.3528    magn:    2.4110    constr:    0.0000
     atom:   14    charge:   14.3528    magn:    2.4107    constr:    0.0000
     atom:   15    charge:   14.2793    magn:    2.6545    constr:    0.0000
     atom:   16    charge:   14.2791    magn:    2.6548    constr:    0.0000
     atom:   17    charge:   14.2648    magn:    2.6425    constr:    0.0000
     atom:   18    charge:   14.3387    magn:    2.4292    constr:    0.0000
     atom:   19    charge:   14.2648    magn:    2.6426    constr:    0.0000
     atom:   20    charge:   14.3383    magn:    2.4294    constr:    0.0000
     atom:   21    charge:   14.3527    magn:    2.4116    constr:    0.0000
     atom:   22    charge:   14.2796    magn:    2.6542    constr:    0.0000
     atom:   23    charge:   14.3527    magn:    2.4116    constr:    0.0000
     atom:   24    charge:   14.2792    magn:    2.6544    constr:    0.0000
     atom:   25    charge:   14.2647    magn:    2.6426    constr:    0.0000
     atom:   26    charge:   14.2646    magn:    2.6426    constr:    0.0000
     atom:   27    charge:   14.3385    magn:    2.4294    constr:    0.0000
     atom:   28    charge:   14.3384    magn:    2.4294    constr:    0.0000
     atom:   29    charge:   14.3529    magn:    2.4107    constr:    0.0000
     atom:   30    charge:   14.3528    magn:    2.4111    constr:    0.0000
     atom:   31    charge:   14.2789    magn:    2.6553    constr:    0.0000
     atom:   32    charge:   14.2793    magn:    2.6545    constr:    0.0000
     atom:   33    charge:   14.2648    magn:    2.6426    constr:    0.0000
     atom:   34    charge:   14.3387    magn:    2.4291    constr:    0.0000
     atom:   35    charge:   14.2648    magn:    2.6425    constr:    0.0000
     atom:   36    charge:   14.3383    magn:    2.4293    constr:    0.0000
     atom:   37    charge:   14.3528    magn:    2.4112    constr:    0.0000
     atom:   38    charge:   14.2796    magn:    2.6542    constr:    0.0000
     atom:   39    charge:   14.3528    magn:    2.4112    constr:    0.0000
     atom:   40    charge:   14.2788    magn:    2.6551    constr:    0.0000
     atom:   41    charge:   14.2646    magn:    2.6426    constr:    0.0000
     atom:   42    charge:   14.2647    magn:    2.6425    constr:    0.0000
     atom:   43    charge:   14.3385    magn:    2.4292    constr:    0.0000
     atom:   44    charge:   14.3384    magn:    2.4295    constr:    0.0000
     atom:   45    charge:   14.3528    magn:    2.4108    constr:    0.0000
     atom:   46    charge:   14.3527    magn:    2.4115    constr:    0.0000
     atom:   47    charge:   14.2791    magn:    2.6547    constr:    0.0000
     atom:   48    charge:   14.2794    magn:    2.6544    constr:    0.0000
     atom:   49    charge:   14.2647    magn:    2.6426    constr:    0.0000
     atom:   50    charge:   14.3385    magn:    2.4295    constr:    0.0000
     atom:   51    charge:   14.2648    magn:    2.6426    constr:    0.0000
     atom:   52    charge:   14.3386    magn:    2.4290    constr:    0.0000
     atom:   53    charge:   14.3527    magn:    2.4115    constr:    0.0000
     atom:   54    charge:   14.2796    magn:    2.6540    constr:    0.0000
     atom:   55    charge:   14.3528    magn:    2.4112    constr:    0.0000
     atom:   56    charge:   14.2793    magn:    2.6544    constr:    0.0000
     atom:   57    charge:   14.2649    magn:    2.6426    constr:    0.0000
     atom:   58    charge:   14.2649    magn:    2.6425    constr:    0.0000
     atom:   59    charge:   14.3384    magn:    2.4295    constr:    0.0000
     atom:   60    charge:   14.3385    magn:    2.4294    constr:    0.0000
     atom:   61    charge:   14.3528    magn:    2.4110    constr:    0.0000
     atom:   62    charge:   14.3528    magn:    2.4107    constr:    0.0000
     atom:   63    charge:   14.2794    magn:    2.6543    constr:    0.0000
     atom:   64    charge:   14.2789    magn:    2.6551    constr:    0.0000

     total cpu time spent up to now is    30719.1 secs

     total energy              =  -21072.39012771 Ry
     Harris-Foulkes estimate   =  -21072.38791368 Ry
     estimated scf accuracy    <       0.01715538 Ry

     total magnetization       =   162.44 Bohr mag/cell
     absolute magnetization    =   170.03 Bohr mag/cell

     iteration #101     ecut=    60.00 Ry     beta= 0.20
     Davidson diagonalization with overlap
     c_bands:  1 eigenvalues not converged
     c_bands:  1 eigenvalues not converged
     ethr =  4.33E-07,  avg # of iterations = 14.8

     negative rho (up, down):  1.612E-02 9.282E-02

     total cpu time spent up to now is    31022.3 secs

     total energy              =  -21072.38657629 Ry
     Harris-Foulkes estimate   =  -21072.39066990 Ry
     estimated scf accuracy    <       0.02270492 Ry

     total magnetization       =   162.31 Bohr mag/cell
     absolute magnetization    =   169.99 Bohr mag/cell

     iteration #102     ecut=    60.00 Ry     beta= 0.20
     Davidson diagonalization with overlap
     c_bands:  1 eigenvalues not converged
     ethr =  4.33E-07,  avg # of iterations = 13.2

     negative rho (up, down):  1.481E-02 8.700E-02

     total cpu time spent up to now is    31341.2 secs

     total energy              =  -21072.38959006 Ry
     Harris-Foulkes estimate   =  -21072.38732956 Ry
     estimated scf accuracy    <       0.02724205 Ry

     total magnetization       =   162.34 Bohr mag/cell
     absolute magnetization    =   170.06 Bohr mag/cell

     iteration #103     ecut=    60.00 Ry     beta= 0.20
     Davidson diagonalization with overlap
     c_bands:  1 eigenvalues not converged
     ethr =  4.33E-07,  avg # of iterations = 10.3

     negative rho (up, down):  1.843E-02 9.233E-02

     total cpu time spent up to now is    31598.0 secs

     total energy              =  -21072.38628422 Ry
     Harris-Foulkes estimate   =  -21072.38973731 Ry
     estimated scf accuracy    <       0.02458477 Ry

     total magnetization       =   162.31 Bohr mag/cell
     absolute magnetization    =   170.01 Bohr mag/cell

     iteration #104     ecut=    60.00 Ry     beta= 0.20
     Davidson diagonalization with overlap
     c_bands:  1 eigenvalues not converged
     c_bands:  1 eigenvalues not converged
     ethr =  4.33E-07,  avg # of iterations = 13.2

     negative rho (up, down):  1.751E-02 8.810E-02

     total cpu time spent up to now is    31908.0 secs

     total energy              =  -21072.38845882 Ry
     Harris-Foulkes estimate   =  -21072.38736163 Ry
     estimated scf accuracy    <       0.04213252 Ry

     total magnetization       =   162.25 Bohr mag/cell
     absolute magnetization    =   170.11 Bohr mag/cell

     iteration #105     ecut=    60.00 Ry     beta= 0.20
     Davidson diagonalization with overlap
     c_bands:  1 eigenvalues not converged
     ethr =  4.33E-07,  avg # of iterations = 14.7

     negative rho (up, down):  2.430E-02 8.965E-02

     total cpu time spent up to now is    32216.6 secs

     total energy              =  -21072.38720298 Ry
     Harris-Foulkes estimate   =  -21072.38909565 Ry
     estimated scf accuracy    <       0.02152910 Ry

     total magnetization       =   162.42 Bohr mag/cell
     absolute magnetization    =   170.07 Bohr mag/cell

     iteration #106     ecut=    60.00 Ry     beta= 0.20
     Davidson diagonalization with overlap
     c_bands:  1 eigenvalues not converged
     ethr =  4.33E-07,  avg # of iterations = 14.2

     negative rho (up, down):  2.004E-02 9.203E-02

     total cpu time spent up to now is    32499.7 secs

     total energy              =  -21072.38563070 Ry
     Harris-Foulkes estimate   =  -21072.38753243 Ry
     estimated scf accuracy    <       0.01896028 Ry

     total magnetization       =   162.50 Bohr mag/cell
     absolute magnetization    =   170.11 Bohr mag/cell

     iteration #107     ecut=    60.00 Ry     beta= 0.20
     Davidson diagonalization with overlap
     ethr =  4.33E-07,  avg # of iterations = 11.7

     negative rho (up, down):  9.378E-03 9.955E-02

     total cpu time spent up to now is    32764.5 secs

     total energy              =  -21072.39321297 Ry
     Harris-Foulkes estimate   =  -21072.38600863 Ry
     estimated scf accuracy    <       0.03610809 Ry

     total magnetization       =   162.14 Bohr mag/cell
     absolute magnetization    =   169.95 Bohr mag/cell

     iteration #108     ecut=    60.00 Ry     beta= 0.20
     Davidson diagonalization with overlap
     c_bands:  1 eigenvalues not converged
     ethr =  4.33E-07,  avg # of iterations = 16.3

     negative rho (up, down):  1.063E-02 9.282E-02

     total cpu time spent up to now is    33176.1 secs

     total energy              =  -21072.40587137 Ry
     Harris-Foulkes estimate   =  -21072.39736354 Ry
     estimated scf accuracy    <       0.00416646 Ry

     total magnetization       =   162.62 Bohr mag/cell
     absolute magnetization    =   170.01 Bohr mag/cell

     iteration #109     ecut=    60.00 Ry     beta= 0.20
     Davidson diagonalization with overlap
     c_bands:  1 eigenvalues not converged
     ethr =  4.07E-07,  avg # of iterations = 12.8

     negative rho (up, down):  1.718E-02 1.012E-01

     total cpu time spent up to now is    33493.0 secs

     total energy              =  -21072.39485155 Ry
     Harris-Foulkes estimate   =  -21072.40655593 Ry
     estimated scf accuracy    <       0.00150596 Ry

     total magnetization       =   162.69 Bohr mag/cell
     absolute magnetization    =   169.85 Bohr mag/cell

     iteration #110     ecut=    60.00 Ry     beta= 0.20
     Davidson diagonalization with overlap
     c_bands:  1 eigenvalues not converged
     ethr =  1.47E-07,  avg # of iterations = 15.1

     negative rho (up, down):  1.869E-02 1.030E-01

     total cpu time spent up to now is    33816.6 secs

     total energy              =  -21072.39027996 Ry
     Harris-Foulkes estimate   =  -21072.39672821 Ry
     estimated scf accuracy    <       0.02976633 Ry

     total magnetization       =   162.44 Bohr mag/cell
     absolute magnetization    =   170.22 Bohr mag/cell

     iteration #111     ecut=    60.00 Ry     beta= 0.20
     Davidson diagonalization with overlap
     ethr =  1.47E-07,  avg # of iterations = 10.5

     negative rho (up, down):  1.380E-02 1.082E-01

     total cpu time spent up to now is    34129.2 secs

     total energy              =  -21072.39495525 Ry
     Harris-Foulkes estimate   =  -21072.39063294 Ry
     estimated scf accuracy    <       0.02797810 Ry

     total magnetization       =   162.45 Bohr mag/cell
     absolute magnetization    =   170.20 Bohr mag/cell

     iteration #112     ecut=    60.00 Ry     beta= 0.20
     Davidson diagonalization with overlap
     ethr =  1.47E-07,  avg # of iterations = 10.1

     negative rho (up, down):  1.561E-02 1.096E-01

     total cpu time spent up to now is    34431.5 secs

     total energy              =  -21072.39366471 Ry
     Harris-Foulkes estimate   =  -21072.39532473 Ry
     estimated scf accuracy    <       0.01762649 Ry

     total magnetization       =   162.47 Bohr mag/cell
     absolute magnetization    =   170.13 Bohr mag/cell

     iteration #113     ecut=    60.00 Ry     beta= 0.20
     Davidson diagonalization with overlap
     ethr =  1.47E-07,  avg # of iterations =  7.5

     negative rho (up, down):  1.023E-02 9.664E-02

     total cpu time spent up to now is    34666.4 secs

     total energy              =  -21072.40073017 Ry
     Harris-Foulkes estimate   =  -21072.39371648 Ry
     estimated scf accuracy    <       0.02262919 Ry

     total magnetization       =   162.48 Bohr mag/cell
     absolute magnetization    =   170.19 Bohr mag/cell

     iteration #114     ecut=    60.00 Ry     beta= 0.20
     Davidson diagonalization with overlap
     ethr =  1.47E-07,  avg # of iterations = 12.9

     negative rho (up, down):  9.780E-03 9.737E-02

     total cpu time spent up to now is    34973.1 secs

     total energy              =  -21072.40100353 Ry
     Harris-Foulkes estimate   =  -21072.40175582 Ry
     estimated scf accuracy    <       0.00205057 Ry

     total magnetization       =   162.55 Bohr mag/cell
     absolute magnetization    =   169.91 Bohr mag/cell

     iteration #115     ecut=    60.00 Ry     beta= 0.20
     Davidson diagonalization with overlap
     ethr =  1.47E-07,  avg # of iterations =  7.9

     negative rho (up, down):  1.602E-02 8.534E-02

     total cpu time spent up to now is    35221.5 secs

     total energy              =  -21072.39807929 Ry
     Harris-Foulkes estimate   =  -21072.40107117 Ry
     estimated scf accuracy    <       0.00439466 Ry

     total magnetization       =   162.54 Bohr mag/cell
[...]
   -11.9627 -11.9327 -11.9138 -11.8949 -11.8924 -11.8752 -11.8578 -11.8033
   -11.7960 -11.6505 -11.5860 -11.5793 -11.5780 -11.5718 -11.5267 -11.5162
   -11.4745 -11.4172 -11.3976 -11.3741 -11.3644 -11.3143 -11.2965 -11.2923
   -11.2673 -11.2376 -11.2363 -11.2342 -11.2333 -11.2301 -11.1988 -11.1795
   -11.1736 -11.1680 -11.1197 -11.0491 -11.0229 -11.0198 -11.0002 -10.9992
   -10.9920 -10.9838 -10.9784 -10.9768 -10.9705 -10.9677 -10.9670 -10.9407
   -10.9364 -10.8981 -10.8704 -10.8252 -10.7920 -10.7880 -10.7626 -10.7622
   -10.7503 -10.7460 -10.7281 -10.7265 -10.7137 -10.7036 -10.6998 -10.6932
   -10.6746 -10.6695 -10.6684 -10.6565 -10.6231 -10.6202 -10.6183 -10.6015
   -10.6009 -10.5798 -10.5758 -10.5751 -10.5508 -10.5280 -10.5065 -10.4961
   -10.4918 -10.4914 -10.4859 -10.4760 -10.4743 -10.4705 -10.4513 -10.4491
   -10.4471 -10.4338 -10.4213 -10.4107 -10.4094 -10.4069 -10.3879 -10.3786
   -10.3736 -10.3539 -10.3525 -10.3403 -10.3346 -10.3291 -10.3201 -10.2852
   -10.2762 -10.2699 -10.2697 -10.2640 -10.2614 -10.2435 -10.2418 -10.2402
   -10.2373 -10.2357 -10.2225 -10.2216 -10.2042 -10.2032 -10.1826 -10.1767
   -10.1599 -10.1575 -10.1417 -10.1409 -10.1377 -10.1348 -10.1259 -10.1241
   -10.1227 -10.1197 -10.1189 -10.1046 -10.0878 -10.0823 -10.0804 -10.0626
   -10.0548 -10.0467 -10.0440 -10.0426 -10.0296 -10.0062 -10.0057  -9.9997
    -9.9615  -9.9538  -9.9440  -9.9253  -9.9087  -9.9009  -9.9003  -9.8959
    -9.8884  -9.8862  -9.8782  -9.8696  -9.8604  -9.8222  -9.7967  -9.7950
    -9.7935  -9.7801  -9.7727  -9.7685  -9.7629  -9.7332  -9.6288  -9.5734
    -9.5461  -9.5332  -9.5172  -9.4508  -9.3738  -9.3465

          k =-0.5000-0.3536 0.0000 (128560 PWs)   bands (ev):

   -97.3666 -97.3663 -97.3582 -97.3581 -97.3318 -97.3317 -97.3317 -97.3317
   -97.3295 -97.3293 -97.3281 -97.3281 -97.3187 -97.3184 -97.3184 -97.3181
   -97.3156 -97.3153 -97.3096 -97.3094 -97.3094 -97.3091 -97.3061 -97.3061
   -97.3061 -97.3061 -97.3053 -97.3053 -97.2846 -97.2846 -97.2845 -97.2844
   -97.2768 -97.2766 -97.2765 -97.2765 -97.2718 -97.2718 -97.2718 -97.2717
   -97.2550 -97.2549 -97.2549 -97.2548 -97.2547 -97.2546 -97.2546 -97.2546
   -97.2499 -97.2499 -97.2499 -97.2498 -97.2496 -97.2496 -97.2496 -97.2495
   -97.2327 -97.2326 -97.2326 -97.2326 -97.2281 -97.2280 -97.2278 -97.2277
   -63.6163 -63.6161 -63.6159 -63.6157 -63.6087 -63.6085 -63.6084 -63.6082
   -63.6079 -63.6077 -63.6036 -63.6035 -63.5981 -63.5978 -63.5920 -63.5920
   -63.5920 -63.5919 -63.5844 -63.5843 -63.5843 -63.5842 -63.5744 -63.5743
   -63.5697 -63.5695 -63.5637 -63.5636 -63.5624 -63.5624 -63.5401 -63.5400
   -63.5397 -63.5396 -63.5330 -63.5330 -63.5327 -63.5327 -63.5296 -63.5296
   -63.5295 -63.5295 -63.5263 -63.5263 -63.5238 -63.5237 -63.5237 -63.5237
   -63.5167 -63.5164 -63.5153 -63.5152 -63.5145 -63.5144 -63.5104 -63.5103
   -63.5102 -63.5101 -63.5089 -63.5089 -63.5088 -63.5088 -63.4703 -63.4702
   -63.4606 -63.4606 -63.4605 -63.4605 -63.4563 -63.4563 -63.4483 -63.4482
   -63.4467 -63.4465 -63.4291 -63.4291 -63.4111 -63.4111 -63.4110 -63.4109
   -63.4109 -63.4108 -63.4064 -63.4061 -63.4000 -63.4000 -63.4000 -63.3999
   -63.3991 -63.3990 -63.3990 -63.3990 -63.3831 -63.3831 -63.3826 -63.3826
   -63.3772 -63.3772 -63.3772 -63.3771 -63.3709 -63.3707 -63.3689 -63.3688
   -63.3688 -63.3687 -63.3570 -63.3569 -63.3569 -63.3569 -63.3558 -63.3556
   -63.3463 -63.3463 -63.3412 -63.3411 -63.3349 -63.3348 -63.3317 -63.3316
   -63.3316 -63.3316 -63.3228 -63.3228 -63.3191 -63.3190 -63.3155 -63.3154
   -63.3097 -63.3097 -63.3081 -63.3081 -63.3045 -63.3045 -63.3044 -63.3044
   -63.3026 -63.3025 -63.3019 -63.3019 -63.3018 -63.3018 -63.2979 -63.2979
   -63.2979 -63.2978 -63.2956 -63.2955 -63.2932 -63.2931 -63.2902 -63.2900
   -63.2873 -63.2872 -63.2831 -63.2831 -63.2803 -63.2803 -63.2783 -63.2782
   -63.2782 -63.2782 -63.2778 -63.2778 -63.2766 -63.2766 -63.2738 -63.2738
   -63.2737 -63.2737 -63.2678 -63.2678 -63.2666 -63.2665 -63.2665 -63.2664
   -63.2655 -63.2654 -63.2654 -63.2653 -63.2557 -63.2556 -63.2511 -63.2510
   -63.2510 -63.2510 -63.2495 -63.2493 -63.2459 -63.2459 -63.2448 -63.2446
   -19.3194 -19.3190 -18.7341 -18.7340 -18.0316 -18.0314 -17.4883 -17.4881
   -16.7306 -16.7306 -16.7304 -16.7304 -16.3243 -16.3240 -15.8858 -15.8858
   -15.8857 -15.8857 -15.8799 -15.8796 -15.7891 -15.7890 -15.7467 -15.7466
   -15.7463 -15.7462 -15.3216 -15.3215 -15.3215 -15.3213 -15.3202 -15.3198
   -15.1155 -15.1155 -14.8517 -14.8516 -14.8195 -14.8194 -14.8193 -14.8192
   -14.7599 -14.7596 -14.7181 -14.7180 -14.7179 -14.7178 -14.5534 -14.5532
   -14.5444 -14.5443 -14.5245 -14.5238 -14.2783 -14.2780 -14.2671 -14.2670
   -14.2670 -14.2669 -14.0509 -14.0507 -14.0012 -14.0010 -13.9451 -13.9449
   -13.8424 -13.8422 -13.7525 -13.7524 -13.7521 -13.7521 -13.7484 -13.7484
   -13.7293 -13.7290 -13.7193 -13.7189 -13.6251 -13.6250 -13.6249 -13.6247
   -13.6157 -13.6156 -13.6154 -13.6153 -13.6129 -13.6128 -13.6126 -13.6125
   -13.4042 -13.4040 -13.3882 -13.3881 -13.2590 -13.2590 -13.2587 -13.2587
   -13.2495 -13.2493 -13.1990 -13.1990 -13.1988 -13.1988 -13.1818 -13.1817
   -13.1702 -13.1693 -13.1619 -13.1619 -13.1618 -13.1616 -13.1284 -13.1283
   -13.1282 -13.1281 -13.1248 -13.1247 -13.1245 -13.1245 -13.1151 -13.1143
   -13.0774 -13.0773 -13.0771 -13.0770 -13.0199 -13.0199 -13.0196 -13.0195
   -13.0132 -13.0130 -13.0129 -13.0127 -13.0083 -13.0080 -12.9956 -12.9951
   -12.9422 -12.9419 -12.8082 -12.8077 -12.7457 -12.7457 -12.7456 -12.7456
   -12.7314 -12.7309 -12.6791 -12.6790 -12.6789 -12.6788 -12.5749 -12.5747
   -12.5510 -12.5509 -12.5507 -12.5506 -12.5178 -12.5174 -12.5121 -12.5118
   -12.4925 -12.4921 -12.4464 -12.4462 -12.3164 -12.3162 -12.2981 -12.2978
   -12.2324 -12.2323 -12.2264 -12.2261 -12.1942 -12.1941 -12.1940 -12.1939
   -12.1881 -12.1878 -12.1009 -12.1007 -12.1006 -12.1004 -12.0900 -12.0897
   -12.0478 -12.0471 -11.9651 -11.9651 -11.8091 -11.8090 -11.7587 -11.7582
   -11.7163 -11.7156 -11.6398 -11.6397 -11.4518 -11.4514 -11.4452 -11.4450
   -11.3999 -11.3997 -11.3932 -11.3929 -11.2861 -11.2861 -11.2860 -11.2860
   -11.2803 -11.2801 -11.2109 -11.2108 -11.2040 -11.2035 -11.1607 -11.1606
   -11.1530 -11.1526 -11.0547 -11.0546 -11.0415 -11.0415 -11.0413 -11.0413
   -10.9495 -10.9494 -10.9494 -10.9494 -10.9406 -10.9405 -10.9404 -10.9403
   -10.9194 -10.9192 -10.9190 -10.9186 -10.8381 -10.8380 -10.8380 -10.8380
   -10.7740 -10.7739 -10.7736 -10.7735 -10.7416 -10.7413 -10.7080 -10.7078
   -10.6505 -10.6502 -10.5933 -10.5931 -10.5112 -10.5112 -10.5082 -10.5081
   -10.5079 -10.5078 -10.5036 -10.5033 -10.4695 -10.4693 -10.4623 -10.4621
   -10.4520 -10.4518 -10.4517 -10.4516 -10.4392 -10.4392 -10.4390 -10.4390
   -10.4174 -10.4170 -10.3744 -10.3741 -10.3715 -10.3714 -10.3711 -10.3711
   -10.3499 -10.3493 -10.3431 -10.3429 -10.3415 -10.3410 -10.3096 -10.3095
   -10.3000 -10.2999 -10.2725 -10.2725 -10.2724 -10.2723 -10.2571 -10.2571
   -10.2571 -10.2570 -10.2478 -10.2476 -10.2137 -10.2134 -10.1535 -10.1535
   -10.1370 -10.1369 -10.1274 -10.1272 -10.1035 -10.1033 -10.0742 -10.0741
   -10.0740 -10.0739 -10.0714 -10.0714 -10.0712 -10.0712 -10.0580 -10.0579
   -10.0570 -10.0569 -10.0569 -10.0569 -10.0490 -10.0486  -9.9975  -9.9974
    -9.9959  -9.9958  -9.9957  -9.9956  -9.9807  -9.9807  -9.9706  -9.9706
    -9.9704  -9.9703  -9.8878  -9.8876  -9.8781  -9.8781  -9.8779  -9.8779
    -9.6830  -9.6830  -9.6709  -9.6708  -9.5882  -9.5878  -9.4504  -9.4504
    -9.4503  -9.4503  -9.3612  -9.3604  -9.3594  -9.3593

     the Fermi energy is   -12.2230 ev

!    total energy              =  -21072.40173663 Ry
     Harris-Foulkes estimate   =  -21072.40173581 Ry
     estimated scf accuracy    <          5.8E-11 Ry

     total all-electron energy =   -162915.380009 Ry

     The total energy is the sum of the following terms:

     one-electron contribution = -737057.99706400 Ry
     hartree contribution      =  368063.43825150 Ry
     xc contribution           =   -2228.13159231 Ry
     ewald contribution        =  355025.07532326 Ry
     Dispersion Correction     =      -1.36915810 Ry
     one-center paw contrib.   =   -4873.41765029 Ry
     smearing contrib. (-TS)   =       0.00015332 Ry

     total magnetization       =   163.11 Bohr mag/cell
     absolute magnetization    =   170.52 Bohr mag/cell

     convergence has been achieved in  40 iterations

     negative rho (up, down):  1.156E-02 1.218E-01

     Forces acting on atoms (cartesian axes, Ry/au):

     atom    1 type  1   force =    -0.00000632   -0.00000064    0.00904900
     atom    2 type  1   force =     0.00000942   -0.00000329   -0.00807287
     atom    3 type  1   force =     0.00001865    0.00002048    0.00908658
     atom    4 type  1   force =    -0.00003496    0.00000162   -0.00795834
     atom    5 type  1   force =     0.00005505   -0.00000952    0.00016058
     atom    6 type  1   force =    -0.00000728    0.00000168   -0.00018698
     atom    7 type  1   force =     0.00000118   -0.00004491    0.00013380
     atom    8 type  1   force =    -0.00003238    0.00001985   -0.00010095
     atom    9 type  1   force =    -0.00003105    0.00003838    0.00903984
     atom   10 type  1   force =     0.00002129   -0.00004561    0.00903202
     atom   11 type  1   force =     0.00001780   -0.00009025   -0.00801724
     atom   12 type  1   force =    -0.00008130    0.00004263   -0.00798820
     atom   13 type  1   force =     0.00000245    0.00001598    0.00010220
     atom   14 type  1   force =     0.00002670    0.00000473    0.00016066
     atom   15 type  1   force =     0.00007421    0.00002966   -0.00022359
     atom   16 type  1   force =     0.00009686    0.00009950   -0.00017494
     atom   17 type  1   force =     0.00002293    0.00002342    0.00906140
     atom   18 type  1   force =     0.00001759   -0.00001623   -0.00789675
     atom   19 type  1   force =    -0.00002895   -0.00001412    0.00906154
     atom   20 type  1   force =     0.00008528   -0.00011002   -0.00798217
     atom   21 type  1   force =    -0.00003498    0.00000613    0.00016055
     atom   22 type  1   force =    -0.00000170   -0.00004123   -0.00008919
     atom   23 type  1   force =     0.00000506    0.00003278    0.00015824
     atom   24 type  1   force =     0.00002317   -0.00003950   -0.00022368
     atom   25 type  1   force =     0.00000422   -0.00000648    0.00906264
     atom   26 type  1   force =    -0.00002045    0.00002896    0.00910311
     atom   27 type  1   force =     0.00004926   -0.00007308   -0.00797157
     atom   28 type  1   force =     0.00008675   -0.00003887   -0.00801431
     atom   29 type  1   force =    -0.00001605    0.00001726    0.00015288
     atom   30 type  1   force =    -0.00000927    0.00000591    0.00024922
     atom   31 type  1   force =    -0.00006762   -0.00001027   -0.00001309
     atom   32 type  1   force =    -0.00005392   -0.00006458   -0.00022468
     atom   33 type  1   force =     0.00003011    0.00000647    0.00905680
     atom   34 type  1   force =     0.00001760   -0.00001351   -0.00789846
     atom   35 type  1   force =    -0.00001611   -0.00002513    0.00905944
     atom   36 type  1   force =    -0.00009645    0.00014535   -0.00799577
     atom   37 type  1   force =    -0.00005317    0.00001850    0.00014627
     atom   38 type  1   force =     0.00003422   -0.00001356   -0.00008364
     atom   39 type  1   force =    -0.00000786    0.00005047    0.00014927
     atom   40 type  1   force =    -0.00000486   -0.00000369   -0.00014945
     atom   41 type  1   force =     0.00002265   -0.00003079    0.00908352
     atom   42 type  1   force =    -0.00000692    0.00000896    0.00907721
     atom   43 type  1   force =    -0.00000288    0.00009680   -0.00798525
     atom   44 type  1   force =    -0.00005679    0.00007983   -0.00798805
     atom   45 type  1   force =    -0.00001097    0.00000427    0.00014729
     atom   46 type  1   force =     0.00002657   -0.00004574    0.00023393
     atom   47 type  1   force =    -0.00012743   -0.00006236   -0.00017381
     atom   48 type  1   force =    -0.00001212   -0.00005979   -0.00010228
     atom   49 type  1   force =    -0.00002402   -0.00000995    0.00908627
     atom   50 type  1   force =     0.00001489   -0.00001206   -0.00798135
     atom   51 type  1   force =     0.00000289    0.00000550    0.00904599
     atom   52 type  1   force =     0.00001827    0.00004116   -0.00795527
     atom   53 type  1   force =     0.00003528   -0.00001499    0.00013349
     atom   54 type  1   force =    -0.00002362    0.00002964   -0.00008790
     atom   55 type  1   force =    -0.00001833   -0.00005823    0.00016195
     atom   56 type  1   force =    -0.00000724    0.00003258   -0.00010164
     atom   57 type  1   force =    -0.00002494    0.00004083    0.00903914
     atom   58 type  1   force =     0.00003580   -0.00003525    0.00902991
     atom   59 type  1   force =    -0.00004685    0.00008466   -0.00798826
     atom   60 type  1   force =     0.00006016   -0.00006576   -0.00797147
     atom   61 type  1   force =    -0.00002159    0.00000157    0.00010139
     atom   62 type  1   force =    -0.00001895   -0.00002271    0.00015872
     atom   63 type  1   force =     0.00005877   -0.00001265   -0.00010119
     atom   64 type  1   force =     0.00003229    0.00005918   -0.00001339

     Total force =     0.000923     Total SCF correction =     0.000063

     bfgs converged in  13 scf cycles and  11 bfgs steps
     (criteria: energy <  7.3E-07 Ry, force <  3.9E-04 Ry/Bohr)

     End of BFGS Geometry Optimization

     Final energy   =  -21072.4017366276 Ry
Begin final coordinates

ATOMIC_POSITIONS (angstrom)
Fe       1.654912953   1.170200133   0.000000000    0   0   0
Fe       0.000000000   0.000000000   2.026984232    0   0   0
Fe       4.964738858   3.510600399   0.000000000    0   0   0
Fe       3.309825906   2.340400266   2.026984232    0   0   0
Fe       1.654661890   1.170247215   4.033433500
Fe       3.309824574   9.361847568   6.019062000
Fe       4.964632223   3.510826068   4.033115274
Fe       3.310435730   2.340420135   6.019569625
Fe       2.482363858   3.510600399   0.000000000    0   0   0
Fe       4.137287953   1.170200133   0.000000000    0   0   0
Fe       0.827450906   2.340400266   2.026984232    0   0   0
Fe       2.482375000   0.000000000   2.026984232    0   0   0
Fe       2.482342906   3.510542025   4.033818192
Fe       4.137168401   1.170195450   4.033457609
Fe       0.827549491   2.340409822   6.019929380
Fe       2.482080961  -0.000073816   6.019389093
Fe       6.619662953   1.170200133   0.000000000    0   0   0
Fe       4.964750000   0.000000000   2.026984232    0   0   0
Fe       9.929488858   3.510600399   0.000000000    0   0   0
Fe       8.274575906   2.340400266   2.026984232    0   0   0
Fe       6.620154118   1.169839146   4.033145718
Fe       4.964700074   0.000452790   6.019006254
Fe       9.929842604   3.510144067   4.033145190
Fe       8.274847075   2.340270617   6.019349558
Fe       7.447113858   3.510600399   0.000000000    0   0   0
Fe       9.102037953   1.170200133   0.000000000    0   0   0
Fe       5.792200906   2.340400266   2.026984232    0   0   0
Fe       7.447125000   0.000000000   2.026984232    0   0   0
Fe       7.447485590   3.510263662   4.032985241
Fe       9.102268292   1.170081757   4.032989790
Fe       5.792902295   2.340453729   6.017556828
Fe      10.757125757   9.361690395   6.019939819
Fe       3.309814764   5.851000664   0.000000000    0   0   0
Fe       1.654901811   4.680800531   2.026984232    0   0   0
Fe       6.619640670   8.191400930   0.000000000    0   0   0
Fe       4.964727717   7.021200797   2.026984232    0   0   0
Fe       3.309869637   5.851342705   4.033274746
Fe      11.584274593   4.681155587   6.018937782
Fe       6.619526129   8.191625026   4.033249001
Fe       4.964705426   7.021528184   6.018712483
Fe       4.137265670   8.191400930   0.000000000    0   0   0
Fe       5.792189764   5.851000664   0.000000000    0   0   0
Fe       2.482352717   7.021200797   2.026984232    0   0   0
Fe       4.137276811   4.680800531   2.026984232    0   0   0
Fe       4.137200018   8.191746831   4.033087049
Fe       5.792009033   5.851488365   4.032780895
Fe      12.412267781   7.021648200   6.019388957
Fe       4.137323280   4.681395834   6.018683529
Fe       8.274564764   5.851000664   0.000000000    0   0   0
Fe       6.619651811   4.680800531   2.026984232    0   0   0
Fe      11.584390670   8.191400930   0.000000000    0   0   0
Fe       9.929477717   7.021200797   2.026984232    0   0   0
Fe       8.274597420   5.851293310   4.033110107
Fe       6.619791422   4.680885948   6.017414674
Fe      11.584653583   8.191793564   4.033435440
Fe       9.929491780   7.020814030   6.019562082
Fe       9.102015670   8.191400930   0.000000000    0   0   0
Fe      10.756939764   5.851000664   0.000000000    0   0   0
Fe       7.447102717   7.021200797   2.026984232    0   0   0
Fe       9.102026811   4.680800531   2.026984232    0   0   0
Fe       9.102281249   8.191537826   4.033833923
Fe      10.757191081   5.851240176   4.033461809
Fe       7.446781694   7.021558006   6.018644921
Fe       9.101993727   4.680316812   6.017555955
End final coordinates



     Writing output data file Fe_paper_480c_ESM_pn5.save/

     init_run     :     73.95s CPU     75.33s WALL (       1 calls)
     electrons    : 187265.68s CPU 188884.44s WALL (      13 calls)
     update_pot   :    111.69s CPU    111.86s WALL (      12 calls)
     forces       :    504.34s CPU    508.59s WALL (      13 calls)

     Called by init_run:
     wfcinit      :     57.85s CPU     59.02s WALL (       1 calls)
     potinit      :      4.47s CPU      4.51s WALL (       1 calls)
     hinit0       :      8.89s CPU      8.95s WALL (       1 calls)

     Called by electrons:
     c_bands      : 169715.85s CPU 171091.21s WALL (     633 calls)
     sum_band     :   9962.96s CPU  10123.55s WALL (     633 calls)
     v_of_rho     :   1043.54s CPU   1047.82s WALL (     638 calls)
     newd         :    176.57s CPU    186.41s WALL (     638 calls)
     PAW_pot      :    281.00s CPU    282.27s WALL (     650 calls)
     mix_rho      :   5727.24s CPU   5788.31s WALL (     633 calls)

     Called by c_bands:
     init_us_2    :    283.76s CPU    286.80s WALL (    3876 calls)
     cegterg      : 107046.60s CPU 108001.46s WALL (    1909 calls)

     Called by sum_band:
     sum_band:bec :     25.02s CPU     25.12s WALL (    1935 calls)
     addusdens    :    209.62s CPU    223.63s WALL (     633 calls)

     Called by *egterg:
     h_psi        :  38927.94s CPU  39249.31s WALL (   11527 calls)
     s_psi        :   7978.66s CPU   7991.96s WALL (   11527 calls)
     g_psi        :     96.13s CPU     96.51s WALL (    9615 calls)
     cdiaghg      :  33489.86s CPU  33641.70s WALL (   11464 calls)

     Called by h_psi:
     h_psi:pot    :  38833.75s CPU  39038.26s WALL (   11527 calls)
     h_psi:calbec :   8132.56s CPU   8145.40s WALL (   11527 calls)
     vloc_psi     :  22690.78s CPU  22870.00s WALL (   11527 calls)
     add_vuspsi   :   8010.27s CPU   8022.77s WALL (   11527 calls)

     General routines
     calbec       :  11853.79s CPU  11873.36s WALL (   13618 calls)
     fft          :    645.69s CPU    648.88s WALL (   16147 calls)
     ffts         :   2957.63s CPU   2978.40s WALL (  351872 calls)
     fftw         :  22408.81s CPU  22588.01s WALL ( 6551880 calls)
     interpolate  :     63.96s CPU     64.26s WALL (    1276 calls)
     davcio       :      3.66s CPU    363.12s WALL (   19010 calls)

     Parallel routines
     fft_scatt_xy :   4952.46s CPU   4977.09s WALL ( 6919899 calls)
     fft_scatt_yz :   6943.80s CPU   7036.90s WALL ( 6919899 calls)

     PWSCF        :   2d 4h14m CPU   2d 4h42m WALL


   This run was terminated on:  19:49:38  17Jun2022            

=------------------------------------------------------------------------------=
   JOB DONE.
=------------------------------------------------------------------------------=
