
     Program PWSCF v.6.4.1 starts on 18Jun2022 at 16:10:29 

     This program is part of the open-source Quantum ESPRESSO suite
     for quantum simulation of materials; please cite
         "P. Giannozzi et al., J. Phys.:Condens. Matter 21 395502 (2009);
         "P. Giannozzi et al., J. Phys.:Condens. Matter 29 465901 (2017);
          URL http://www.quantum-espresso.org", 
     in publications or presentations arising from this work. More details at
     http://www.quantum-espresso.org/quote

     Parallel version (MPI), running on   160 processors

     MPI processes distributed on     8 nodes
     K-points division:     npool     =       8
     R & G space division:  proc/nbgrp/npool/nimage =      20
     Waiting for input...
     Reading input from standard input
Warning: card &CELL ignored
Warning: card / ignored

     Current dimensions of program PWSCF are:
     Max number of different atomic species (ntypx) = 10
     Max number of k-points (npk) =  40000
     Max angular momentum in pseudopotentials (lmaxx) =  3

     IMPORTANT: XC functional enforced from input :
     Exchange-correlation      = PBE ( 1  4  3  4 0 0)
     Any further DFT definition will be discarded
     Please, verify this is what you really want

               file Fe.pbe-spn-kjpaw_psl.0.2.1.UPF: wavefunction(s)  3D renormalized

     -------------------------------------------------
     Parameters for Dispersion (Grimme-D2) Correction:
     -------------------------------------------------
       atom      VdW radius       C_6     

        Fe         2.952        374.666
        N          2.640         42.670
        H          1.892          4.857

     Subspace diagonalization in iterative solution of the eigenvalue problem:
     one sub-group per band group will be used
     scalapack distributed-memory algorithm (size of sub-group:  3*  3 procs)


     Parallelization info
     --------------------
     sticks:   dense  smooth     PW     G-vecs:    dense   smooth      PW
     Min         634     317     83               145278    51361    6989
     Max         635     318     84               145287    51370    7000
     Sum       12685    6351   1677              2905599  1027285  139897



     bravais-lattice index     =            0
     lattice parameter (alat)  =      18.7640  a.u.
     unit-cell volume          =   16360.3163 (a.u.)^3
     number of atoms/cell      =           66
     number of atomic types    =            3
     number of electrons       =      1030.00
     number of Kohn-Sham states=          618
     kinetic-energy cutoff     =      60.0000  Ry
     charge density cutoff     =     480.0000  Ry
     convergence threshold     =      1.0E-08
     mixing beta               =       0.2000
     number of iterations used =           10  local-TF  mixing
     Exchange-correlation      = PBE ( 1  4  3  4 0 0)
     nstep                     =           50


     Effective Screening Medium Method
     =================================
     Boundary Conditions: Metal-Slab-Metal
     field strength                   =    -0.02 Ry/a.u.
     grid points for fit at edges     =        4 


     celldm(1)=  18.764036  celldm(2)=   0.000000  celldm(3)=   0.000000
     celldm(4)=   0.000000  celldm(5)=   0.000000  celldm(6)=   0.000000

     crystal axes: (cart. coord. in units of alat)
               a(1) = (   1.000000   0.000000   0.000000 )  
               a(2) = (   0.333330   0.942807   0.000000 )  
               a(3) = (   0.000000   0.000000   2.626577 )  

     reciprocal axes: (cart. coord. in units 2 pi/alat)
               b(1) = (  1.000000 -0.353551  0.000000 )  
               b(2) = (  0.000000  1.060663  0.000000 )  
               b(3) = (  0.000000  0.000000  0.380724 )  


     PseudoPot. # 1 for Fe read from file:
     ../../SSSP/Fe.pbe-spn-kjpaw_psl.0.2.1.UPF
     MD5 check sum: e86618425769142926afa95317d90200
     Pseudo is Projector augmented-wave + core cor, Zval = 16.0
     Generated using "atomic" code by A. Dal Corso v.5.0.99 svn rev. 10869
     Shape of augmentation charge: PSQ
     Using radial grid of 1191 points,  6 beta functions with: 
                l(1) =   0
                l(2) =   0
                l(3) =   1
                l(4) =   1
                l(5) =   2
                l(6) =   2
     Q(r) pseudized with 0 coefficients 


     PseudoPot. # 2 for N  read from file:
     ../../SSSP/N.pbe-n-radius_5.UPF
     MD5 check sum: 16739722b17309cd8fe442a2ace49922
     Pseudo is Ultrasoft + core correction, Zval =  5.0
     Generated using "atomic" code by A. Dal Corso v.5.1
     Using radial grid of 1085 points,  4 beta functions with: 
                l(1) =   0
                l(2) =   0
                l(3) =   1
                l(4) =   1
     Q(r) pseudized with 0 coefficients 


     PseudoPot. # 3 for H  read from file:
     ../../SSSP/H.pbe-rrkjus_psl.1.0.0.UPF
     MD5 check sum: f52b6d4d1c606e5624b1dc7b2218f220
     Pseudo is Ultrasoft, Zval =  1.0
     Generated using "atomic" code by A. Dal Corso v.5.1
     Using radial grid of  929 points,  2 beta functions with: 
                l(1) =   0
                l(2) =   0
     Q(r) pseudized with 0 coefficients 


     atomic species   valence    mass     pseudopotential
        Fe            16.00    55.84500     Fe( 1.00)
        N              5.00    14.00700     N ( 1.00)
        H              1.00     1.00800     H ( 1.00)

     Starting magnetic structure 
     atomic species   magnetization
        Fe           0.100
        N            0.100
        H            0.100

     No symmetry found



   Cartesian axes

     site n.     atom                  positions (alat units)
         1           Fe  tau(   1) = (   0.1666663   0.1178509   0.0000000  )
         2           Fe  tau(   2) = (   0.0000000   0.0000000   0.2041376  )
         3           Fe  tau(   3) = (   0.4999989   0.3535526   0.0000000  )
         4           Fe  tau(   4) = (   0.3333326   0.2357017   0.2041376  )
         5           Fe  tau(   5) = (   0.1691451   0.1175380   0.4054788  )
         6           Fe  tau(   6) = (   0.3359303   0.9393070   0.6059911  )
         7           Fe  tau(   7) = (   0.4994822   0.3560320   0.4071730  )
         8           Fe  tau(   8) = (   0.3417929   0.2351471   0.6065191  )
         9           Fe  tau(   9) = (   0.2499989   0.3535526   0.0000000  )
        10           Fe  tau(  10) = (   0.4166663   0.1178509   0.0000000  )
        11           Fe  tau(  11) = (   0.0833326   0.2357017   0.2041376  )
        12           Fe  tau(  12) = (   0.2500000   0.0000000   0.2041376  )
        13           Fe  tau(  13) = (   0.2500362   0.3534528   0.4077585  )
        14           Fe  tau(  14) = (   0.4190212   0.1195339   0.4060495  )
        15           Fe  tau(  15) = (   0.0919150   0.2318486   0.6070158  )
        16           Fe  tau(  16) = (   0.2526514   0.0018836   0.6060250  )
        17           Fe  tau(  17) = (   0.6666663   0.1178509   0.0000000  )
        18           Fe  tau(  18) = (   0.5000000   0.0000000   0.2041376  )
        19           Fe  tau(  19) = (   0.9999989   0.3535526   0.0000000  )
        20           Fe  tau(  20) = (   0.8333326   0.2357017   0.2041376  )
        21           Fe  tau(  21) = (   0.6688123   0.1165173   0.4071450  )
        22           Fe  tau(  22) = (   0.5022786   0.0081480   0.6065308  )
        23           Fe  tau(  23) = (   1.0003764   0.3509314   0.4068495  )
        24           Fe  tau(  24) = (   0.8517959   0.2096271   0.6022363  )
        25           Fe  tau(  25) = (   0.7499989   0.3535526   0.0000000  )
        26           Fe  tau(  26) = (   0.9166663   0.1178509   0.0000000  )
        27           Fe  tau(  27) = (   0.5833326   0.2357017   0.2041376  )
        28           Fe  tau(  28) = (   0.7500000   0.0000000   0.2041376  )
        29           Fe  tau(  29) = (   0.7499320   0.3534625   0.4087377  )
        30           Fe  tau(  30) = (   0.9196115   0.1133960   0.4029107  )
        31           Fe  tau(  31) = (   0.5923702   0.2420328   0.6046126  )
        32           Fe  tau(  32) = (   1.0848628   0.9334482   0.6074542  )
        33           Fe  tau(  33) = (   0.3333315   0.5892543   0.0000000  )
        34           Fe  tau(  34) = (   0.1666652   0.4714034   0.2041376  )
        35           Fe  tau(  35) = (   0.6666640   0.8249560   0.0000000  )
        36           Fe  tau(  36) = (   0.4999978   0.7071052   0.2041376  )
        37           Fe  tau(  37) = (   0.3307812   0.5894883   0.4059097  )
        38           Fe  tau(  38) = (   1.1584193   0.4708423   0.6062454  )
        39           Fe  tau(  39) = (   0.6672050   0.8273888   0.4054979  )
        40           Fe  tau(  40) = (   0.4975659   0.7107165   0.6060575  )
        41           Fe  tau(  41) = (   0.4166640   0.8249560   0.0000000  )
        42           Fe  tau(  42) = (   0.5833315   0.5892543   0.0000000  )
        43           Fe  tau(  43) = (   0.2499978   0.7071052   0.2041376  )
        44           Fe  tau(  44) = (   0.4166652   0.4714034   0.2041376  )
        45           Fe  tau(  45) = (   0.4165267   0.8248542   0.4038341  )
        46           Fe  tau(  46) = (   0.5800985   0.5935277   0.4029319  )
        47           Fe  tau(  47) = (   1.2459555   0.7042436   0.6067424  )
        48           Fe  tau(  48) = (   0.4083885   0.4759910   0.6074840  )
        49           Fe  tau(  49) = (   0.8333315   0.5892543   0.0000000  )
        50           Fe  tau(  50) = (   0.6666652   0.4714034   0.2041376  )
        51           Fe  tau(  51) = (   1.1666640   0.8249560   0.0000000  )
        52           Fe  tau(  52) = (   0.9999978   0.7071052   0.2041376  )
        53           Fe  tau(  53) = (   0.8309632   0.5904573   0.4068724  )
        54           Fe  tau(  54) = (   0.6482797   0.4974281   0.6022087  )
        55           Fe  tau(  55) = (   1.1660452   0.8224699   0.4058940  )
        56           Fe  tau(  56) = (   0.9966971   0.6995147   0.6061981  )
        57           Fe  tau(  57) = (   0.9166640   0.8249560   0.0000000  )
        58           Fe  tau(  58) = (   1.0833315   0.5892543   0.0000000  )
        59           Fe  tau(  59) = (   0.7499978   0.7071052   0.2041376  )
        60           Fe  tau(  60) = (   0.9166652   0.4714034   0.2041376  )
        61           Fe  tau(  61) = (   0.9165828   0.8250197   0.4077553  )
        62           Fe  tau(  62) = (   1.0807578   0.5874465   0.4059856  )
        63           Fe  tau(  63) = (   0.7491796   0.7164425   0.6070503  )
        64           Fe  tau(  64) = (   0.9077670   0.4650564   0.6044662  )
        65           N   tau(  65) = (   0.7501106   0.3535837   0.6378440  )
        66           H   tau(  66) = (   0.4629843   0.8577427   0.7020476  )

     number of k points=    10  Methfessel-Paxton smearing, width (Ry)=  0.0100
                       cart. coord. in units 2pi/alat
        k(    1) = (   0.0000000   0.0000000   0.0000000), wk =   0.0625000
        k(    2) = (   0.0000000   0.2651656   0.0000000), wk =   0.1250000
        k(    3) = (   0.0000000  -0.5303313   0.0000000), wk =   0.0625000
        k(    4) = (   0.2500000  -0.0883878   0.0000000), wk =   0.1250000
        k(    5) = (   0.2500000   0.1767779   0.0000000), wk =   0.1250000
        k(    6) = (   0.2500000  -0.6187190   0.0000000), wk =   0.1250000
        k(    7) = (   0.2500000  -0.3535534   0.0000000), wk =   0.1250000
        k(    8) = (  -0.5000000   0.1767755   0.0000000), wk =   0.0625000
        k(    9) = (  -0.5000000   0.4419412   0.0000000), wk =   0.1250000
        k(   10) = (  -0.5000000  -0.3535558   0.0000000), wk =   0.0625000

     Dense  grid:  2905599 G-vectors     FFT dimensions: ( 135, 135, 360)

     Smooth grid:  1027285 G-vectors     FFT dimensions: (  96,  96, 243)

     Estimated max dynamical RAM per process >       1.01 GB

     Estimated total dynamical RAM >     161.82 GB
     Generating pointlists ...
     new r_m :   0.0737 (alat units)  1.3826 (a.u.) for type    1
     new r_m :   0.0742 (alat units)  1.3917 (a.u.) for type    2
     new r_m :   0.0737 (alat units)  1.3826 (a.u.) for type    3

     Check: negative core charge=   -0.000039

     Initial potential from superposition of free atoms

     starting charge 1029.97193, renormalised to 1030.00000

     negative rho (up, down):  2.477E-02 2.555E-03
     Starting wfcs are  837 randomized atomic wfcs
     Checking if some PAW data can be deallocated... 

     total cpu time spent up to now is       87.0 secs

     Self-consistent Calculation

     iteration #  1     ecut=    60.00 Ry     beta= 0.20
     Davidson diagonalization with overlap
     ethr =  1.00E-04,  avg # of iterations = 18.3

     negative rho (up, down):  1.520E-02 3.057E-03

     total cpu time spent up to now is     1121.3 secs

     total energy              =  -21078.62128118 Ry
     Harris-Foulkes estimate   =  -21100.39106814 Ry
     estimated scf accuracy    <    1131.84424587 Ry

     total magnetization       =    69.31 Bohr mag/cell
     absolute magnetization    =    71.22 Bohr mag/cell

     iteration #  2     ecut=    60.00 Ry     beta= 0.20
     Davidson diagonalization with overlap
     ethr =  1.00E-02,  avg # of iterations =  1.0

     negative rho (up, down):  1.287E-02 2.881E-02

     total cpu time spent up to now is     1255.4 secs

     total energy              =  -21090.93198795 Ry
     Harris-Foulkes estimate   =  -21097.60782756 Ry
     estimated scf accuracy    <     354.33166916 Ry

     total magnetization       =    82.31 Bohr mag/cell
     absolute magnetization    =    84.23 Bohr mag/cell

     iteration #  3     ecut=    60.00 Ry     beta= 0.20
     Davidson diagonalization with overlap
     ethr =  1.00E-02,  avg # of iterations =  1.0

     negative rho (up, down):  1.032E-02 5.846E-02

     total cpu time spent up to now is     1391.6 secs

     total energy              =  -21093.64366621 Ry
     Harris-Foulkes estimate   =  -21093.89267192 Ry
     estimated scf accuracy    <      14.05051207 Ry

     total magnetization       =   119.68 Bohr mag/cell
     absolute magnetization    =   120.31 Bohr mag/cell

     iteration #  4     ecut=    60.00 Ry     beta= 0.20
     Davidson diagonalization with overlap
     ethr =  1.36E-03,  avg # of iterations =  1.0

     negative rho (up, down):  7.505E-03 6.386E-02

     total cpu time spent up to now is     1525.3 secs

     total energy              =  -21093.73125535 Ry
     Harris-Foulkes estimate   =  -21093.77835240 Ry
     estimated scf accuracy    <      16.59351446 Ry

     total magnetization       =   126.81 Bohr mag/cell
     absolute magnetization    =   127.37 Bohr mag/cell

     iteration #  5     ecut=    60.00 Ry     beta= 0.20
     Davidson diagonalization with overlap
     ethr =  1.36E-03,  avg # of iterations =  1.0

     negative rho (up, down):  2.256E-02 2.183E-01

     total cpu time spent up to now is     1658.1 secs

     total energy              =  -21092.20846949 Ry
     Harris-Foulkes estimate   =  -21093.77275981 Ry
     estimated scf accuracy    <      19.50110992 Ry

     total magnetization       =   131.14 Bohr mag/cell
     absolute magnetization    =   131.72 Bohr mag/cell

     iteration #  6     ecut=    60.00 Ry     beta= 0.20
     Davidson diagonalization with overlap
     ethr =  1.36E-03,  avg # of iterations =  2.2

     negative rho (up, down):  1.690E-02 1.947E-01

     total cpu time spent up to now is     1810.4 secs

     total energy              =  -21092.83861864 Ry
     Harris-Foulkes estimate   =  -21093.08797952 Ry
     estimated scf accuracy    <       7.19332318 Ry

     total magnetization       =   153.51 Bohr mag/cell
     absolute magnetization    =   154.80 Bohr mag/cell

     iteration #  7     ecut=    60.00 Ry     beta= 0.20
     Davidson diagonalization with overlap
     ethr =  6.98E-04,  avg # of iterations =  3.4

     negative rho (up, down):  7.171E-03 1.126E-01

     total cpu time spent up to now is     1981.5 secs

     total energy              =  -21092.90227879 Ry
     Harris-Foulkes estimate   =  -21093.02631286 Ry
     estimated scf accuracy    <       2.68439292 Ry

     total magnetization       =   154.38 Bohr mag/cell
     absolute magnetization    =   156.08 Bohr mag/cell

     iteration #  8     ecut=    60.00 Ry     beta= 0.20
     Davidson diagonalization with overlap
     ethr =  2.61E-04,  avg # of iterations = 12.8

     negative rho (up, down):  1.009E-03 4.720E-02

     total cpu time spent up to now is     2709.4 secs

     total energy              =  -21093.53552496 Ry
     Harris-Foulkes estimate   =  -21094.20831768 Ry
     estimated scf accuracy    <       5.13140380 Ry

     total magnetization       =   154.66 Bohr mag/cell
     absolute magnetization    =   160.71 Bohr mag/cell

     iteration #  9     ecut=    60.00 Ry     beta= 0.20
     Davidson diagonalization with overlap
     ethr =  2.61E-04,  avg # of iterations =  2.9

     negative rho (up, down):  7.547E-04 3.076E-02

     total cpu time spent up to now is     2867.3 secs

     total energy              =  -21093.77652978 Ry
     Harris-Foulkes estimate   =  -21093.79029768 Ry
     estimated scf accuracy    <       0.72120005 Ry

     total magnetization       =   148.04 Bohr mag/cell
     absolute magnetization    =   153.60 Bohr mag/cell

     iteration # 10     ecut=    60.00 Ry     beta= 0.20
     Davidson diagonalization with overlap
     ethr =  7.00E-05,  avg # of iterations =  6.3

     negative rho (up, down):  3.235E-04 1.615E-02

     total cpu time spent up to now is     3061.6 secs

     total energy              =  -21093.82922046 Ry
     Harris-Foulkes estimate   =  -21093.83360170 Ry
     estimated scf accuracy    <       0.68238376 Ry

     total magnetization       =   147.85 Bohr mag/cell
     absolute magnetization    =   153.16 Bohr mag/cell

     iteration # 11     ecut=    60.00 Ry     beta= 0.20
     Davidson diagonalization with overlap
     ethr =  6.63E-05,  avg # of iterations =  4.5

     negative rho (up, down):  5.683E-04 3.872E-02

     total cpu time spent up to now is     3224.7 secs

     total energy              =  -21093.85001224 Ry
     Harris-Foulkes estimate   =  -21093.86482903 Ry
     estimated scf accuracy    <       0.33710914 Ry

     total magnetization       =   151.87 Bohr mag/cell
     absolute magnetization    =   157.01 Bohr mag/cell

     iteration # 12     ecut=    60.00 Ry     beta= 0.20
     Davidson diagonalization with overlap
     ethr =  3.27E-05,  avg # of iterations =  9.1

     negative rho (up, down):  4.531E-04 2.905E-02

     total cpu time spent up to now is     3560.0 secs

     total energy              =  -21093.92668392 Ry
     Harris-Foulkes estimate   =  -21093.93633220 Ry
     estimated scf accuracy    <       0.34614347 Ry

     total magnetization       =   156.13 Bohr mag/cell
     absolute magnetization    =   161.80 Bohr mag/cell

     iteration # 13     ecut=    60.00 Ry     beta= 0.20
     Davidson diagonalization with overlap
     ethr =  3.27E-05,  avg # of iterations =  2.3

     negative rho (up, down):  6.416E-04 3.823E-02

     total cpu time spent up to now is     3716.8 secs

     total energy              =  -21093.94629958 Ry
     Harris-Foulkes estimate   =  -21093.94285136 Ry
     estimated scf accuracy    <       0.36751450 Ry

     total magnetization       =   159.02 Bohr mag/cell
     absolute magnetization    =   164.72 Bohr mag/cell

     iteration # 14     ecut=    60.00 Ry     beta= 0.20
     Davidson diagonalization with overlap
     ethr =  3.27E-05,  avg # of iterations =  5.4

     negative rho (up, down):  1.038E-03 3.969E-02

     total cpu time spent up to now is     3907.5 secs

     total energy              =  -21093.95271181 Ry
     Harris-Foulkes estimate   =  -21093.97183240 Ry
     estimated scf accuracy    <       1.07332167 Ry

     total magnetization       =   160.47 Bohr mag/cell
     absolute magnetization    =   166.31 Bohr mag/cell

     iteration # 15     ecut=    60.00 Ry     beta= 0.20
     Davidson diagonalization with overlap
     ethr =  3.27E-05,  avg # of iterations =  2.2

     negative rho (up, down):  1.567E-03 4.345E-02

     total cpu time spent up to now is     4061.8 secs

     total energy              =  -21093.92507311 Ry
     Harris-Foulkes estimate   =  -21093.96102031 Ry
     estimated scf accuracy    <       0.70500650 Ry

     total magnetization       =   161.35 Bohr mag/cell
     absolute magnetization    =   167.25 Bohr mag/cell

     iteration # 16     ecut=    60.00 Ry     beta= 0.20
     Davidson diagonalization with overlap
     ethr =  3.27E-05,  avg # of iterations =  4.0

     negative rho (up, down):  1.395E-03 3.962E-02

     total cpu time spent up to now is     4221.5 secs

     total energy              =  -21093.93233073 Ry
     Harris-Foulkes estimate   =  -21093.93627549 Ry
     estimated scf accuracy    <       0.29518028 Ry

     total magnetization       =   161.76 Bohr mag/cell
     absolute magnetization    =   167.72 Bohr mag/cell

     iteration # 17     ecut=    60.00 Ry     beta= 0.20
     Davidson diagonalization with overlap
     ethr =  2.87E-05,  avg # of iterations =  1.0

     negative rho (up, down):  1.289E-03 3.111E-02

     total cpu time spent up to now is     4353.3 secs

     total energy              =  -21093.91373319 Ry
     Harris-Foulkes estimate   =  -21093.93561410 Ry
     estimated scf accuracy    <       0.29602395 Ry

     total magnetization       =   161.80 Bohr mag/cell
     absolute magnetization    =   167.82 Bohr mag/cell

     iteration # 18     ecut=    60.00 Ry     beta= 0.20
     Davidson diagonalization with overlap
     ethr =  2.87E-05,  avg # of iterations =  2.1

     negative rho (up, down):  2.950E-03 1.977E-02

     total cpu time spent up to now is     4504.5 secs

     total energy              =  -21093.90790962 Ry
     Harris-Foulkes estimate   =  -21093.92163834 Ry
     estimated scf accuracy    <       0.16985161 Ry

     total magnetization       =   161.88 Bohr mag/cell
     absolute magnetization    =   167.98 Bohr mag/cell

     iteration # 19     ecut=    60.00 Ry     beta= 0.20
     Davidson diagonalization with overlap
     ethr =  1.65E-05,  avg # of iterations =  9.1

     negative rho (up, down):  3.740E-02 3.038E-02

     total cpu time spent up to now is     5176.5 secs

     total energy              =  -21093.91160827 Ry
     Harris-Foulkes estimate   =  -21093.92210582 Ry
     estimated scf accuracy    <       0.02973774 Ry

     total magnetization       =   161.09 Bohr mag/cell
     absolute magnetization    =   167.60 Bohr mag/cell

     iteration # 20     ecut=    60.00 Ry     beta= 0.20
     Davidson diagonalization with overlap
     c_bands:  4 eigenvalues not converged
     ethr =  2.89E-06,  avg # of iterations = 44.3

     negative rho (up, down):  3.046E-03 2.912E-02

     total cpu time spent up to now is     7186.1 secs

     total energy              =  -21094.00115853 Ry
     Harris-Foulkes estimate   =  -21094.03586674 Ry
     estimated scf accuracy    <       1.39412912 Ry

     total magnetization       =   158.28 Bohr mag/cell
     absolute magnetization    =   169.54 Bohr mag/cell

     iteration # 21     ecut=    60.00 Ry     beta= 0.20
     Davidson diagonalization with overlap
     c_bands:  1 eigenvalues not converged
     ethr =  2.89E-06,  avg # of iterations = 15.8

     negative rho (up, down):  8.246E-03 6.426E-02

     total cpu time spent up to now is     7722.7 secs

     total energy              =  -21094.04327662 Ry
     Harris-Foulkes estimate   =  -21094.00555100 Ry
     estimated scf accuracy    <       1.19930061 Ry

     total magnetization       =   158.96 Bohr mag/cell
     absolute magnetization    =   169.20 Bohr mag/cell

     iteration # 22     ecut=    60.00 Ry     beta= 0.20
     Davidson diagonalization with overlap
     c_bands:  1 eigenvalues not converged
     ethr =  2.89E-06,  avg # of iterations = 12.4

     negative rho (up, down):  7.965E-03 4.785E-02

     total cpu time spent up to now is     8193.8 secs

     total energy              =  -21094.03502492 Ry
     Harris-Foulkes estimate   =  -21094.04954895 Ry
     estimated scf accuracy    <       1.68161814 Ry

     total magnetization       =   158.35 Bohr mag/cell
     absolute magnetization    =   169.58 Bohr mag/cell

     iteration # 23     ecut=    60.00 Ry     beta= 0.20
     Davidson diagonalization with overlap
     ethr =  2.89E-06,  avg # of iterations =  8.2

     negative rho (up, down):  1.051E-02 2.235E-02

     total cpu time spent up to now is     8482.6 secs

     total energy              =  -21093.97473952 Ry
     Harris-Foulkes estimate   =  -21094.03682726 Ry
     estimated scf accuracy    <       1.74561068 Ry

     total magnetization       =   158.73 Bohr mag/cell
     absolute magnetization    =   169.15 Bohr mag/cell

     iteration # 24     ecut=    60.00 Ry     beta= 0.20
     Davidson diagonalization with overlap
     c_bands:  1 eigenvalues not converged
     ethr =  2.89E-06,  avg # of iterations = 20.6

     negative rho (up, down):  9.749E-03 1.973E-02

     total cpu time spent up to now is     9220.8 secs

     total energy              =  -21094.01205434 Ry
     Harris-Foulkes estimate   =  -21094.00947586 Ry
     estimated scf accuracy    <       1.67699505 Ry

     total magnetization       =   160.46 Bohr mag/cell
     absolute magnetization    =   167.40 Bohr mag/cell

     iteration # 25     ecut=    60.00 Ry     beta= 0.20
     Davidson diagonalization with overlap
     ethr =  2.89E-06,  avg # of iterations =  6.5

     negative rho (up, down):  1.555E-02 6.065E-02

     total cpu time spent up to now is     9497.9 secs

     total energy              =  -21093.99322438 Ry
     Harris-Foulkes estimate   =  -21094.01361089 Ry
     estimated scf accuracy    <       1.77179918 Ry

     total magnetization       =   160.18 Bohr mag/cell
     absolute magnetization    =   167.57 Bohr mag/cell

     iteration # 26     ecut=    60.00 Ry     beta= 0.20
     Davidson diagonalization with overlap
     ethr =  2.89E-06,  avg # of iterations = 13.2

     negative rho (up, down):  1.378E-02 2.303E-02

     total cpu time spent up to now is     9809.0 secs

     total energy              =  -21094.00237718 Ry
     Harris-Foulkes estimate   =  -21094.01173321 Ry
     estimated scf accuracy    <       1.13784472 Ry

     total magnetization       =   161.63 Bohr mag/cell
     absolute magnetization    =   168.15 Bohr mag/cell

     iteration # 27     ecut=    60.00 Ry     beta= 0.20
     Davidson diagonalization with overlap
     ethr =  2.89E-06,  avg # of iterations = 12.1

     negative rho (up, down):  1.238E-02 3.876E-02

     total cpu time spent up to now is    10099.6 secs

     total energy              =  -21093.99388249 Ry
     Harris-Foulkes estimate   =  -21094.01639396 Ry
     estimated scf accuracy    <       1.76344272 Ry

     total magnetization       =   160.68 Bohr mag/cell
     absolute magnetization    =   167.94 Bohr mag/cell

     iteration # 28     ecut=    60.00 Ry     beta= 0.20
     Davidson diagonalization with overlap
     ethr =  2.89E-06,  avg # of iterations = 11.8

     negative rho (up, down):  3.568E-03 1.077E-01

     total cpu time spent up to now is    10385.3 secs

     total energy              =  -21094.01193725 Ry
     Harris-Foulkes estimate   =  -21094.00647747 Ry
     estimated scf accuracy    <       1.36827934 Ry

     total magnetization       =   161.18 Bohr mag/cell
     absolute magnetization    =   167.71 Bohr mag/cell

     iteration # 29     ecut=    60.00 Ry     beta= 0.20
     Davidson diagonalization with overlap
     c_bands:  1 eigenvalues not converged
     ethr =  2.89E-06,  avg # of iterations = 13.4

     negative rho (up, down):  4.717E-03 1.186E-01

     total cpu time spent up to now is    10678.6 secs

     total energy              =  -21094.02133028 Ry
     Harris-Foulkes estimate   =  -21094.01509525 Ry
     estimated scf accuracy    <       0.88245926 Ry

     total magnetization       =   161.62 Bohr mag/cell
     absolute magnetization    =   168.16 Bohr mag/cell

     iteration # 30     ecut=    60.00 Ry     beta= 0.20
     Davidson diagonalization with overlap
     c_bands:  1 eigenvalues not converged
     ethr =  2.89E-06,  avg # of iterations =  5.5

     negative rho (up, down):  1.554E-03 9.815E-02

     total cpu time spent up to now is    10924.3 secs

     total energy              =  -21093.97428650 Ry
     Harris-Foulkes estimate   =  -21094.02163969 Ry
     estimated scf accuracy    <       0.88596955 Ry

     total magnetization       =   161.76 Bohr mag/cell
     absolute magnetization    =   168.31 Bohr mag/cell

     iteration # 31     ecut=    60.00 Ry     beta= 0.20
     Davidson diagonalization with overlap
     c_bands:  2 eigenvalues not converged
     ethr =  2.89E-06,  avg # of iterations = 14.8

     negative rho (up, down):  2.020E-03 8.432E-02

     total cpu time spent up to now is    11252.2 secs

     total energy              =  -21093.99346187 Ry
     Harris-Foulkes estimate   =  -21093.98316290 Ry
     estimated scf accuracy    <       1.23150241 Ry

     total magnetization       =   161.25 Bohr mag/cell
     absolute magnetization    =   168.20 Bohr mag/cell

     iteration # 32     ecut=    60.00 Ry     beta= 0.20
     Davidson diagonalization with overlap
     ethr =  2.89E-06,  avg # of iterations = 12.9

     negative rho (up, down):  9.958E-03 1.275E-01

     total cpu time spent up to now is    11546.7 secs

     total energy              =  -21094.01621258 Ry
     Harris-Foulkes estimate   =  -21093.99522834 Ry
     estimated scf accuracy    <       1.35191484 Ry

     total magnetization       =   160.89 Bohr mag/cell
     absolute magnetization    =   167.91 Bohr mag/cell

     iteration # 33     ecut=    60.00 Ry     beta= 0.20
     Davidson diagonalization with overlap
     c_bands:  4 eigenvalues not converged
     ethr =  2.89E-06,  avg # of iterations = 12.2

     negative rho (up, down):  3.306E-03 1.006E-01

     total cpu time spent up to now is    11843.9 secs

     total energy              =  -21094.00237431 Ry
     Harris-Foulkes estimate   =  -21094.02006210 Ry
     estimated scf accuracy    <       1.61105267 Ry

     total magnetization       =   160.68 Bohr mag/cell
     absolute magnetization    =   167.55 Bohr mag/cell

     iteration # 34     ecut=    60.00 Ry     beta= 0.20
     Davidson diagonalization with overlap
     c_bands:  2 eigenvalues not converged
     ethr =  2.89E-06,  avg # of iterations = 14.2

     negative rho (up, down):  2.311E-03 1.601E-01

     total cpu time spent up to now is    12152.4 secs

     total energy              =  -21093.95953199 Ry
     Harris-Foulkes estimate   =  -21094.00940529 Ry
     estimated scf accuracy    <       1.61169150 Ry

     total magnetization       =   160.55 Bohr mag/cell
     absolute magnetization    =   167.92 Bohr mag/cell

     iteration # 35     ecut=    60.00 Ry     beta= 0.20
     Davidson diagonalization with overlap
     c_bands:  2 eigenvalues not converged
     ethr =  2.89E-06,  avg # of iterations = 17.1

     negative rho (up, down):  3.701E-03 2.088E-01

     total cpu time spent up to now is    12638.5 secs

     total energy              =  -21093.95164638 Ry
     Harris-Foulkes estimate   =  -21093.98996075 Ry
     estimated scf accuracy    <       0.78196422 Ry

     total magnetization       =   161.33 Bohr mag/cell
     absolute magnetization    =   167.90 Bohr mag/cell

     iteration # 36     ecut=    60.00 Ry     beta= 0.20
     Davidson diagonalization with overlap
     c_bands:  4 eigenvalues not converged
     ethr =  2.89E-06,  avg # of iterations = 13.4

     negative rho (up, down):  5.549E-03 2.207E-01

     total cpu time spent up to now is    12942.6 secs

     total energy              =  -21093.94823242 Ry
     Harris-Foulkes estimate   =  -21093.96032721 Ry
     estimated scf accuracy    <       0.26066102 Ry

     total magnetization       =   161.08 Bohr mag/cell
     absolute magnetization    =   167.69 Bohr mag/cell

     iteration # 37     ecut=    60.00 Ry     beta= 0.20
     Davidson diagonalization with overlap
     c_bands:  2 eigenvalues not converged
     ethr =  2.89E-06,  avg # of iterations = 13.7

     negative rho (up, down):  1.812E-02 2.286E-01

     total cpu time spent up to now is    13238.5 secs

     total energy              =  -21093.93781144 Ry
     Harris-Foulkes estimate   =  -21093.95003671 Ry
     estimated scf accuracy    <       0.08660654 Ry

     total magnetization       =   160.98 Bohr mag/cell
     absolute magnetization    =   167.63 Bohr mag/cell

     iteration # 38     ecut=    60.00 Ry     beta= 0.20
     Davidson diagonalization with overlap
     c_bands:  2 eigenvalues not converged
     ethr =  2.89E-06,  avg # of iterations = 12.8

     negative rho (up, down):  2.437E-02 2.449E-01

     total cpu time spent up to now is    13538.8 secs

     total energy              =  -21093.91737077 Ry
     Harris-Foulkes estimate   =  -21093.93862210 Ry
     estimated scf accuracy    <       0.14454626 Ry

     total magnetization       =   161.13 Bohr mag/cell
     absolute magnetization    =   167.80 Bohr mag/cell

     iteration # 39     ecut=    60.00 Ry     beta= 0.20
     Davidson diagonalization with overlap
     c_bands:  2 eigenvalues not converged
     ethr =  2.89E-06,  avg # of iterations = 12.2

     negative rho (up, down):  2.087E-02 2.478E-01

     total cpu time spent up to now is    13829.7 secs

     total energy              =  -21093.91756612 Ry
     Harris-Foulkes estimate   =  -21093.91966910 Ry
     estimated scf accuracy    <       0.02505456 Ry

     total magnetization       =   161.13 Bohr mag/cell
     absolute magnetization    =   167.86 Bohr mag/cell

     iteration # 40     ecut=    60.00 Ry     beta= 0.20
     Davidson diagonalization with overlap
     c_bands:  1 eigenvalues not converged
     ethr =  2.43E-06,  avg # of iterations =  9.4

     negative rho (up, down):  1.841E-02 2.470E-01

     total cpu time spent up to now is    14115.2 secs

     total energy              =  -21093.91749282 Ry
     Harris-Foulkes estimate   =  -21093.91769760 Ry
     estimated scf accuracy    <       0.02128633 Ry

     total magnetization       =   161.07 Bohr mag/cell
     absolute magnetization    =   167.80 Bohr mag/cell

     iteration # 41     ecut=    60.00 Ry     beta= 0.20
     Davidson diagonalization with overlap
     c_bands:  1 eigenvalues not converged
     ethr =  2.07E-06,  avg # of iterations =  8.6

     negative rho (up, down):  1.661E-02 2.451E-01

     total cpu time spent up to now is    14394.5 secs

     total energy              =  -21093.91875586 Ry
     Harris-Foulkes estimate   =  -21093.91758347 Ry
     estimated scf accuracy    <       0.02080977 Ry

     total magnetization       =   161.04 Bohr mag/cell
     absolute magnetization    =   167.78 Bohr mag/cell

     iteration # 42     ecut=    60.00 Ry     beta= 0.20
     Davidson diagonalization with overlap
     c_bands:  1 eigenvalues not converged
     ethr =  2.02E-06,  avg # of iterations =  8.6

     negative rho (up, down):  1.517E-02 2.427E-01

     total cpu time spent up to now is    14676.6 secs

     total energy              =  -21093.91978744 Ry
     Harris-Foulkes estimate   =  -21093.91884955 Ry
     estimated scf accuracy    <       0.02502314 Ry

     total magnetization       =   161.06 Bohr mag/cell
     absolute magnetization    =   167.80 Bohr mag/cell

     iteration # 43     ecut=    60.00 Ry     beta= 0.20
     Davidson diagonalization with overlap
     c_bands:  1 eigenvalues not converged
     ethr =  2.02E-06,  avg # of iterations =  9.3

     negative rho (up, down):  1.592E-02 2.422E-01

     total cpu time spent up to now is    14960.9 secs

     total energy              =  -21093.92099313 Ry
     Harris-Foulkes estimate   =  -21093.91993236 Ry
     estimated scf accuracy    <       0.03130956 Ry

     total magnetization       =   161.13 Bohr mag/cell
     absolute magnetization    =   167.88 Bohr mag/cell

     iteration # 44     ecut=    60.00 Ry     beta= 0.20
     Davidson diagonalization with overlap
     c_bands:  1 eigenvalues not converged
     ethr =  2.02E-06,  avg # of iterations =  7.7

     negative rho (up, down):  1.126E-02 2.385E-01

     total cpu time spent up to now is    15245.1 secs

     total energy              =  -21093.92084830 Ry
     Harris-Foulkes estimate   =  -21093.92107568 Ry
     estimated scf accuracy    <       0.04209570 Ry

     total magnetization       =   161.08 Bohr mag/cell
     absolute magnetization    =   167.83 Bohr mag/cell

     iteration # 45     ecut=    60.00 Ry     beta= 0.20
     Davidson diagonalization with overlap
     c_bands:  1 eigenvalues not converged
     ethr =  2.02E-06,  avg # of iterations = 10.4

     negative rho (up, down):  1.194E-02 2.367E-01

     total cpu time spent up to now is    15530.7 secs

     total energy              =  -21093.91991211 Ry
     Harris-Foulkes estimate   =  -21093.92132995 Ry
     estimated scf accuracy    <       0.02017104 Ry

     total magnetization       =   161.21 Bohr mag/cell
     absolute magnetization    =   167.96 Bohr mag/cell

     iteration # 46     ecut=    60.00 Ry     beta= 0.20
     Davidson diagonalization with overlap
     c_bands:  1 eigenvalues not converged
     ethr =  1.96E-06,  avg # of iterations =  8.8

     negative rho (up, down):  1.072E-02 2.338E-01

     total cpu time spent up to now is    15810.9 secs

     total energy              =  -21093.92372467 Ry
     Harris-Foulkes estimate   =  -21093.92038509 Ry
     estimated scf accuracy    <       0.04739317 Ry

     total magnetization       =   161.30 Bohr mag/cell
     absolute magnetization    =   168.05 Bohr mag/cell

     iteration # 47     ecut=    60.00 Ry     beta= 0.20
     Davidson diagonalization with overlap
     ethr =  1.96E-06,  avg # of iterations =  3.3

     negative rho (up, down):  9.161E-03 2.302E-01

     total cpu time spent up to now is    16042.3 secs

     total energy              =  -21093.92511079 Ry
     Harris-Foulkes estimate   =  -21093.92383023 Ry
     estimated scf accuracy    <       0.06416513 Ry

     total magnetization       =   161.36 Bohr mag/cell
     absolute magnetization    =   168.11 Bohr mag/cell

     iteration # 48     ecut=    60.00 Ry     beta= 0.20
     Davidson diagonalization with overlap
     ethr =  1.96E-06,  avg # of iterations =  4.4

     negative rho (up, down):  7.982E-03 2.272E-01

     total cpu time spent up to now is    16284.5 secs

     total energy              =  -21093.92395308 Ry
     Harris-Foulkes estimate   =  -21093.92522630 Ry
     estimated scf accuracy    <       0.06622716 Ry

     total magnetization       =   161.42 Bohr mag/cell
     absolute magnetization    =   168.17 Bohr mag/cell

     iteration # 49     ecut=    60.00 Ry     beta= 0.20
     Davidson diagonalization with overlap
     ethr =  1.96E-06,  avg # of iterations =  3.9

     negative rho (up, down):  7.042E-03 2.236E-01

     total cpu time spent up to now is    16507.1 secs

     total energy              =  -21093.92198766 Ry
     Harris-Foulkes estimate   =  -21093.92408853 Ry
     estimated scf accuracy    <       0.05163244 Ry

     total magnetization       =   161.40 Bohr mag/cell
     absolute magnetization    =   168.15 Bohr mag/cell

     iteration # 50     ecut=    60.00 Ry     beta= 0.20
     Davidson diagonalization with overlap
     ethr =  1.96E-06,  avg # of iterations =  5.0

     negative rho (up, down):  8.440E-03 2.274E-01

     total cpu time spent up to now is    16779.1 secs

     total energy              =  -21093.91939139 Ry
     Harris-Foulkes estimate   =  -21093.92223598 Ry
     estimated scf accuracy    <       0.03294371 Ry

     total magnetization       =   161.37 Bohr mag/cell
     absolute magnetization    =   168.13 Bohr mag/cell

     iteration # 51     ecut=    60.00 Ry     beta= 0.20
     Davidson diagonalization with overlap
     ethr =  1.96E-06,  avg # of iterations =  2.9

     negative rho (up, down):  8.048E-03 2.251E-01

     total cpu time spent up to now is    16997.5 secs

     total energy              =  -21093.91923464 Ry
     Harris-Foulkes estimate   =  -21093.91947310 Ry
     estimated scf accuracy    <       0.03702069 Ry

     total magnetization       =   161.39 Bohr mag/cell
     absolute magnetization    =   168.15 Bohr mag/cell

     iteration # 52     ecut=    60.00 Ry     beta= 0.20
     Davidson diagonalization with overlap
     ethr =  1.96E-06,  avg # of iterations =  1.9

     negative rho (up, down):  1.023E-02 2.299E-01

     total cpu time spent up to now is    17169.2 secs

     total energy              =  -21093.91657509 Ry
     Harris-Foulkes estimate   =  -21093.91935712 Ry
     estimated scf accuracy    <       0.02674347 Ry

     total magnetization       =   161.30 Bohr mag/cell
     absolute magnetization    =   168.07 Bohr mag/cell

     iteration # 53     ecut=    60.00 Ry     beta= 0.20
     Davidson diagonalization with overlap
     c_bands:  1 eigenvalues not converged
     ethr =  1.96E-06,  avg # of iterations =  5.3

     negative rho (up, down):  9.711E-03 2.293E-01

     total cpu time spent up to now is    17446.5 secs

     total energy              =  -21093.91740028 Ry
     Harris-Foulkes estimate   =  -21093.91707517 Ry
     estimated scf accuracy    <       0.01443209 Ry

     total magnetization       =   161.21 Bohr mag/cell
     absolute magnetization    =   167.99 Bohr mag/cell

     iteration # 54     ecut=    60.00 Ry     beta= 0.20
     Davidson diagonalization with overlap
     c_bands:  1 eigenvalues not converged
     ethr =  1.40E-06,  avg # of iterations =  2.0

     negative rho (up, down):  8.562E-03 2.256E-01

     total cpu time spent up to now is    17621.3 secs

     total energy              =  -21093.91870058 Ry
     Harris-Foulkes estimate   =  -21093.91743380 Ry
     estimated scf accuracy    <       0.01560639 Ry

     total magnetization       =   161.20 Bohr mag/cell
     absolute magnetization    =   167.99 Bohr mag/cell

     iteration # 55     ecut=    60.00 Ry     beta= 0.20
     Davidson diagonalization with overlap
     c_bands:  1 eigenvalues not converged
     ethr =  1.40E-06,  avg # of iterations =  4.3

     negative rho (up, down):  8.990E-03 2.284E-01

     total cpu time spent up to now is    17859.4 secs

     total energy              =  -21093.91926731 Ry
     Harris-Foulkes estimate   =  -21093.91888971 Ry
     estimated scf accuracy    <       0.02241562 Ry

     total magnetization       =   161.22 Bohr mag/cell
     absolute magnetization    =   168.01 Bohr mag/cell

     iteration # 56     ecut=    60.00 Ry     beta= 0.20
     Davidson diagonalization with overlap
     ethr =  1.40E-06,  avg # of iterations =  3.6

     negative rho (up, down):  1.090E-02 2.253E-01

     total cpu time spent up to now is    18076.2 secs

     total energy              =  -21093.91449988 Ry
     Harris-Foulkes estimate   =  -21093.91936768 Ry
     estimated scf accuracy    <       0.02203886 Ry

     total magnetization       =   161.18 Bohr mag/cell
     absolute magnetization    =   167.96 Bohr mag/cell

     iteration # 57     ecut=    60.00 Ry     beta= 0.20
     Davidson diagonalization with overlap
     ethr =  1.40E-06,  avg # of iterations =  3.2

     negative rho (up, down):  8.486E-03 2.024E-01

     total cpu time spent up to now is    18273.9 secs

     total energy              =  -21093.92365839 Ry
     Harris-Foulkes estimate   =  -21093.91454946 Ry
     estimated scf accuracy    <       0.02095740 Ry

     total magnetization       =   161.18 Bohr mag/cell
     absolute magnetization    =   167.97 Bohr mag/cell

     iteration # 58     ecut=    60.00 Ry     beta= 0.20
     Davidson diagonalization with overlap
     c_bands:  3 eigenvalues not converged
     ethr =  1.40E-06,  avg # of iterations =  6.7

     negative rho (up, down):  8.329E-03 2.271E-01

     total cpu time spent up to now is    18570.8 secs

     total energy              =  -21093.91597159 Ry
     Harris-Foulkes estimate   =  -21093.92439200 Ry
     estimated scf accuracy    <       0.03227577 Ry

     total magnetization       =   161.45 Bohr mag/cell
     absolute magnetization    =   168.23 Bohr mag/cell

     iteration # 59     ecut=    60.00 Ry     beta= 0.20
     Davidson diagonalization with overlap
     c_bands:  3 eigenvalues not converged
     ethr =  1.40E-06,  avg # of iterations =  6.8

     negative rho (up, down):  9.234E-03 2.304E-01

     total cpu time spent up to now is    18864.7 secs

     total energy              =  -21093.91655431 Ry
     Harris-Foulkes estimate   =  -21093.91660149 Ry
     estimated scf accuracy    <       0.02542216 Ry

     total magnetization       =   161.29 Bohr mag/cell
     absolute magnetization    =   168.08 Bohr mag/cell

     iteration # 60     ecut=    60.00 Ry     beta= 0.20
     Davidson diagonalization with overlap
     ethr =  1.40E-06,  avg # of iterations =  6.0

     negative rho (up, down):  1.242E-02 2.408E-01

     total cpu time spent up to now is    19125.7 secs

     total energy              =  -21093.91180321 Ry
     Harris-Foulkes estimate   =  -21093.91687539 Ry
     estimated scf accuracy    <       0.01564683 Ry

     total magnetization       =   161.23 Bohr mag/cell
     absolute magnetization    =   168.02 Bohr mag/cell

     iteration # 61     ecut=    60.00 Ry     beta= 0.20
     Davidson diagonalization with overlap
     c_bands:  2 eigenvalues not converged
     ethr =  1.40E-06,  avg # of iterations =  7.0

     negative rho (up, down):  1.105E-02 2.211E-01

     total cpu time spent up to now is    19416.6 secs

     total energy              =  -21093.91855580 Ry
     Harris-Foulkes estimate   =  -21093.91214793 Ry
     estimated scf accuracy    <       0.01818325 Ry

     total magnetization       =   161.14 Bohr mag/cell
     absolute magnetization    =   167.93 Bohr mag/cell

     iteration # 62     ecut=    60.00 Ry     beta= 0.20
     Davidson diagonalization with overlap
     c_bands:  2 eigenvalues not converged
     ethr =  1.40E-06,  avg # of iterations =  8.7

     negative rho (up, down):  1.089E-02 2.200E-01

     total cpu time spent up to now is    19710.8 secs

     total energy              =  -21093.91995388 Ry
     Harris-Foulkes estimate   =  -21093.91953827 Ry
     estimated scf accuracy    <       0.01620124 Ry

     total magnetization       =   161.28 Bohr mag/cell
     absolute magnetization    =   168.07 Bohr mag/cell

     iteration # 63     ecut=    60.00 Ry     beta= 0.20
     Davidson diagonalization with overlap
     ethr =  1.40E-06,  avg # of iterations =  3.6

     negative rho (up, down):  1.259E-02 2.218E-01

     total cpu time spent up to now is    19922.8 secs

     total energy              =  -21093.92152068 Ry
     Harris-Foulkes estimate   =  -21093.91998266 Ry
     estimated scf accuracy    <       0.01702792 Ry

     total magnetization       =   161.25 Bohr mag/cell
     absolute magnetization    =   168.04 Bohr mag/cell

     iteration # 64     ecut=    60.00 Ry     beta= 0.20
     Davidson diagonalization with overlap
     ethr =  1.40E-06,  avg # of iterations =  2.9

     negative rho (up, down):  1.223E-02 2.200E-01

     total cpu time spent up to now is    20125.8 secs

     total energy              =  -21093.92224251 Ry
     Harris-Foulkes estimate   =  -21093.92158157 Ry
     estimated scf accuracy    <       0.01559418 Ry

     total magnetization       =   161.30 Bohr mag/cell
     absolute magnetization    =   168.10 Bohr mag/cell

     iteration # 65     ecut=    60.00 Ry     beta= 0.20
     Davidson diagonalization with overlap
     ethr =  1.40E-06,  avg # of iterations =  1.9

     negative rho (up, down):  1.602E-02 2.128E-01

     total cpu time spent up to now is    20300.2 secs

     total energy              =  -21093.92517169 Ry
     Harris-Foulkes estimate   =  -21093.92225750 Ry
     estimated scf accuracy    <       0.01526201 Ry

     total magnetization       =   161.29 Bohr mag/cell
     absolute magnetization    =   168.08 Bohr mag/cell

     iteration # 66     ecut=    60.00 Ry     beta= 0.20
     Davidson diagonalization with overlap
     ethr =  1.40E-06,  avg # of iterations = 11.3

     negative rho (up, down):  2.020E-02 2.139E-01

     total cpu time spent up to now is    20585.8 secs

     total energy              =  -21093.91968992 Ry
     Harris-Foulkes estimate   =  -21093.92544335 Ry
     estimated scf accuracy    <       0.01132946 Ry

     total magnetization       =   161.25 Bohr mag/cell
     absolute magnetization    =   168.05 Bohr mag/cell

     iteration # 67     ecut=    60.00 Ry     beta= 0.20
     Davidson diagonalization with overlap
     ethr =  1.10E-06,  avg # of iterations =  9.4

     negative rho (up, down):  2.277E-02 2.121E-01

     total cpu time spent up to now is    20850.1 secs

     total energy              =  -21093.92267602 Ry
     Harris-Foulkes estimate   =  -21093.92001997 Ry
     estimated scf accuracy    <       0.01991766 Ry

     total magnetization       =   161.35 Bohr mag/cell
     absolute magnetization    =   168.13 Bohr mag/cell

     iteration # 68     ecut=    60.00 Ry     beta= 0.20
     Davidson diagonalization with overlap
     ethr =  1.10E-06,  avg # of iterations =  6.8

     negative rho (up, down):  1.220E-02 2.172E-01

     total cpu time spent up to now is    21100.5 secs

     total energy              =  -21093.92939259 Ry
     Harris-Foulkes estimate   =  -21093.92307754 Ry
     estimated scf accuracy    <       0.01010418 Ry

     total magnetization       =   161.30 Bohr mag/cell
     absolute magnetization    =   168.10 Bohr mag/cell

     iteration # 69     ecut=    60.00 Ry     beta= 0.20
     Davidson diagonalization with overlap
     ethr =  9.81E-07,  avg # of iterations =  6.0

     negative rho (up, down):  1.428E-02 2.180E-01

     total cpu time spent up to now is    21337.7 secs

     total energy              =  -21093.92601082 Ry
     Harris-Foulkes estimate   =  -21093.92950991 Ry
     estimated scf accuracy    <       0.00767676 Ry

     total magnetization       =   161.38 Bohr mag/cell
     absolute magnetization    =   168.18 Bohr mag/cell

     iteration # 70     ecut=    60.00 Ry     beta= 0.20
     Davidson diagonalization with overlap
     ethr =  7.45E-07,  avg # of iterations =  2.9

     negative rho (up, down):  2.132E-02 1.398E-01

     total cpu time spent up to now is    21512.0 secs

     total energy              =  -21093.93334233 Ry
     Harris-Foulkes estimate   =  -21093.92603282 Ry
     estimated scf accuracy    <       0.00903221 Ry

     total magnetization       =   161.35 Bohr mag/cell
     absolute magnetization    =   168.16 Bohr mag/cell

     iteration # 71     ecut=    60.00 Ry     beta= 0.20
     Davidson diagonalization with overlap
     c_bands:  4 eigenvalues not converged
     ethr =  7.45E-07,  avg # of iterations = 16.2

     negative rho (up, down):  1.266E-02 1.891E-01

     total cpu time spent up to now is    21919.7 secs

     total energy              =  -21093.92108410 Ry
     Harris-Foulkes estimate   =  -21093.93570790 Ry
     estimated scf accuracy    <       0.01600244 Ry

     total magnetization       =   160.93 Bohr mag/cell
     absolute magnetization    =   167.75 Bohr mag/cell

     iteration # 72     ecut=    60.00 Ry     beta= 0.20
     Davidson diagonalization with overlap
     c_bands:  1 eigenvalues not converged
     ethr =  7.45E-07,  avg # of iterations = 15.1

     negative rho (up, down):  1.742E-02 1.790E-01

     total cpu time spent up to now is    22237.0 secs

     total energy              =  -21093.92586999 Ry
     Harris-Foulkes estimate   =  -21093.92532795 Ry
     estimated scf accuracy    <       0.01131838 Ry

     total magnetization       =   161.30 Bohr mag/cell
     absolute magnetization    =   168.11 Bohr mag/cell

     iteration # 73     ecut=    60.00 Ry     beta= 0.20
     Davidson diagonalization with overlap
     ethr =  7.45E-07,  avg # of iterations =  9.9

     negative rho (up, down):  9.826E-03 2.205E-01

     total cpu time spent up to now is    22521.2 secs

     total energy              =  -21093.92881540 Ry
     Harris-Foulkes estimate   =  -21093.92597300 Ry
     estimated scf accuracy    <       0.00835272 Ry

     total magnetization       =   161.35 Bohr mag/cell
     absolute magnetization    =   168.15 Bohr mag/cell

     iteration # 74     ecut=    60.00 Ry     beta= 0.20
     Davidson diagonalization with overlap
     c_bands:  2 eigenvalues not converged
     ethr =  7.45E-07,  avg # of iterations =  9.8

     negative rho (up, down):  9.378E-03 2.153E-01

     total cpu time spent up to now is    22811.6 secs

     total energy              =  -21093.93075976 Ry
     Harris-Foulkes estimate   =  -21093.92946300 Ry
     estimated scf accuracy    <       0.02181556 Ry

     total magnetization       =   161.31 Bohr mag/cell
     absolute magnetization    =   168.12 Bohr mag/cell

     iteration # 75     ecut=    60.00 Ry     beta= 0.20
     Davidson diagonalization with overlap
     ethr =  7.45E-07,  avg # of iterations =  7.3

     negative rho (up, down):  1.186E-02 2.205E-01

     total cpu time spent up to now is    23081.1 secs

     total energy              =  -21093.93000805 Ry
     Harris-Foulkes estimate   =  -21093.93079154 Ry
     estimated scf accuracy    <       0.01846156 Ry

     total magnetization       =   161.27 Bohr mag/cell
     absolute magnetization    =   168.07 Bohr mag/cell

     iteration # 76     ecut=    60.00 Ry     beta= 0.20
     Davidson diagonalization with overlap
     ethr =  7.45E-07,  avg # of iterations =  8.2

     negative rho (up, down):  8.937E-03 2.168E-01

     total cpu time spent up to now is    23341.9 secs

     total energy              =  -21093.93067134 Ry
     Harris-Foulkes estimate   =  -21093.93018835 Ry
     estimated scf accuracy    <       0.02809099 Ry

     total magnetization       =   161.37 Bohr mag/cell
     absolute magnetization    =   168.17 Bohr mag/cell

     iteration # 77     ecut=    60.00 Ry     beta= 0.20
     Davidson diagonalization with overlap
     c_bands:  1 eigenvalues not converged
     ethr =  7.45E-07,  avg # of iterations =  7.7

     negative rho (up, down):  9.312E-03 2.186E-01

     total cpu time spent up to now is    23629.3 secs

     total energy              =  -21093.93071571 Ry
     Harris-Foulkes estimate   =  -21093.93157819 Ry
     estimated scf accuracy    <       0.00912417 Ry

     total magnetization       =   161.25 Bohr mag/cell
     absolute magnetization    =   168.06 Bohr mag/cell

     iteration # 78     ecut=    60.00 Ry     beta= 0.20
     Davidson diagonalization with overlap
     ethr =  7.45E-07,  avg # of iterations =  4.0

     negative rho (up, down):  9.221E-03 2.200E-01

     total cpu time spent up to now is    23834.3 secs

     total energy              =  -21093.93075502 Ry
     Harris-Foulkes estimate   =  -21093.93074122 Ry
     estimated scf accuracy    <       0.00792472 Ry

     total magnetization       =   161.24 Bohr mag/cell
     absolute magnetization    =   168.05 Bohr mag/cell

     iteration # 79     ecut=    60.00 Ry     beta= 0.20
     Davidson diagonalization with overlap
     ethr =  7.45E-07,  avg # of iterations =  1.9

     negative rho (up, down):  9.374E-03 2.218E-01

     total cpu time spent up to now is    24006.9 secs

     total energy              =  -21093.92970731 Ry
     Harris-Foulkes estimate   =  -21093.93076096 Ry
     estimated scf accuracy    <       0.00807069 Ry

     total magnetization       =   161.24 Bohr mag/cell
     absolute magnetization    =   168.05 Bohr mag/cell

     iteration # 80     ecut=    60.00 Ry     beta= 0.20
     Davidson diagonalization with overlap
     ethr =  7.45E-07,  avg # of iterations =  1.6

     negative rho (up, down):  8.954E-03 2.212E-01

     total cpu time spent up to now is    24165.1 secs

     total energy              =  -21093.93022238 Ry
     Harris-Foulkes estimate   =  -21093.92971741 Ry
     estimated scf accuracy    <       0.00765826 Ry

     total magnetization       =   161.22 Bohr mag/cell
     absolute magnetization    =   168.03 Bohr mag/cell

     iteration # 81     ecut=    60.00 Ry     beta= 0.20
     Davidson diagonalization with overlap
     ethr =  7.44E-07,  avg # of iterations =  1.0

     negative rho (up, down):  9.465E-03 2.208E-01

     total cpu time spent up to now is    24294.2 secs

     total energy              =  -21093.92955481 Ry
     Harris-Foulkes estimate   =  -21093.93022948 Ry
     estimated scf accuracy    <       0.00846364 Ry

     total magnetization       =   161.23 Bohr mag/cell
     absolute magnetization    =   168.04 Bohr mag/cell

     iteration # 82     ecut=    60.00 Ry     beta= 0.20
     Davidson diagonalization with overlap
     ethr =  7.44E-07,  avg # of iterations =  1.0

     negative rho (up, down):  1.361E-02 2.236E-01

     total cpu time spent up to now is    24420.3 secs

     total energy              =  -21093.92374296 Ry
     Harris-Foulkes estimate   =  -21093.92956178 Ry
     estimated scf accuracy    <       0.00868025 Ry

     total magnetization       =   161.21 Bohr mag/cell
     absolute magnetization    =   168.02 Bohr mag/cell

     iteration # 83     ecut=    60.00 Ry     beta= 0.20
     Davidson diagonalization with overlap
     ethr =  7.44E-07,  avg # of iterations =  4.7

     negative rho (up, down):  8.126E-03 2.236E-01

     total cpu time spent up to now is    24661.7 secs

     total energy              =  -21093.92521614 Ry
     Harris-Foulkes estimate   =  -21093.92480591 Ry
     estimated scf accuracy    <       0.00397646 Ry

     total magnetization       =   160.96 Bohr mag/cell
     absolute magnetization    =   167.79 Bohr mag/cell

     iteration # 84     ecut=    60.00 Ry     beta= 0.20
     Davidson diagonalization with overlap
     ethr =  3.86E-07,  avg # of iterations =  5.5

     negative rho (up, down):  8.354E-03 2.208E-01

     total cpu time spent up to now is    24931.4 secs

     total energy              =  -21093.92895321 Ry
     Harris-Foulkes estimate   =  -21093.92739552 Ry
     estimated scf accuracy    <       0.01018400 Ry

     total magnetization       =   161.29 Bohr mag/cell
     absolute magnetization    =   168.10 Bohr mag/cell

     iteration # 85     ecut=    60.00 Ry     beta= 0.20
     Davidson diagonalization with overlap
     ethr =  3.86E-07,  avg # of iterations =  3.8

     negative rho (up, down):  8.776E-03 2.184E-01

     total cpu time spent up to now is    25140.8 secs

     total energy              =  -21093.92996600 Ry
     Harris-Foulkes estimate   =  -21093.92898553 Ry
     estimated scf accuracy    <       0.01187315 Ry

     total magnetization       =   161.29 Bohr mag/cell
     absolute magnetization    =   168.11 Bohr mag/cell

     iteration # 86     ecut=    60.00 Ry     beta= 0.20
     Davidson diagonalization with overlap
     ethr =  3.86E-07,  avg # of iterations =  1.4

     negative rho (up, down):  8.753E-03 2.191E-01

     total cpu time spent up to now is    25294.2 secs

     total energy              =  -21093.92938679 Ry
     Harris-Foulkes estimate   =  -21093.92998147 Ry
     estimated scf accuracy    <       0.01359396 Ry

     total magnetization       =   161.30 Bohr mag/cell
     absolute magnetization    =   168.12 Bohr mag/cell

     iteration # 87     ecut=    60.00 Ry     beta= 0.20
     Davidson diagonalization with overlap
     ethr =  3.86E-07,  avg # of iterations =  1.0

     negative rho (up, down):  1.036E-02 2.187E-01

     total cpu time spent up to now is    25426.0 secs

     total energy              =  -21093.93007854 Ry
     Harris-Foulkes estimate   =  -21093.92953153 Ry
     estimated scf accuracy    <       0.02491379 Ry

     total magnetization       =   161.42 Bohr mag/cell
     absolute magnetization    =   168.23 Bohr mag/cell

     iteration # 88     ecut=    60.00 Ry     beta= 0.20
     Davidson diagonalization with overlap
     ethr =  3.86E-07,  avg # of iterations =  5.2

     negative rho (up, down):  9.418E-03 2.129E-01

     total cpu time spent up to now is    25686.5 secs

     total energy              =  -21093.92838502 Ry
     Harris-Foulkes estimate   =  -21093.93049173 Ry
     estimated scf accuracy    <       0.01034480 Ry

     total magnetization       =   161.29 Bohr mag/cell
     absolute magnetization    =   168.11 Bohr mag/cell

     iteration # 89     ecut=    60.00 Ry     beta= 0.20
     Davidson diagonalization with overlap
     ethr =  3.86E-07,  avg # of iterations =  4.2

     negative rho (up, down):  9.948E-03 2.127E-01

     total cpu time spent up to now is    25919.4 secs

     total energy              =  -21093.92858983 Ry
     Harris-Foulkes estimate   =  -21093.92848036 Ry
     estimated scf accuracy    <       0.01523896 Ry

     total magnetization       =   161.34 Bohr mag/cell
     absolute magnetization    =   168.16 Bohr mag/cell

     iteration # 90     ecut=    60.00 Ry     beta= 0.20
     Davidson diagonalization with overlap
     ethr =  3.86E-07,  avg # of iterations =  1.0

     negative rho (up, down):  8.823E-03 2.204E-01

     total cpu time spent up to now is    26051.5 secs

     total energy              =  -21093.92884440 Ry
     Harris-Foulkes estimate   =  -21093.92860234 Ry
     estimated scf accuracy    <       0.01356726 Ry

     total magnetization       =   161.33 Bohr mag/cell
     absolute magnetization    =   168.15 Bohr mag/cell

     iteration # 91     ecut=    60.00 Ry     beta= 0.20
     Davidson diagonalization with overlap
     ethr =  3.86E-07,  avg # of iterations =  4.7

     negative rho (up, down):  1.065E-02 2.078E-01

     total cpu time spent up to now is    26298.4 secs

     total energy              =  -21093.92852546 Ry
     Harris-Foulkes estimate   =  -21093.92912969 Ry
     estimated scf accuracy    <       0.03022176 Ry

     total magnetization       =   161.41 Bohr mag/cell
     absolute magnetization    =   168.23 Bohr mag/cell

     iteration # 92     ecut=    60.00 Ry     beta= 0.20
     Davidson diagonalization with overlap
     ethr =  3.86E-07,  avg # of iterations =  5.2

     negative rho (up, down):  1.058E-02 2.085E-01

     total cpu time spent up to now is    26561.1 secs

     total energy              =  -21093.93022268 Ry
     Harris-Foulkes estimate   =  -21093.92877224 Ry
     estimated scf accuracy    <       0.01442114 Ry

     total magnetization       =   161.35 Bohr mag/cell
     absolute magnetization    =   168.17 Bohr mag/cell

     iteration # 93     ecut=    60.00 Ry     beta= 0.20
     Davidson diagonalization with overlap
     ethr =  3.86E-07,  avg # of iterations =  3.6

     negative rho (up, down):  1.113E-02 2.055E-01

     total cpu time spent up to now is    26774.8 secs

     total energy              =  -21093.93051292 Ry
     Harris-Foulkes estimate   =  -21093.93036241 Ry
     estimated scf accuracy    <       0.00828936 Ry

     total magnetization       =   161.31 Bohr mag/cell
     absolute magnetization    =   168.13 Bohr mag/cell

     iteration # 94     ecut=    60.00 Ry     beta= 0.20
     Davidson diagonalization with overlap
     ethr =  3.86E-07,  avg # of iterations =  1.0

     negative rho (up, down):  1.086E-02 1.999E-01

     total cpu time spent up to now is    26908.3 secs

     total energy              =  -21093.93139464 Ry
     Harris-Foulkes estimate   =  -21093.93052181 Ry
     estimated scf accuracy    <       0.00761508 Ry

     total magnetization       =   161.29 Bohr mag/cell
     absolute magnetization    =   168.12 Bohr mag/cell

     iteration # 95     ecut=    60.00 Ry     beta= 0.20
     Davidson diagonalization with overlap
     ethr =  3.86E-07,  avg # of iterations =  4.8

     negative rho (up, down):  9.997E-03 1.961E-01

     total cpu time spent up to now is    27156.9 secs

     total energy              =  -21093.93215508 Ry
     Harris-Foulkes estimate   =  -21093.93141832 Ry
     estimated scf accuracy    <       0.00601040 Ry

     total magnetization       =   161.28 Bohr mag/cell
     absolute magnetization    =   168.10 Bohr mag/cell

     iteration # 96     ecut=    60.00 Ry     beta= 0.20
     Davidson diagonalization with overlap
     ethr =  3.86E-07,  avg # of iterations =  4.5

     negative rho (up, down):  1.075E-02 1.909E-01

     total cpu time spent up to now is    27392.1 secs

     total energy              =  -21093.93291615 Ry
     Harris-Foulkes estimate   =  -21093.93221960 Ry
     estimated scf accuracy    <       0.00339343 Ry

     total magnetization       =   161.28 Bohr mag/cell
     absolute magnetization    =   168.10 Bohr mag/cell

     iteration # 97     ecut=    60.00 Ry     beta= 0.20
     Davidson diagonalization with overlap
     ethr =  3.29E-07,  avg # of iterations =  4.0

     negative rho (up, down):  1.143E-02 1.927E-01

     total cpu time spent up to now is    27620.8 secs

     total energy              =  -21093.93188893 Ry
     Harris-Foulkes estimate   =  -21093.93292625 Ry
     estimated scf accuracy    <       0.00345757 Ry

     total magnetization       =   161.30 Bohr mag/cell
     absolute magnetization    =   168.12 Bohr mag/cell

     iteration # 98     ecut=    60.00 Ry     beta= 0.20
     Davidson diagonalization with overlap
     ethr =  3.29E-07,  avg # of iterations =  1.0

     negative rho (up, down):  1.123E-02 1.927E-01

     total cpu time spent up to now is    27755.3 secs

     total energy              =  -21093.93208580 Ry
     Harris-Foulkes estimate   =  -21093.93189844 Ry
     estimated scf accuracy    <       0.00281086 Ry

     total magnetization       =   161.30 Bohr mag/cell
     absolute magnetization    =   168.12 Bohr mag/cell

     iteration # 99     ecut=    60.00 Ry     beta= 0.20
     Davidson diagonalization with overlap
     ethr =  2.73E-07,  avg # of iterations =  1.0

     negative rho (up, down):  1.167E-02 1.893E-01

     total cpu time spent up to now is    27885.0 secs

     total energy              =  -21093.93037186 Ry
     Harris-Foulkes estimate   =  -21093.93209507 Ry
     estimated scf accuracy    <       0.00207304 Ry

     total magnetization       =   161.25 Bohr mag/cell
     absolute magnetization    =   168.07 Bohr mag/cell

     iteration #100     ecut=    60.00 Ry     beta= 0.20
     Davidson diagonalization with overlap
     ethr =  2.01E-07,  avg # of iterations =  4.6

     negative rho (up, down):  1.174E-02 1.858E-01

     Magnetic moment per site:
     atom:    1    charge:   12.5859    magn:    2.3522    constr:    0.0000
     atom:    2    charge:   12.5768    magn:    2.1663    constr:    0.0000
     atom:    3    charge:   12.5854    magn:    2.3536    constr:    0.0000
     atom:    4    charge:   12.5747    magn:    2.2039    constr:    0.0000
     atom:    5    charge:   12.5793    magn:    2.1994    constr:    0.0000
     atom:    6    charge:   12.5818    magn:    2.2263    constr:    0.0000
     atom:    7    charge:   12.5754    magn:    2.2519    constr:    0.0000
     atom:    8    charge:   12.5863    magn:    2.3640    constr:    0.0000
     atom:    9    charge:   12.5861    magn:    2.3465    constr:    0.0000
     atom:   10    charge:   12.5860    magn:    2.3518    constr:    0.0000
     atom:   11    charge:   12.5754    magn:    2.2079    constr:    0.0000
     atom:   12    charge:   12.5759    magn:    2.1948    constr:    0.0000
     atom:   13    charge:   12.5757    magn:    2.2001    constr:    0.0000
     atom:   14    charge:   12.5794    magn:    2.1681    constr:    0.0000
     atom:   15    charge:   12.5899    magn:    2.3393    constr:    0.0000
     atom:   16    charge:   12.5861    magn:    2.2236    constr:    0.0000
     atom:   17    charge:   12.5852    magn:    2.3536    constr:    0.0000
     atom:   18    charge:   12.5747    magn:    2.2039    constr:    0.0000
     atom:   19    charge:   12.5853    magn:    2.3544    constr:    0.0000
     atom:   20    charge:   12.5744    magn:    2.2271    constr:    0.0000
     atom:   21    charge:   12.5755    magn:    2.2518    constr:    0.0000
     atom:   22    charge:   12.5861    magn:    2.3642    constr:    0.0000
     atom:   23    charge:   12.5759    magn:    2.2472    constr:    0.0000
     atom:   24    charge:   12.5943    magn:    1.6630    constr:    0.0000
     atom:   25    charge:   12.5857    magn:    2.3586    constr:    0.0000
     atom:   26    charge:   12.5855    magn:    2.3533    constr:    0.0000
     atom:   27    charge:   12.5746    magn:    2.2225    constr:    0.0000
     atom:   28    charge:   12.5752    magn:    2.2062    constr:    0.0000
     atom:   29    charge:   12.5766    magn:    2.2757    constr:    0.0000
     atom:   30    charge:   12.5795    magn:    2.0653    constr:    0.0000
     atom:   31    charge:   12.5831    magn:    2.1319    constr:    0.0000
     atom:   32    charge:   12.5893    magn:    2.3402    constr:    0.0000
     atom:   33    charge:   12.5859    magn:    2.3534    constr:    0.0000
     atom:   34    charge:   12.5747    magn:    2.1999    constr:    0.0000
     atom:   35    charge:   12.5859    magn:    2.3522    constr:    0.0000
     atom:   36    charge:   12.5768    magn:    2.1663    constr:    0.0000
     atom:   37    charge:   12.5789    magn:    2.1886    constr:    0.0000
     atom:   38    charge:   12.5880    magn:    2.3449    constr:    0.0000
     atom:   39    charge:   12.5791    magn:    2.1995    constr:    0.0000
     atom:   40    charge:   12.5813    magn:    2.2266    constr:    0.0000
     atom:   41    charge:   12.5861    magn:    2.3572    constr:    0.0000
     atom:   42    charge:   12.5858    magn:    2.3534    constr:    0.0000
     atom:   43    charge:   12.5755    magn:    2.1978    constr:    0.0000
     atom:   44    charge:   12.5754    magn:    2.2064    constr:    0.0000
     atom:   45    charge:   12.5794    magn:    2.1510    constr:    0.0000
     atom:   46    charge:   12.5799    magn:    2.0653    constr:    0.0000
     atom:   47    charge:   12.5890    magn:    2.3596    constr:    0.0000
     atom:   48    charge:   12.5893    magn:    2.3402    constr:    0.0000
     atom:   49    charge:   12.5855    magn:    2.3545    constr:    0.0000
     atom:   50    charge:   12.5749    magn:    2.2274    constr:    0.0000
     atom:   51    charge:   12.5859    magn:    2.3533    constr:    0.0000
     atom:   52    charge:   12.5746    magn:    2.1998    constr:    0.0000
     atom:   53    charge:   12.5757    magn:    2.2474    constr:    0.0000
     atom:   54    charge:   12.5940    magn:    1.6628    constr:    0.0000
     atom:   55    charge:   12.5793    magn:    2.1886    constr:    0.0000
     atom:   56    charge:   12.5881    magn:    2.3448    constr:    0.0000
     atom:   57    charge:   12.5861    magn:    2.3465    constr:    0.0000
     atom:   58    charge:   12.5859    magn:    2.3525    constr:    0.0000
     atom:   59    charge:   12.5756    magn:    2.2080    constr:    0.0000
     atom:   60    charge:   12.5746    magn:    2.2215    constr:    0.0000
     atom:   61    charge:   12.5758    magn:    2.2000    constr:    0.0000
     atom:   62    charge:   12.5792    magn:    2.1800    constr:    0.0000
     atom:   63    charge:   12.5898    magn:    2.3395    constr:    0.0000
     atom:   64    charge:   12.5824    magn:    2.1368    constr:    0.0000
     atom:   65    charge:    3.7438    magn:   -0.1413    constr:    0.0000
     atom:   66    charge:    0.9751    magn:   -0.0232    constr:    0.0000

     total cpu time spent up to now is    28122.5 secs

     total energy              =  -21093.93156942 Ry
     Harris-Foulkes estimate   =  -21093.93039609 Ry
     estimated scf accuracy    <       0.00157434 Ry

     total magnetization       =   161.24 Bohr mag/cell
     absolute magnetization    =   168.06 Bohr mag/cell

     iteration #101     ecut=    60.00 Ry     beta= 0.20
     Davidson diagonalization with overlap
     ethr =  1.53E-07,  avg # of iterations =  4.7

     negative rho (up, down):  1.151E-02 1.778E-01

     total cpu time spent up to now is    28359.9 secs

     total energy              =  -21093.93313472 Ry
     Harris-Foulkes estimate   =  -21093.93158949 Ry
     estimated scf accuracy    <       0.00068400 Ry

     total magnetization       =   161.21 Bohr mag/cell
     absolute magnetization    =   168.03 Bohr mag/cell

     iteration #102     ecut=    60.00 Ry     beta= 0.20
     Davidson diagonalization with overlap
     c_bands:  2 eigenvalues not converged
     ethr =  6.64E-08,  avg # of iterations =  6.3

     negative rho (up, down):  1.127E-02 8.333E-02

     total cpu time spent up to now is    28638.7 secs

     total energy              =  -21093.93030487 Ry
     Harris-Foulkes estimate   =  -21093.93315488 Ry
     estimated scf accuracy    <       0.00035514 Ry

     total magnetization       =   161.19 Bohr mag/cell
     absolute magnetization    =   168.01 Bohr mag/cell

     iteration #103     ecut=    60.00 Ry     beta= 0.20
     Davidson diagonalization with overlap
     c_bands:  5 eigenvalues not converged
     c_bands:  2 eigenvalues not converged
     c_bands:  1 eigenvalues not converged
     ethr =  3.45E-08,  avg # of iterations = 24.4

     negative rho (up, down):  1.251E-02 9.286E-02

     total cpu time spent up to now is    29332.7 secs

     total energy              =  -21093.93745383 Ry
     Harris-Foulkes estimate   =  -21093.93965771 Ry
     estimated scf accuracy    <       0.00035801 Ry

     total magnetization       =   161.14 Bohr mag/cell
     absolute magnetization    =   167.97 Bohr mag/cell

     iteration #104     ecut=    60.00 Ry     beta= 0.20
     Davidson diagonalization with overlap
     c_bands:  2 eigenvalues not converged
     c_bands:  3 eigenvalues not converged
     ethr =  3.45E-08,  avg # of iterations = 13.8

     negative rho (up, down):  1.032E-02 1.604E-01

     total cpu time spent up to now is    29626.0 secs

     total energy              =  -21093.94370937 Ry
     Harris-Foulkes estimate   =  -21093.93773695 Ry
     estimated scf accuracy    <       0.00237584 Ry

     total magnetization       =   161.26 Bohr mag/cell
     absolute magnetization    =   168.09 Bohr mag/cell

     iteration #105     ecut=    60.00 Ry     beta= 0.20
     Davidson diagonalization with overlap
     c_bands:  1 eigenvalues not converged
     c_bands:  3 eigenvalues not converged
     c_bands:  2 eigenvalues not converged
     ethr =  3.45E-08,  avg # of iterations = 17.1

     negative rho (up, down):  1.152E-02 1.390E-01

     total cpu time spent up to now is    29926.5 secs

     total energy              =  -21093.94355918 Ry
     Harris-Foulkes estimate   =  -21093.94796179 Ry
     estimated scf accuracy    <       0.11038305 Ry

     total magnetization       =   161.82 Bohr mag/cell
     absolute magnetization    =   168.61 Bohr mag/cell

     iteration #106     ecut=    60.00 Ry     beta= 0.20
     Davidson diagonalization with overlap
     c_bands:  1 eigenvalues not converged
     c_bands:  2 eigenvalues not converged
     c_bands:  2 eigenvalues not converged
     ethr =  3.45E-08,  avg # of iterations = 15.0

     negative rho (up, down):  1.100E-02 1.167E-01

     total cpu time spent up to now is    30212.7 secs

     total energy              =  -21093.93847116 Ry
     Harris-Foulkes estimate   =  -21093.94378363 Ry
     estimated scf accuracy    <       0.09149072 Ry

     total magnetization       =   161.74 Bohr mag/cell
     absolute magnetization    =   168.55 Bohr mag/cell

     iteration #107     ecut=    60.00 Ry     beta= 0.20
     Davidson diagonalization with overlap
     c_bands:  1 eigenvalues not converged
     c_bands:  2 eigenvalues not converged
     c_bands:  2 eigenvalues not converged
     ethr =  3.45E-08,  avg # of iterations = 13.3

     negative rho (up, down):  1.202E-02 9.798E-02

     total cpu time spent up to now is    30495.8 secs

     total energy              =  -21093.93710005 Ry
     Harris-Foulkes estimate   =  -21093.93936041 Ry
     estimated scf accuracy    <       0.02539368 Ry

     total magnetization       =   161.51 Bohr mag/cell
     absolute magnetization    =   168.33 Bohr mag/cell

     iteration #108     ecut=    60.00 Ry     beta= 0.20
     Davidson diagonalization with overlap
     c_bands:  1 eigenvalues not converged
     ethr =  3.45E-08,  avg # of iterations = 11.4

     negative rho (up, down):  1.423E-02 1.028E-01

     total cpu time spent up to now is    30770.4 secs

     total energy              =  -21093.93822293 Ry
     Harris-Foulkes estimate   =  -21093.93727611 Ry
     estimated scf accuracy    <       0.00876185 Ry

     total magnetization       =   161.39 Bohr mag/cell
     absolute magnetization    =   168.21 Bohr mag/cell

     iteration #109     ecut=    60.00 Ry     beta= 0.20
     Davidson diagonalization with overlap
     c_bands:  1 eigenvalues not converged
     c_bands:  2 eigenvalues not converged
     c_bands:  2 eigenvalues not converged
     ethr =  3.45E-08,  avg # of iterations = 10.5

     negative rho (up, down):  1.332E-02 1.056E-01

     total cpu time spent up to now is    31050.0 secs

     total energy              =  -21093.93923167 Ry
     Harris-Foulkes estimate   =  -21093.93844223 Ry
     estimated scf accuracy    <       0.02805976 Ry

     total magnetization       =   161.55 Bohr mag/cell
     absolute magnetization    =   168.37 Bohr mag/cell

     iteration #110     ecut=    60.00 Ry     beta= 0.20
     Davidson diagonalization with overlap
     ethr =  3.45E-08,  avg # of iterations =  7.0

     negative rho (up, down):  1.411E-02 9.973E-02

     total cpu time spent up to now is    31281.2 secs

     total energy              =  -21093.93744767 Ry
     Harris-Foulkes estimate   =  -21093.93923729 Ry
     estimated scf accuracy    <       0.03032291 Ry

     total magnetization       =   161.54 Bohr mag/cell
     absolute magnetization    =   168.36 Bohr mag/cell

     iteration #111     ecut=    60.00 Ry     beta= 0.20
     Davidson diagonalization with overlap
     c_bands:  1 eigenvalues not converged
     c_bands:  1 eigenvalues not converged
     ethr =  3.45E-08,  avg # of iterations = 15.9

     negative rho (up, down):  1.325E-02 1.005E-01

     total cpu time spent up to now is    31567.5 secs

     total energy              =  -21093.93824362 Ry
     Harris-Foulkes estimate   =  -21093.93747136 Ry
     estimated scf accuracy    <       0.02511105 Ry

     total magnetization       =   161.52 Bohr mag/cell
     absolute magnetization    =   168.34 Bohr mag/cell

     iteration #112     ecut=    60.00 Ry     beta= 0.20
     Davidson diagonalization with overlap
     c_bands:  1 eigenvalues not converged
     c_bands:  1 eigenvalues not converged
     c_bands:  2 eigenvalues not converged
     ethr =  3.45E-08,  avg # of iterations = 13.1

     negative rho (up, down):  1.237E-02 1.151E-01

     total cpu time spent up to now is    31851.3 secs

     total energy              =  -21093.94098673 Ry
     Harris-Foulkes estimate   =  -21093.93825902 Ry
     estimated scf accuracy    <       0.02184194 Ry

     total magnetization       =   161.50 Bohr mag/cell
     absolute magnetization    =   168.32 Bohr mag/cell

     iteration #113     ecut=    60.00 Ry     beta= 0.20
     Davidson diagonalization with overlap
[...]
   -11.2101 -11.2012 -11.1507 -11.1176 -11.1052 -11.0899 -11.0740 -11.0528
   -11.0441 -11.0382 -11.0271 -11.0240 -11.0197 -10.9982 -10.9918 -10.9710
   -10.9589 -10.9260 -10.9128 -10.8910 -10.8854 -10.8776 -10.8487 -10.8356
   -10.8075 -10.8008 -10.7905 -10.7856 -10.7698 -10.7514 -10.7410 -10.7368
   -10.7228 -10.7134 -10.7071 -10.6939 -10.6840 -10.6692 -10.6667 -10.6591
   -10.6436 -10.6340 -10.6232 -10.6204 -10.6074 -10.5802 -10.5706 -10.5572
   -10.5415 -10.5348 -10.5274 -10.5246 -10.5111 -10.5065 -10.5028 -10.4975
   -10.4808 -10.4714 -10.4566 -10.4550 -10.4475 -10.4412 -10.4342 -10.4278
   -10.4169 -10.4095 -10.4011 -10.3920 -10.3787 -10.3736 -10.3528 -10.3432
   -10.3388 -10.3348 -10.3215 -10.3086 -10.3039 -10.2944 -10.2891 -10.2858
   -10.2825 -10.2687 -10.2647 -10.2571 -10.2550 -10.2485 -10.2329 -10.2278
   -10.2215 -10.2140 -10.2012 -10.1859 -10.1733 -10.1657 -10.1628 -10.1561
   -10.1524 -10.1457 -10.1355 -10.1315 -10.1208 -10.1174 -10.1109 -10.1074
   -10.0991 -10.0919 -10.0776 -10.0709 -10.0537 -10.0449 -10.0391 -10.0334
   -10.0160  -9.9871  -9.9802  -9.9686  -9.9591  -9.9538  -9.9478  -9.9375
    -9.9292  -9.9258  -9.9029  -9.8866  -9.8695  -9.8642  -9.8530  -9.8309
    -9.8145  -9.8098  -9.7817  -9.7443  -9.7310  -9.6615  -9.6476  -9.6063
    -9.5968  -9.5520  -9.4665  -9.4419  -9.3536  -9.3160  -9.2673  -9.2467
    -9.2333  -9.0249

          k =-0.5000-0.3536 0.0000 (128560 PWs)   bands (ev):

   -98.0324 -98.0319 -97.6085 -97.6064 -97.5081 -97.5068 -97.4973 -97.4594
   -97.4513 -97.3896 -97.3772 -97.3702 -97.3671 -97.3606 -97.3561 -97.3531
   -97.3428 -97.3419 -97.3394 -97.3344 -97.3322 -97.3300 -97.3261 -97.3259
   -97.3226 -97.3212 -97.3190 -97.3169 -97.3166 -97.3127 -97.3119 -97.3117
   -97.3105 -97.3087 -97.3072 -97.3014 -97.2988 -97.2977 -97.2910 -97.2908
   -97.2895 -97.2891 -97.2882 -97.2844 -97.2840 -97.2807 -97.2793 -97.2776
   -97.2721 -97.2670 -97.2639 -97.2629 -97.2618 -97.2609 -97.2596 -97.2594
   -97.2571 -97.2554 -97.2552 -97.2542 -97.2404 -97.2381 -97.2362 -97.2333
   -64.5709 -64.5628 -64.0410 -64.0290 -63.9682 -63.9587 -63.9269 -63.9216
   -63.7520 -63.7303 -63.7136 -63.7003 -63.6969 -63.6905 -63.6876 -63.6843
   -63.6681 -63.6666 -63.6556 -63.6526 -63.6493 -63.6443 -63.6345 -63.6295
   -63.6217 -63.6204 -63.6187 -63.6169 -63.6137 -63.6077 -63.6057 -63.6038
   -63.6034 -63.6006 -63.5949 -63.5927 -63.5898 -63.5821 -63.5815 -63.5791
   -63.5791 -63.5771 -63.5702 -63.5683 -63.5678 -63.5635 -63.5624 -63.5619
   -63.5590 -63.5561 -63.5514 -63.5490 -63.5453 -63.5406 -63.5393 -63.5388
   -63.5371 -63.5334 -63.5324 -63.5318 -63.5306 -63.5291 -63.5286 -63.5271
   -63.5268 -63.5227 -63.5226 -63.5225 -63.5181 -63.5132 -63.5105 -63.5092
   -63.5065 -63.5046 -63.5016 -63.4927 -63.4839 -63.4825 -63.4810 -63.4758
   -63.4731 -63.4710 -63.4633 -63.4627 -63.4590 -63.4579 -63.4422 -63.4415
   -63.4407 -63.4376 -63.4362 -63.4335 -63.4323 -63.4264 -63.4260 -63.4249
   -63.4229 -63.4174 -63.4150 -63.4126 -63.4119 -63.4085 -63.4076 -63.4047
   -63.4020 -63.4008 -63.3969 -63.3920 -63.3890 -63.3888 -63.3879 -63.3870
   -63.3843 -63.3836 -63.3814 -63.3798 -63.3789 -63.3771 -63.3761 -63.3742
   -63.3710 -63.3679 -63.3673 -63.3655 -63.3595 -63.3576 -63.3547 -63.3538
   -63.3530 -63.3509 -63.3487 -63.3470 -63.3463 -63.3443 -63.3407 -63.3371
   -63.3367 -63.3328 -63.3318 -63.3283 -63.3269 -63.3256 -63.3246 -63.3246
   -63.3232 -63.3225 -63.3206 -63.3192 -63.3176 -63.3167 -63.3161 -63.3155
   -63.3142 -63.3120 -63.3094 -63.3086 -63.3074 -63.3070 -63.3041 -63.3034
   -63.2989 -63.2988 -63.2971 -63.2943 -63.2914 -63.2912 -63.2903 -63.2888
   -63.2885 -63.2882 -63.2879 -63.2876 -63.2863 -63.2846 -63.2844 -63.2841
   -63.2818 -63.2805 -63.2780 -63.2766 -63.2753 -63.2731 -63.2725 -63.2700
   -63.2682 -63.2675 -63.2660 -63.2636 -63.2601 -63.2601 -63.2569 -63.2536
   -27.9680 -19.4010 -19.3561 -18.8649 -18.8380 -18.4306 -18.3800 -18.2647
   -17.8661 -17.7143 -17.3682 -17.2489 -17.1513 -16.7556 -16.7032 -16.6836
   -16.5366 -16.3078 -16.0759 -15.9208 -15.9009 -15.8837 -15.8749 -15.8669
   -15.8008 -15.7984 -15.7673 -15.7182 -15.7015 -15.6229 -15.4613 -15.3492
   -15.3435 -15.3320 -15.3164 -15.2631 -15.2262 -15.1465 -14.9628 -14.8864
   -14.8858 -14.8711 -14.8417 -14.8291 -14.8189 -14.7745 -14.7430 -14.7102
   -14.7015 -14.6453 -14.5828 -14.5784 -14.5540 -14.5424 -14.5346 -14.5217
   -14.3508 -14.3258 -14.3133 -14.3106 -14.2831 -14.2522 -14.2139 -14.0832
   -14.0483 -14.0299 -14.0199 -13.9792 -13.9749 -13.9642 -13.8912 -13.8585
   -13.8379 -13.8217 -13.7870 -13.7830 -13.7766 -13.7509 -13.7418 -13.7370
   -13.7226 -13.7214 -13.6666 -13.6466 -13.6456 -13.6394 -13.6377 -13.6303
   -13.6004 -13.5985 -13.5980 -13.5636 -13.5565 -13.4767 -13.4319 -13.4309
   -13.4266 -13.4189 -13.3609 -13.3350 -13.3074 -13.2924 -13.2894 -13.2845
   -13.2738 -13.2705 -13.2650 -13.2567 -13.2184 -13.2069 -13.2060 -13.1988
   -13.1949 -13.1880 -13.1818 -13.1771 -13.1695 -13.1631 -13.1571 -13.1514
   -13.1403 -13.1275 -13.1201 -13.1156 -13.1130 -13.1117 -13.1016 -13.0856
   -13.0805 -13.0687 -13.0505 -13.0465 -13.0434 -13.0425 -13.0386 -13.0341
   -13.0183 -13.0093 -12.9986 -12.9915 -12.9494 -12.8621 -12.8356 -12.8200
   -12.8070 -12.7925 -12.7881 -12.7838 -12.7792 -12.7709 -12.7549 -12.7326
   -12.7254 -12.6595 -12.6341 -12.6231 -12.6172 -12.6062 -12.5944 -12.5930
   -12.5816 -12.5640 -12.5453 -12.5323 -12.5222 -12.5068 -12.4549 -12.4319
   -12.4091 -12.3636 -12.3179 -12.3164 -12.2949 -12.2709 -12.2684 -12.2587
   -12.2477 -12.2147 -12.2121 -12.2006 -12.1727 -12.1681 -12.1550 -12.1436
   -12.1247 -12.1034 -12.0992 -12.0928 -12.0191 -11.8942 -11.8757 -11.8531
   -11.7573 -11.7524 -11.7489 -11.6210 -11.6088 -11.5901 -11.5627 -11.5049
   -11.4799 -11.4733 -11.4731 -11.4074 -11.3849 -11.3733 -11.3456 -11.3315
   -11.3188 -11.3099 -11.2581 -11.2284 -11.2270 -11.2198 -11.2196 -11.1814
   -11.1278 -11.1124 -11.1065 -11.1020 -11.0916 -11.0851 -11.0513 -11.0305
   -11.0247 -11.0011 -10.9879 -10.9869 -10.9802 -10.9779 -10.9557 -10.9467
   -10.9323 -10.9240 -10.8864 -10.8742 -10.8707 -10.8668 -10.8496 -10.8472
   -10.8416 -10.8336 -10.8232 -10.8196 -10.7953 -10.7880 -10.7455 -10.7317
   -10.6928 -10.6898 -10.6751 -10.6378 -10.6333 -10.6251 -10.6167 -10.6126
   -10.5747 -10.5693 -10.5679 -10.5571 -10.5560 -10.5437 -10.5217 -10.5191
   -10.5089 -10.4953 -10.4918 -10.4811 -10.4756 -10.4702 -10.4630 -10.4624
   -10.4476 -10.4464 -10.4393 -10.4157 -10.4133 -10.4120 -10.4034 -10.3965
   -10.3868 -10.3847 -10.3802 -10.3742 -10.3717 -10.3608 -10.3525 -10.3485
   -10.3421 -10.3271 -10.3254 -10.3038 -10.3035 -10.3029 -10.2902 -10.2873
   -10.2800 -10.2760 -10.2752 -10.2751 -10.2742 -10.2556 -10.2419 -10.2382
   -10.2337 -10.2061 -10.2060 -10.1996 -10.1824 -10.1819 -10.1753 -10.1659
   -10.1579 -10.1529 -10.1464 -10.1173 -10.1143 -10.1064 -10.1062 -10.0941
   -10.0907 -10.0820 -10.0718 -10.0691 -10.0672 -10.0670 -10.0612 -10.0587
   -10.0544 -10.0410 -10.0321 -10.0211 -10.0171 -10.0128 -10.0097  -9.9931
    -9.9880  -9.9798  -9.9544  -9.9470  -9.9324  -9.9323  -9.9271  -9.9051
    -9.9013  -9.8873  -9.7405  -9.7303  -9.6949  -9.6920  -9.6411  -9.6211
    -9.5158  -9.4813  -9.4682  -9.4622  -9.4557  -9.4132  -9.4131  -9.3827
    -9.3811  -9.3672

     the Fermi energy is   -12.2260 ev

!    total energy              =  -21093.94274582 Ry
     Harris-Foulkes estimate   =  -21093.94274591 Ry
     estimated scf accuracy    <          1.7E-11 Ry

     The total energy is the sum of the following terms:

     one-electron contribution = -743837.17138453 Ry
     hartree contribution      =  371450.46544048 Ry
     xc contribution           =   -2234.21603201 Ry
     ewald contribution        =  358401.81769680 Ry
     Dispersion Correction     =      -1.39546860 Ry
     one-center paw contrib.   =   -4873.44650950 Ry
     smearing contrib. (-TS)   =       0.00351153 Ry

     total magnetization       =   161.41 Bohr mag/cell
     absolute magnetization    =   168.31 Bohr mag/cell

     convergence has been achieved in  36 iterations

     negative rho (up, down):  1.163E-02 1.218E-01

     Forces acting on atoms (cartesian axes, Ry/au):

     atom    1 type  1   force =     0.00011567    0.00076516    0.00847718
     atom    2 type  1   force =     0.00268030   -0.00409826   -0.01545149
     atom    3 type  1   force =    -0.00092440   -0.00085074    0.00847927
     atom    4 type  1   force =     0.00080767    0.00134257   -0.00640466
     atom    5 type  1   force =     0.00012576   -0.00000371   -0.00002751
     atom    6 type  1   force =     0.00003045   -0.00004867    0.00005782
     atom    7 type  1   force =    -0.00008366   -0.00001010   -0.00006042
     atom    8 type  1   force =     0.00001677    0.00004109    0.00020043
     atom    9 type  1   force =     0.00009359    0.00005939    0.00772266
     atom   10 type  1   force =    -0.00078278   -0.00057294    0.00816782
     atom   11 type  1   force =     0.00116194   -0.00029036   -0.00762712
     atom   12 type  1   force =     0.00042330    0.00035050   -0.01147941
     atom   13 type  1   force =     0.00000301    0.00002953   -0.00004046
     atom   14 type  1   force =     0.00003731    0.00001835    0.00004978
     atom   15 type  1   force =     0.00012408    0.00017057   -0.00017058
     atom   16 type  1   force =    -0.00001998   -0.00001155    0.00031706
     atom   17 type  1   force =    -0.00111977   -0.00057712    0.00850852
     atom   18 type  1   force =     0.00152856    0.00033723   -0.00637949
     atom   19 type  1   force =     0.00083881    0.00085905    0.00861723
     atom   20 type  1   force =    -0.00134044    0.00163718   -0.00212272
     atom   21 type  1   force =    -0.00003956   -0.00007831   -0.00006063
     atom   22 type  1   force =     0.00004935   -0.00000214    0.00025253
     atom   23 type  1   force =     0.00007486    0.00002749   -0.00005070
     atom   24 type  1   force =    -0.00001545    0.00001583   -0.00000702
     atom   25 type  1   force =     0.00006084   -0.00000258    0.00792844
     atom   26 type  1   force =    -0.00102082    0.00133750    0.00823531
     atom   27 type  1   force =     0.00132277    0.00088795   -0.00211273
     atom   28 type  1   force =     0.00013546   -0.00131507   -0.00666264
     atom   29 type  1   force =    -0.00002125   -0.00000996    0.00001761
     atom   30 type  1   force =     0.00001426   -0.00004840    0.00005157
     atom   31 type  1   force =     0.00004205    0.00002497   -0.00006423
     atom   32 type  1   force =    -0.00014128   -0.00007437   -0.00014236
     atom   33 type  1   force =     0.00007163   -0.00092745    0.00816389
     atom   34 type  1   force =    -0.00066012   -0.00117806   -0.00651768
     atom   35 type  1   force =     0.00077841   -0.00015144    0.00848212
     atom   36 type  1   force =    -0.00302830    0.00397283   -0.01546892
     atom   37 type  1   force =    -0.00012338   -0.00000981   -0.00008603
     atom   38 type  1   force =     0.00003366    0.00003169    0.00029787
     atom   39 type  1   force =     0.00003804    0.00013733   -0.00002876
     atom   40 type  1   force =    -0.00004145    0.00004053    0.00004776
     atom   41 type  1   force =     0.00013633    0.00005486    0.00905641
     atom   42 type  1   force =     0.00091409   -0.00138976    0.00820730
     atom   43 type  1   force =    -0.00080369   -0.00048406   -0.01056609
     atom   44 type  1   force =    -0.00118559    0.00054186   -0.00662189
     atom   45 type  1   force =     0.00000387    0.00000608   -0.00001564
     atom   46 type  1   force =    -0.00004111    0.00003563    0.00004504
     atom   47 type  1   force =    -0.00017725   -0.00010897    0.00005154
     atom   48 type  1   force =    -0.00013081   -0.00011900   -0.00015508
     atom   49 type  1   force =     0.00107108    0.00050916    0.00863061
     atom   50 type  1   force =     0.00115763   -0.00193073   -0.00206893
     atom   51 type  1   force =    -0.00081992    0.00038975    0.00819881
     atom   52 type  1   force =    -0.00133747   -0.00022009   -0.00655997
     atom   53 type  1   force =     0.00005469    0.00006483   -0.00004914
     atom   54 type  1   force =    -0.00000060   -0.00001472   -0.00000643
     atom   55 type  1   force =    -0.00006036   -0.00010617   -0.00009391
     atom   56 type  1   force =     0.00002194    0.00004197    0.00026613
     atom   57 type  1   force =     0.00011965    0.00005250    0.00773077
     atom   58 type  1   force =     0.00070980    0.00048086    0.00827937
     atom   59 type  1   force =     0.00011829    0.00119169   -0.00755923
     atom   60 type  1   force =    -0.00111176   -0.00081564   -0.00202551
     atom   61 type  1   force =     0.00001580    0.00000420   -0.00004889
     atom   62 type  1   force =    -0.00003734   -0.00003029    0.00005801
     atom   63 type  1   force =     0.00019696    0.00007190   -0.00018969
     atom   64 type  1   force =    -0.00003279   -0.00002443   -0.00003528
     atom   65 type  2   force =    -0.00001096   -0.00000079    0.00031297
     atom   66 type  3   force =    -0.00001636   -0.00002631    0.00031324

     Total force =     0.001022     Total SCF correction =     0.000021

     bfgs converged in  15 scf cycles and  11 bfgs steps
     (criteria: energy <  7.3E-07 Ry, force <  3.9E-04 Ry/Bohr)

     End of BFGS Geometry Optimization

     Final energy   =  -21093.9427458235 Ry
Begin final coordinates

ATOMIC_POSITIONS (angstrom)
Fe       1.654912953   1.170200133   0.000000000    0   0   0
Fe       0.000000000   0.000000000   2.026984232    0   0   0
Fe       4.964738858   3.510600399   0.000000000    0   0   0
Fe       3.309825906   2.340400266   2.026984232    0   0   0
Fe       1.679077928   1.168190762   4.031724406
Fe       3.336639466   9.326921754   6.022150439
Fe       4.958653691   3.536300269   4.048852346
Fe       3.395955193   2.333543128   6.036977389
Fe       2.482363858   3.510600399   0.000000000    0   0   0
Fe       4.137287953   1.170200133   0.000000000    0   0   0
Fe       0.827450906   2.340400266   2.026984232    0   0   0
Fe       2.482375000   0.000000000   2.026984232    0   0   0
Fe       2.482629625   3.510036879   4.058456960
Fe       4.160596991   1.187035630   4.038408396
Fe       0.910803844   2.298616170   6.046947783
Fe       2.507300293   0.017919446   6.025097573
Fe       6.619662953   1.170200133   0.000000000    0   0   0
Fe       4.964750000   0.000000000   2.026984232    0   0   0
Fe       9.929488858   3.510600399   0.000000000    0   0   0
Fe       8.274575906   2.340400266   2.026984232    0   0   0
Fe       6.641737333   1.155668585   4.048698678
Fe       4.986833351   0.083819261   6.036979037
Fe       9.934581676   3.483371017   4.045550129
Fe       8.459942316   2.079122401   5.979715933
Fe       7.447113858   3.510600399   0.000000000    0   0   0
Fe       9.102037953   1.170200133   0.000000000    0   0   0
Fe       5.792200906   2.340400266   2.026984232    0   0   0
Fe       7.447125000   0.000000000   2.026984232    0   0   0
Fe       7.446588704   3.509837508   4.063241520
Fe       9.132224388   1.124840676   4.001875953
Fe       5.881536088   2.403122434   6.008583020
Fe      10.775032259   9.269138096   6.049692229
Fe       3.309814764   5.851000664   0.000000000    0   0   0
Fe       1.654901811   4.680800531   2.026984232    0   0   0
Fe       6.619640670   8.191400930   0.000000000    0   0   0
Fe       4.964727717   7.021200797   2.026984232    0   0   0
Fe       3.284739243   5.853229306   4.037819234
Fe      11.499113576   4.676550716   6.034759722
Fe       6.625909697   8.214941513   4.032020505
Fe       4.940979607   7.058169146   6.022025100
Fe       4.137265670   8.191400930   0.000000000    0   0   0
Fe       5.792189764   5.851000664   0.000000000    0   0   0
Fe       2.482352717   7.021200797   2.026984232    0   0   0
Fe       4.137276811   4.680800531   2.026984232    0   0   0
Fe       4.136230767   8.190614928   4.011214113
Fe       5.759450675   5.894635152   4.001956225
Fe      12.374571963   6.994697482   6.038734513
Fe       4.056492011   4.728894157   6.049777510
Fe       8.274564764   5.851000664   0.000000000    0   0   0
Fe       6.619651811   4.680800531   2.026984232    0   0   0
Fe      11.584390670   8.191400930   0.000000000    0   0   0
Fe       9.929477717   7.021200797   2.026984232    0   0   0
Fe       8.250436024   5.864633410   4.045774103
Fe       6.435562026   4.942180849   5.979134157
Fe      11.578310772   8.167003406   4.037652601
Fe       9.896944614   6.942374026   6.034398305
Fe       9.102015670   8.191400930   0.000000000    0   0   0
Fe      10.756939764   5.851000664   0.000000000    0   0   0
Fe       7.447102717   7.021200797   2.026984232    0   0   0
Fe       9.102026811   4.680800531   2.026984232    0   0   0
Fe       9.101665174   8.191926628   4.058395849
Fe      10.731546464   5.833253541   4.038467084
Fe       7.435178221   7.113577342   6.047192707
Fe       9.013971589   4.618024681   6.007081930
N        7.448046995   3.510939705   6.307553222
H        4.594373694   8.514690615   6.971743894
End final coordinates



     Writing output data file Fe_N_H_paper_480c_ESM_pn5.save/

     init_run     :     83.65s CPU     85.28s WALL (       1 calls)
     electrons    : 188634.59s CPU 190211.62s WALL (      15 calls)
     update_pot   :    262.05s CPU    263.38s WALL (      14 calls)
     forces       :    672.07s CPU    679.49s WALL (      15 calls)

     Called by init_run:
     wfcinit      :     58.27s CPU     59.66s WALL (       1 calls)
     potinit      :      7.58s CPU      7.63s WALL (       1 calls)
     hinit0       :     14.78s CPU     14.85s WALL (       1 calls)

     Called by electrons:
     c_bands      : 172517.01s CPU 173881.27s WALL (     588 calls)
     sum_band     :   9325.15s CPU   9470.93s WALL (     588 calls)
     v_of_rho     :    963.03s CPU    967.17s WALL (     590 calls)
     newd         :    178.13s CPU    181.85s WALL (     590 calls)
     PAW_pot      :    277.30s CPU    278.58s WALL (     604 calls)
     mix_rho      :   5121.94s CPU   5173.34s WALL (     588 calls)

     Called by c_bands:
     init_us_2    :    268.77s CPU    279.38s WALL (    3618 calls)
     cegterg      : 132729.47s CPU 133693.69s WALL (    1783 calls)

     Called by sum_band:
     sum_band:bec :     17.08s CPU     17.17s WALL (    1806 calls)
     addusdens    :    219.26s CPU    226.42s WALL (     588 calls)

     Called by *egterg:
     h_psi        :  38418.45s CPU  38740.61s WALL (   21117 calls)
     s_psi        :   8202.45s CPU   8216.03s WALL (   21117 calls)
     g_psi        :     96.82s CPU     97.19s WALL (   19331 calls)
     cdiaghg      :  57100.21s CPU  57330.61s WALL (   21033 calls)

     Called by h_psi:
     h_psi:pot    :  38289.91s CPU  38496.89s WALL (   21117 calls)
     h_psi:calbec :   8276.37s CPU   8291.08s WALL (   21117 calls)
     vloc_psi     :  21800.08s CPU  21979.06s WALL (   21117 calls)
     add_vuspsi   :   8213.23s CPU   8226.63s WALL (   21117 calls)

     General routines
     calbec       :  11844.94s CPU  11868.22s WALL (   23103 calls)
     fft          :    598.84s CPU    602.62s WALL (   14985 calls)
     ffts         :   2573.18s CPU   2591.39s WALL (  314188 calls)
     fftw         :  21465.99s CPU  21643.03s WALL ( 6326232 calls)
     interpolate  :     58.80s CPU     59.32s WALL (    1180 calls)
     davcio       :      3.28s CPU    373.59s WALL (   17145 calls)

     Parallel routines
     fft_scatt_xy :   4618.68s CPU   4644.60s WALL ( 6655405 calls)
     fft_scatt_yz :   6548.51s CPU   6636.64s WALL ( 6655405 calls)

     PWSCF        :   2d 4h43m CPU   2d 5h10m WALL


   This run was terminated on:  21:20:37  20Jun2022            

=------------------------------------------------------------------------------=
   JOB DONE.
=------------------------------------------------------------------------------=
