
     Program PWSCF v.6.4.1 starts on 12Jun2022 at 21: 1:26 

     This program is part of the open-source Quantum ESPRESSO suite
     for quantum simulation of materials; please cite
         "P. Giannozzi et al., J. Phys.:Condens. Matter 21 395502 (2009);
         "P. Giannozzi et al., J. Phys.:Condens. Matter 29 465901 (2017);
          URL http://www.quantum-espresso.org", 
     in publications or presentations arising from this work. More details at
     http://www.quantum-espresso.org/quote

     Parallel version (MPI), running on   160 processors

     MPI processes distributed on     8 nodes
     K-points division:     npool     =       8
     R & G space division:  proc/nbgrp/npool/nimage =      20
     Waiting for input...
     Reading input from standard input
Warning: card &CELL ignored
Warning: card / ignored

     Current dimensions of program PWSCF are:
     Max number of different atomic species (ntypx) = 10
     Max number of k-points (npk) =  40000
     Max angular momentum in pseudopotentials (lmaxx) =  3

     IMPORTANT: XC functional enforced from input :
     Exchange-correlation      = PBE ( 1  4  3  4 0 0)
     Any further DFT definition will be discarded
     Please, verify this is what you really want

               file Fe.pbe-spn-kjpaw_psl.0.2.1.UPF: wavefunction(s)  3D renormalized

     -------------------------------------------------
     Parameters for Dispersion (Grimme-D2) Correction:
     -------------------------------------------------
       atom      VdW radius       C_6     

        Fe         2.952        374.666
        N          2.640         42.670

     Subspace diagonalization in iterative solution of the eigenvalue problem:
     one sub-group per band group will be used
     scalapack distributed-memory algorithm (size of sub-group:  3*  3 procs)


     Parallelization info
     --------------------
     sticks:   dense  smooth     PW     G-vecs:    dense   smooth      PW
     Min         634     317     83               145278    51361    6989
     Max         635     318     84               145287    51370    7000
     Sum       12685    6351   1677              2905599  1027285  139897



     bravais-lattice index     =            0
     lattice parameter (alat)  =      18.7640  a.u.
     unit-cell volume          =   16360.3163 (a.u.)^3
     number of atoms/cell      =           65
     number of atomic types    =            2
     number of electrons       =      1029.00
     number of Kohn-Sham states=          618
     kinetic-energy cutoff     =      60.0000  Ry
     charge density cutoff     =     480.0000  Ry
     convergence threshold     =      1.0E-08
     mixing beta               =       0.2000
     number of iterations used =           10  local-TF  mixing
     Exchange-correlation      = PBE ( 1  4  3  4 0 0)
     nstep                     =           50


     Effective Screening Medium Method
     =================================
     Boundary Conditions: Metal-Slab-Metal
     field strength                   =    -0.01 Ry/a.u.
     grid points for fit at edges     =        4 


     celldm(1)=  18.764036  celldm(2)=   0.000000  celldm(3)=   0.000000
     celldm(4)=   0.000000  celldm(5)=   0.000000  celldm(6)=   0.000000

     crystal axes: (cart. coord. in units of alat)
               a(1) = (   1.000000   0.000000   0.000000 )  
               a(2) = (   0.333330   0.942807   0.000000 )  
               a(3) = (   0.000000   0.000000   2.626577 )  

     reciprocal axes: (cart. coord. in units 2 pi/alat)
               b(1) = (  1.000000 -0.353551  0.000000 )  
               b(2) = (  0.000000  1.060663  0.000000 )  
               b(3) = (  0.000000  0.000000  0.380724 )  


     PseudoPot. # 1 for Fe read from file:
     ../../SSSP/Fe.pbe-spn-kjpaw_psl.0.2.1.UPF
     MD5 check sum: e86618425769142926afa95317d90200
     Pseudo is Projector augmented-wave + core cor, Zval = 16.0
     Generated using "atomic" code by A. Dal Corso v.5.0.99 svn rev. 10869
     Shape of augmentation charge: PSQ
     Using radial grid of 1191 points,  6 beta functions with: 
                l(1) =   0
                l(2) =   0
                l(3) =   1
                l(4) =   1
                l(5) =   2
                l(6) =   2
     Q(r) pseudized with 0 coefficients 


     PseudoPot. # 2 for N  read from file:
     ../../SSSP/N.pbe-n-radius_5.UPF
     MD5 check sum: 16739722b17309cd8fe442a2ace49922
     Pseudo is Ultrasoft + core correction, Zval =  5.0
     Generated using "atomic" code by A. Dal Corso v.5.1
     Using radial grid of 1085 points,  4 beta functions with: 
                l(1) =   0
                l(2) =   0
                l(3) =   1
                l(4) =   1
     Q(r) pseudized with 0 coefficients 


     atomic species   valence    mass     pseudopotential
        Fe            16.00    55.84500     Fe( 1.00)
        N              5.00    14.00700     N ( 1.00)

     Starting magnetic structure 
     atomic species   magnetization
        Fe           0.100
        N            0.100

     No symmetry found



   Cartesian axes

     site n.     atom                  positions (alat units)
         1           Fe  tau(   1) = (   0.1666663   0.1178509   0.0000000  )
         2           Fe  tau(   2) = (   0.0000000   0.0000000   0.2041376  )
         3           Fe  tau(   3) = (   0.4999989   0.3535526   0.0000000  )
         4           Fe  tau(   4) = (   0.3333326   0.2357017   0.2041376  )
         5           Fe  tau(   5) = (   0.1691472   0.1176094   0.4056660  )
         6           Fe  tau(   6) = (   0.3359380   0.9392018   0.6058109  )
         7           Fe  tau(   7) = (   0.4995901   0.3558703   0.4071094  )
         8           Fe  tau(   8) = (   0.3412681   0.2358492   0.6065705  )
         9           Fe  tau(   9) = (   0.2499989   0.3535526   0.0000000  )
        10           Fe  tau(  10) = (   0.4166663   0.1178509   0.0000000  )
        11           Fe  tau(  11) = (   0.0833326   0.2357017   0.2041376  )
        12           Fe  tau(  12) = (   0.2500000   0.0000000   0.2041376  )
        13           Fe  tau(  13) = (   0.2500218   0.3535847   0.4074555  )
        14           Fe  tau(  14) = (   0.4191520   0.1196486   0.4060441  )
        15           Fe  tau(  15) = (   0.0915614   0.2321511   0.6071614  )
        16           Fe  tau(  16) = (   0.2530337   0.0021777   0.6066172  )
        17           Fe  tau(  17) = (   0.6666663   0.1178509   0.0000000  )
        18           Fe  tau(  18) = (   0.5000000   0.0000000   0.2041376  )
        19           Fe  tau(  19) = (   0.9999989   0.3535526   0.0000000  )
        20           Fe  tau(  20) = (   0.8333326   0.2357017   0.2041376  )
        21           Fe  tau(  21) = (   0.6686653   0.1166981   0.4070740  )
        22           Fe  tau(  22) = (   0.5027470   0.0075037   0.6066117  )
        23           Fe  tau(  23) = (   1.0004776   0.3513212   0.4070776  )
        24           Fe  tau(  24) = (   0.8513672   0.2102859   0.6020526  )
        25           Fe  tau(  25) = (   0.7499989   0.3535526   0.0000000  )
        26           Fe  tau(  26) = (   0.9166663   0.1178509   0.0000000  )
        27           Fe  tau(  27) = (   0.5833326   0.2357017   0.2041376  )
        28           Fe  tau(  28) = (   0.7500000   0.0000000   0.2041376  )
        29           Fe  tau(  29) = (   0.7500413   0.3535585   0.4083588  )
        30           Fe  tau(  30) = (   0.9196400   0.1137006   0.4025538  )
        31           Fe  tau(  31) = (   0.5921530   0.2419357   0.6052781  )
        32           Fe  tau(  32) = (   1.0840202   0.9339265   0.6071563  )
        33           Fe  tau(  33) = (   0.3333315   0.5892543   0.0000000  )
        34           Fe  tau(  34) = (   0.1666652   0.4714034   0.2041376  )
        35           Fe  tau(  35) = (   0.6666640   0.8249560   0.0000000  )
        36           Fe  tau(  36) = (   0.4999978   0.7071052   0.2041376  )
        37           Fe  tau(  37) = (   0.3308935   0.5895421   0.4056869  )
        38           Fe  tau(  38) = (   1.1587770   0.4713705   0.6066133  )
        39           Fe  tau(  39) = (   0.6672561   0.8273892   0.4056891  )
        40           Fe  tau(  40) = (   0.4974300   0.7108097   0.6059109  )
        41           Fe  tau(  41) = (   0.4166640   0.8249560   0.0000000  )
        42           Fe  tau(  42) = (   0.5833315   0.5892543   0.0000000  )
        43           Fe  tau(  43) = (   0.2499978   0.7071052   0.2041376  )
        44           Fe  tau(  44) = (   0.4166652   0.4714034   0.2041376  )
        45           Fe  tau(  45) = (   0.4166844   0.8249818   0.4044816  )
        46           Fe  tau(  46) = (   0.5803843   0.5934793   0.4025899  )
        47           Fe  tau(  47) = (   1.2470077   0.7050318   0.6066043  )
        48           Fe  tau(  48) = (   0.4085172   0.4750834   0.6072198  )
        49           Fe  tau(  49) = (   0.8333315   0.5892543   0.0000000  )
        50           Fe  tau(  50) = (   0.6666652   0.4714034   0.2041376  )
        51           Fe  tau(  51) = (   1.1666640   0.8249560   0.0000000  )
        52           Fe  tau(  52) = (   0.9999978   0.7071052   0.2041376  )
        53           Fe  tau(  53) = (   0.8313389   0.5904534   0.4071156  )
        54           Fe  tau(  54) = (   0.6487233   0.4968744   0.6020552  )
        55           Fe  tau(  55) = (   1.1661158   0.8225743   0.4056597  )
        56           Fe  tau(  56) = (   0.9972943   0.6997385   0.6065670  )
        57           Fe  tau(  57) = (   0.9166640   0.8249560   0.0000000  )
        58           Fe  tau(  58) = (   1.0833315   0.5892543   0.0000000  )
        59           Fe  tau(  59) = (   0.7499978   0.7071052   0.2041376  )
        60           Fe  tau(  60) = (   0.9166652   0.4714034   0.2041376  )
        61           Fe  tau(  61) = (   0.9166776   0.8249875   0.4074566  )
        62           Fe  tau(  62) = (   1.0808628   0.5875460   0.4060466  )
        63           Fe  tau(  63) = (   0.7493230   0.7160881   0.6072274  )
        64           Fe  tau(  64) = (   0.9079495   0.4652294   0.6052882  )
        65           N   tau(  65) = (   0.7500494   0.3535840   0.6399018  )

     number of k points=    10  Methfessel-Paxton smearing, width (Ry)=  0.0100
                       cart. coord. in units 2pi/alat
        k(    1) = (   0.0000000   0.0000000   0.0000000), wk =   0.0625000
        k(    2) = (   0.0000000   0.2651656   0.0000000), wk =   0.1250000
        k(    3) = (   0.0000000  -0.5303313   0.0000000), wk =   0.0625000
        k(    4) = (   0.2500000  -0.0883878   0.0000000), wk =   0.1250000
        k(    5) = (   0.2500000   0.1767779   0.0000000), wk =   0.1250000
        k(    6) = (   0.2500000  -0.6187190   0.0000000), wk =   0.1250000
        k(    7) = (   0.2500000  -0.3535534   0.0000000), wk =   0.1250000
        k(    8) = (  -0.5000000   0.1767755   0.0000000), wk =   0.0625000
        k(    9) = (  -0.5000000   0.4419412   0.0000000), wk =   0.1250000
        k(   10) = (  -0.5000000  -0.3535558   0.0000000), wk =   0.0625000

     Dense  grid:  2905599 G-vectors     FFT dimensions: ( 135, 135, 360)

     Smooth grid:  1027285 G-vectors     FFT dimensions: (  96,  96, 243)

     Estimated max dynamical RAM per process >       1.00 GB

     Estimated total dynamical RAM >     160.27 GB
     Generating pointlists ...
     new r_m :   0.0741 (alat units)  1.3896 (a.u.) for type    1
     new r_m :   0.0741 (alat units)  1.3896 (a.u.) for type    2

     Check: negative core charge=   -0.000039

     Initial potential from superposition of free atoms

     starting charge 1028.97194, renormalised to 1029.00000

     negative rho (up, down):  2.480E-02 2.555E-03
     Starting wfcs are  836 randomized atomic wfcs
     Checking if some PAW data can be deallocated... 

     total cpu time spent up to now is       87.0 secs

     Self-consistent Calculation

     iteration #  1     ecut=    60.00 Ry     beta= 0.20
     Davidson diagonalization with overlap
     ethr =  1.00E-04,  avg # of iterations = 18.6

     negative rho (up, down):  1.315E-02 3.563E-03

     total cpu time spent up to now is     1094.0 secs

     total energy              =  -21087.66311906 Ry
     Harris-Foulkes estimate   =  -21094.31345486 Ry
     estimated scf accuracy    <     324.90689102 Ry

     total magnetization       =   107.80 Bohr mag/cell
     absolute magnetization    =   108.64 Bohr mag/cell

     iteration #  2     ecut=    60.00 Ry     beta= 0.20
     Davidson diagonalization with overlap
     ethr =  1.00E-02,  avg # of iterations =  1.0

     negative rho (up, down):  1.010E-02 3.952E-02

     total cpu time spent up to now is     1229.2 secs

     total energy              =  -21091.29399601 Ry
     Harris-Foulkes estimate   =  -21093.70698892 Ry
     estimated scf accuracy    <     128.11662091 Ry

     total magnetization       =   109.58 Bohr mag/cell
     absolute magnetization    =   110.46 Bohr mag/cell

     iteration #  3     ecut=    60.00 Ry     beta= 0.20
     Davidson diagonalization with overlap
     ethr =  1.00E-02,  avg # of iterations =  1.0

     negative rho (up, down):  5.219E-03 1.715E-02

     total cpu time spent up to now is     1363.6 secs

     total energy              =  -21092.45780418 Ry
     Harris-Foulkes estimate   =  -21092.55487403 Ry
     estimated scf accuracy    <       8.78330117 Ry

     total magnetization       =   132.55 Bohr mag/cell
     absolute magnetization    =   132.97 Bohr mag/cell

     iteration #  4     ecut=    60.00 Ry     beta= 0.20
     Davidson diagonalization with overlap
     ethr =  8.54E-04,  avg # of iterations =  1.0

     negative rho (up, down):  3.355E-03 2.518E-02

     total cpu time spent up to now is     1495.6 secs

     total energy              =  -21092.49388547 Ry
     Harris-Foulkes estimate   =  -21092.54657439 Ry
     estimated scf accuracy    <      13.40211286 Ry

     total magnetization       =   139.45 Bohr mag/cell
     absolute magnetization    =   139.96 Bohr mag/cell

     iteration #  5     ecut=    60.00 Ry     beta= 0.20
     Davidson diagonalization with overlap
     ethr =  8.54E-04,  avg # of iterations =  1.0

     negative rho (up, down):  1.811E-02 1.967E-01

     total cpu time spent up to now is     1627.7 secs

     total energy              =  -21090.73914190 Ry
     Harris-Foulkes estimate   =  -21092.52909018 Ry
     estimated scf accuracy    <      13.92347462 Ry

     total magnetization       =   142.94 Bohr mag/cell
     absolute magnetization    =   143.56 Bohr mag/cell

     iteration #  6     ecut=    60.00 Ry     beta= 0.20
     Davidson diagonalization with overlap
     ethr =  8.54E-04,  avg # of iterations =  6.8

     negative rho (up, down):  4.349E-03 1.193E-01

     total cpu time spent up to now is     1859.2 secs

     total energy              =  -21091.99224490 Ry
     Harris-Foulkes estimate   =  -21091.81882317 Ry
     estimated scf accuracy    <       2.76063937 Ry

     total magnetization       =   156.47 Bohr mag/cell
     absolute magnetization    =   160.23 Bohr mag/cell

     iteration #  7     ecut=    60.00 Ry     beta= 0.20
     Davidson diagonalization with overlap
     ethr =  2.68E-04,  avg # of iterations =  8.3

     negative rho (up, down):  1.106E-03 6.219E-02

     total cpu time spent up to now is     2172.6 secs

     total energy              =  -21092.36791442 Ry
     Harris-Foulkes estimate   =  -21092.34283125 Ry
     estimated scf accuracy    <       0.55387726 Ry

     total magnetization       =   151.62 Bohr mag/cell
     absolute magnetization    =   155.15 Bohr mag/cell

     iteration #  8     ecut=    60.00 Ry     beta= 0.20
     Davidson diagonalization with overlap
     c_bands:  2 eigenvalues not converged
     c_bands:  2 eigenvalues not converged
     ethr =  5.38E-05,  avg # of iterations = 17.1

     negative rho (up, down):  2.585E-04 2.053E-02

     total cpu time spent up to now is     3037.6 secs

     total energy              =  -21092.58338438 Ry
     Harris-Foulkes estimate   =  -21092.63465867 Ry
     estimated scf accuracy    <       0.48322168 Ry

     total magnetization       =   151.15 Bohr mag/cell
     absolute magnetization    =   156.15 Bohr mag/cell

     iteration #  9     ecut=    60.00 Ry     beta= 0.20
     Davidson diagonalization with overlap
     c_bands:  1 eigenvalues not converged
     ethr =  4.70E-05,  avg # of iterations =  4.2

     negative rho (up, down):  1.811E-04 2.690E-02

     total cpu time spent up to now is     3266.3 secs

     total energy              =  -21092.59644037 Ry
     Harris-Foulkes estimate   =  -21092.60498620 Ry
     estimated scf accuracy    <       0.36514319 Ry

     total magnetization       =   151.13 Bohr mag/cell
     absolute magnetization    =   155.83 Bohr mag/cell

     iteration # 10     ecut=    60.00 Ry     beta= 0.20
     Davidson diagonalization with overlap
     ethr =  3.55E-05,  avg # of iterations =  4.2

     negative rho (up, down):  2.936E-04 2.495E-02

     total cpu time spent up to now is     3431.7 secs

     total energy              =  -21092.58901239 Ry
     Harris-Foulkes estimate   =  -21092.61638088 Ry
     estimated scf accuracy    <       0.35276855 Ry

     total magnetization       =   154.29 Bohr mag/cell
     absolute magnetization    =   158.93 Bohr mag/cell

     iteration # 11     ecut=    60.00 Ry     beta= 0.20
     Davidson diagonalization with overlap
     ethr =  3.43E-05,  avg # of iterations =  2.9

     negative rho (up, down):  1.489E-04 2.719E-02

     total cpu time spent up to now is     3601.2 secs

     total energy              =  -21092.60817485 Ry
     Harris-Foulkes estimate   =  -21092.61728124 Ry
     estimated scf accuracy    <       0.19985187 Ry

     total magnetization       =   158.10 Bohr mag/cell
     absolute magnetization    =   162.96 Bohr mag/cell

     iteration # 12     ecut=    60.00 Ry     beta= 0.20
     Davidson diagonalization with overlap
     ethr =  1.94E-05,  avg # of iterations =  5.8

     negative rho (up, down):  8.452E-05 2.207E-02

     total cpu time spent up to now is     3816.5 secs

     total energy              =  -21092.60415175 Ry
     Harris-Foulkes estimate   =  -21092.61661312 Ry
     estimated scf accuracy    <       0.19283150 Ry

     total magnetization       =   158.48 Bohr mag/cell
     absolute magnetization    =   163.49 Bohr mag/cell

     iteration # 13     ecut=    60.00 Ry     beta= 0.20
     Davidson diagonalization with overlap
     ethr =  1.87E-05,  avg # of iterations = 12.0

     negative rho (up, down):  3.877E-05 2.048E-02

     total cpu time spent up to now is     4402.8 secs

     total energy              =  -21092.61602234 Ry
     Harris-Foulkes estimate   =  -21092.62512942 Ry
     estimated scf accuracy    <       0.11217014 Ry

     total magnetization       =   159.53 Bohr mag/cell
     absolute magnetization    =   164.80 Bohr mag/cell

     iteration # 14     ecut=    60.00 Ry     beta= 0.20
     Davidson diagonalization with overlap
     c_bands:  3 eigenvalues not converged
     c_bands:  2 eigenvalues not converged
     ethr =  1.09E-05,  avg # of iterations = 14.3

     negative rho (up, down):  4.337E-04 2.505E-02

     total cpu time spent up to now is     5059.4 secs

     total energy              =  -21092.62972552 Ry
     Harris-Foulkes estimate   =  -21092.63508731 Ry
     estimated scf accuracy    <       0.09817719 Ry

     total magnetization       =   158.74 Bohr mag/cell
     absolute magnetization    =   163.99 Bohr mag/cell

     iteration # 15     ecut=    60.00 Ry     beta= 0.20
     Davidson diagonalization with overlap
     ethr =  9.54E-06,  avg # of iterations =  7.8

     negative rho (up, down):  1.137E-01 2.809E-02

     total cpu time spent up to now is     5327.0 secs

     total energy              =  -21092.62493696 Ry
     Harris-Foulkes estimate   =  -21092.63361958 Ry
     estimated scf accuracy    <       0.07656422 Ry

     total magnetization       =   159.49 Bohr mag/cell
     absolute magnetization    =   164.76 Bohr mag/cell

     iteration # 16     ecut=    60.00 Ry     beta= 0.20
     Davidson diagonalization with overlap
     ethr =  7.44E-06,  avg # of iterations = 11.2

     negative rho (up, down):  1.255E-01 2.058E-02

     total cpu time spent up to now is     6016.3 secs

     total energy              =  -21092.63209946 Ry
     Harris-Foulkes estimate   =  -21092.63821986 Ry
     estimated scf accuracy    <       0.06034497 Ry

     total magnetization       =   161.28 Bohr mag/cell
     absolute magnetization    =   167.08 Bohr mag/cell

     iteration # 17     ecut=    60.00 Ry     beta= 0.20
     Davidson diagonalization with overlap
     c_bands:  1 eigenvalues not converged
     ethr =  5.86E-06,  avg # of iterations =  7.8

     negative rho (up, down):  1.611E-01 1.878E-02

     total cpu time spent up to now is     6317.6 secs

     total energy              =  -21092.62407321 Ry
     Harris-Foulkes estimate   =  -21092.63424767 Ry
     estimated scf accuracy    <       0.05905260 Ry

     total magnetization       =   161.40 Bohr mag/cell
     absolute magnetization    =   167.25 Bohr mag/cell

     iteration # 18     ecut=    60.00 Ry     beta= 0.20
     Davidson diagonalization with overlap
     ethr =  5.74E-06,  avg # of iterations =  5.7

     negative rho (up, down):  2.171E-01 1.854E-02

     total cpu time spent up to now is     6639.8 secs

     total energy              =  -21092.59743019 Ry
     Harris-Foulkes estimate   =  -21092.62560540 Ry
     estimated scf accuracy    <       0.05854341 Ry

     total magnetization       =   161.36 Bohr mag/cell
     absolute magnetization    =   167.25 Bohr mag/cell

     iteration # 19     ecut=    60.00 Ry     beta= 0.20
     Davidson diagonalization with overlap
     ethr =  5.69E-06,  avg # of iterations =  9.8

     negative rho (up, down):  2.015E-01 1.699E-02

     total cpu time spent up to now is     7061.1 secs

     total energy              =  -21092.59348963 Ry
     Harris-Foulkes estimate   =  -21092.60290290 Ry
     estimated scf accuracy    <       0.01861465 Ry

     total magnetization       =   160.88 Bohr mag/cell
     absolute magnetization    =   166.92 Bohr mag/cell

     iteration # 20     ecut=    60.00 Ry     beta= 0.20
     Davidson diagonalization with overlap
     c_bands:  1 eigenvalues not converged
     c_bands:  5 eigenvalues not converged
     ethr =  1.81E-06,  avg # of iterations = 35.8

     negative rho (up, down):  1.799E-01 1.602E-02

     total cpu time spent up to now is     8859.0 secs

     total energy              =  -21092.59990436 Ry
     Harris-Foulkes estimate   =  -21092.60226068 Ry
     estimated scf accuracy    <       0.02169383 Ry

     total magnetization       =   160.84 Bohr mag/cell
     absolute magnetization    =   167.37 Bohr mag/cell

     iteration # 21     ecut=    60.00 Ry     beta= 0.20
     Davidson diagonalization with overlap
     c_bands:  4 eigenvalues not converged
     ethr =  1.81E-06,  avg # of iterations = 16.9

     negative rho (up, down):  1.247E-01 1.690E-02

     total cpu time spent up to now is     9446.7 secs

     total energy              =  -21092.57998080 Ry
     Harris-Foulkes estimate   =  -21092.60040001 Ry
     estimated scf accuracy    <       0.01764004 Ry

     total magnetization       =   160.72 Bohr mag/cell
     absolute magnetization    =   167.24 Bohr mag/cell

     iteration # 22     ecut=    60.00 Ry     beta= 0.20
     Davidson diagonalization with overlap
     c_bands:  3 eigenvalues not converged
     ethr =  1.71E-06,  avg # of iterations = 14.6

     negative rho (up, down):  9.799E-02 1.995E-02

     total cpu time spent up to now is    10021.7 secs

     total energy              =  -21092.54587949 Ry
     Harris-Foulkes estimate   =  -21092.58107379 Ry
     estimated scf accuracy    <       0.00933271 Ry

     total magnetization       =   160.33 Bohr mag/cell
     absolute magnetization    =   166.90 Bohr mag/cell

     iteration # 23     ecut=    60.00 Ry     beta= 0.20
     Davidson diagonalization with overlap
     c_bands:  4 eigenvalues not converged
     ethr =  9.07E-07,  avg # of iterations = 17.8

     negative rho (up, down):  9.778E-02 1.899E-02

     total cpu time spent up to now is    11269.1 secs

     total energy              =  -21092.54985021 Ry
     Harris-Foulkes estimate   =  -21092.55025477 Ry
     estimated scf accuracy    <       0.01586791 Ry

     total magnetization       =   160.51 Bohr mag/cell
     absolute magnetization    =   167.50 Bohr mag/cell

     iteration # 24     ecut=    60.00 Ry     beta= 0.20
     Davidson diagonalization with overlap
     c_bands:  3 eigenvalues not converged
     ethr =  9.07E-07,  avg # of iterations =  9.2

     negative rho (up, down):  9.137E-02 1.840E-02

     total cpu time spent up to now is    11565.5 secs

     total energy              =  -21092.54667142 Ry
     Harris-Foulkes estimate   =  -21092.55010770 Ry
     estimated scf accuracy    <       0.01362724 Ry

     total magnetization       =   160.67 Bohr mag/cell
     absolute magnetization    =   167.64 Bohr mag/cell

     iteration # 25     ecut=    60.00 Ry     beta= 0.20
     Davidson diagonalization with overlap
     c_bands:  3 eigenvalues not converged
     ethr =  9.07E-07,  avg # of iterations = 10.9

     negative rho (up, down):  7.173E-02 2.289E-02

     total cpu time spent up to now is    12042.9 secs

     total energy              =  -21092.54636015 Ry
     Harris-Foulkes estimate   =  -21092.54706385 Ry
     estimated scf accuracy    <       0.00668877 Ry

     total magnetization       =   160.74 Bohr mag/cell
     absolute magnetization    =   167.69 Bohr mag/cell

     iteration # 26     ecut=    60.00 Ry     beta= 0.20
     Davidson diagonalization with overlap
     c_bands:  3 eigenvalues not converged
     ethr =  6.50E-07,  avg # of iterations = 12.8

     negative rho (up, down):  6.378E-02 2.023E-02

     total cpu time spent up to now is    12868.3 secs

     total energy              =  -21092.54782401 Ry
     Harris-Foulkes estimate   =  -21092.55030148 Ry
     estimated scf accuracy    <       0.00627755 Ry

     total magnetization       =   161.00 Bohr mag/cell
     absolute magnetization    =   167.81 Bohr mag/cell

     iteration # 27     ecut=    60.00 Ry     beta= 0.20
     Davidson diagonalization with overlap
     c_bands:  2 eigenvalues not converged
     ethr =  6.10E-07,  avg # of iterations =  7.8

     negative rho (up, down):  3.521E-02 2.090E-02

     total cpu time spent up to now is    13201.9 secs

     total energy              =  -21092.55001781 Ry
     Harris-Foulkes estimate   =  -21092.54843851 Ry
     estimated scf accuracy    <       0.00163752 Ry

     total magnetization       =   160.86 Bohr mag/cell
     absolute magnetization    =   167.71 Bohr mag/cell

     iteration # 28     ecut=    60.00 Ry     beta= 0.20
     Davidson diagonalization with overlap
     c_bands:  1 eigenvalues not converged
     ethr =  1.59E-07,  avg # of iterations = 10.8

     negative rho (up, down):  3.462E-02 1.953E-02

     total cpu time spent up to now is    14160.9 secs

     total energy              =  -21092.55082693 Ry
     Harris-Foulkes estimate   =  -21092.55100598 Ry
     estimated scf accuracy    <       0.00136708 Ry

     total magnetization       =   160.78 Bohr mag/cell
     absolute magnetization    =   167.61 Bohr mag/cell

     iteration # 29     ecut=    60.00 Ry     beta= 0.20
     Davidson diagonalization with overlap
     ethr =  1.33E-07,  avg # of iterations =  7.5

     negative rho (up, down):  3.080E-02 1.892E-02

     total cpu time spent up to now is    14460.6 secs

     total energy              =  -21092.55215454 Ry
     Harris-Foulkes estimate   =  -21092.55092335 Ry
     estimated scf accuracy    <       0.00046525 Ry

     total magnetization       =   160.78 Bohr mag/cell
     absolute magnetization    =   167.59 Bohr mag/cell

     iteration # 30     ecut=    60.00 Ry     beta= 0.20
     Davidson diagonalization with overlap
     ethr =  4.52E-08,  avg # of iterations =  9.2

     negative rho (up, down):  2.867E-02 1.869E-02

     total cpu time spent up to now is    14995.0 secs

     total energy              =  -21092.55331769 Ry
     Harris-Foulkes estimate   =  -21092.55229000 Ry
     estimated scf accuracy    <       0.00016325 Ry

     total magnetization       =   160.80 Bohr mag/cell
     absolute magnetization    =   167.58 Bohr mag/cell

     iteration # 31     ecut=    60.00 Ry     beta= 0.20
     Davidson diagonalization with overlap
     ethr =  1.59E-08,  avg # of iterations = 12.6

     negative rho (up, down):  2.644E-02 1.870E-02

     total cpu time spent up to now is    15646.2 secs

     total energy              =  -21092.55502908 Ry
     Harris-Foulkes estimate   =  -21092.55336165 Ry
     estimated scf accuracy    <       0.00012197 Ry

     total magnetization       =   160.80 Bohr mag/cell
     absolute magnetization    =   167.59 Bohr mag/cell

     iteration # 32     ecut=    60.00 Ry     beta= 0.20
     Davidson diagonalization with overlap
     ethr =  1.19E-08,  avg # of iterations =  5.7

     negative rho (up, down):  2.429E-02 1.876E-02

     total cpu time spent up to now is    15878.3 secs

     total energy              =  -21092.55804048 Ry
     Harris-Foulkes estimate   =  -21092.55503637 Ry
     estimated scf accuracy    <       0.00009225 Ry

     total magnetization       =   160.80 Bohr mag/cell
     absolute magnetization    =   167.59 Bohr mag/cell

     iteration # 33     ecut=    60.00 Ry     beta= 0.20
     Davidson diagonalization with overlap
     ethr =  8.97E-09,  avg # of iterations =  5.5

     negative rho (up, down):  2.387E-02 1.883E-02

     total cpu time spent up to now is    16116.7 secs

     total energy              =  -21092.55869691 Ry
     Harris-Foulkes estimate   =  -21092.55804595 Ry
     estimated scf accuracy    <       0.00005020 Ry

     total magnetization       =   160.82 Bohr mag/cell
     absolute magnetization    =   167.61 Bohr mag/cell

     iteration # 34     ecut=    60.00 Ry     beta= 0.20
     Davidson diagonalization with overlap
     ethr =  4.88E-09,  avg # of iterations = 12.1

     negative rho (up, down):  2.393E-02 1.884E-02

     total cpu time spent up to now is    16878.5 secs

     total energy              =  -21092.55837970 Ry
     Harris-Foulkes estimate   =  -21092.55872290 Ry
     estimated scf accuracy    <       0.00002008 Ry

     total magnetization       =   160.83 Bohr mag/cell
     absolute magnetization    =   167.63 Bohr mag/cell

     iteration # 35     ecut=    60.00 Ry     beta= 0.20
     Davidson diagonalization with overlap
     ethr =  1.95E-09,  avg # of iterations =  8.9

     negative rho (up, down):  2.431E-02 1.892E-02

     total cpu time spent up to now is    17344.0 secs

     total energy              =  -21092.55810160 Ry
     Harris-Foulkes estimate   =  -21092.55838469 Ry
     estimated scf accuracy    <       0.00001268 Ry

     total magnetization       =   160.83 Bohr mag/cell
     absolute magnetization    =   167.63 Bohr mag/cell

     iteration # 36     ecut=    60.00 Ry     beta= 0.20
     Davidson diagonalization with overlap
     c_bands:  3 eigenvalues not converged
     ethr =  1.23E-09,  avg # of iterations = 10.9

     negative rho (up, down):  2.503E-02 1.905E-02

     total cpu time spent up to now is    18251.8 secs

     total energy              =  -21092.55838370 Ry
     Harris-Foulkes estimate   =  -21092.55810857 Ry
     estimated scf accuracy    <       0.00003195 Ry

     total magnetization       =   160.83 Bohr mag/cell
     absolute magnetization    =   167.65 Bohr mag/cell

     iteration # 37     ecut=    60.00 Ry     beta= 0.20
     Davidson diagonalization with overlap
     c_bands:  1 eigenvalues not converged
     ethr =  1.23E-09,  avg # of iterations = 10.8

     negative rho (up, down):  2.501E-02 1.904E-02

     total cpu time spent up to now is    18934.8 secs

     total energy              =  -21092.55831871 Ry
     Harris-Foulkes estimate   =  -21092.55839756 Ry
     estimated scf accuracy    <       0.00001134 Ry

     total magnetization       =   160.86 Bohr mag/cell
     absolute magnetization    =   167.67 Bohr mag/cell

     iteration # 38     ecut=    60.00 Ry     beta= 0.20
     Davidson diagonalization with overlap
     c_bands:  1 eigenvalues not converged
     ethr =  1.10E-09,  avg # of iterations =  5.3

     negative rho (up, down):  2.497E-02 1.906E-02

     total cpu time spent up to now is    19279.1 secs

     total energy              =  -21092.55832867 Ry
     Harris-Foulkes estimate   =  -21092.55832121 Ry
     estimated scf accuracy    <       0.00000086 Ry

     total magnetization       =   160.85 Bohr mag/cell
     absolute magnetization    =   167.68 Bohr mag/cell

     iteration # 39     ecut=    60.00 Ry     beta= 0.20
     Davidson diagonalization with overlap
     c_bands:  2 eigenvalues not converged
     c_bands:  5 eigenvalues not converged
     ethr =  8.33E-11,  avg # of iterations = 14.6

     negative rho (up, down):  2.497E-02 1.906E-02

     total cpu time spent up to now is    20304.1 secs

     total energy              =  -21092.55837688 Ry
     Harris-Foulkes estimate   =  -21092.55832983 Ry
     estimated scf accuracy    <       0.00000190 Ry

     total magnetization       =   160.86 Bohr mag/cell
     absolute magnetization    =   167.68 Bohr mag/cell

     iteration # 40     ecut=    60.00 Ry     beta= 0.20
     Davidson diagonalization with overlap
     c_bands:  1 eigenvalues not converged
     c_bands:  1 eigenvalues not converged
     ethr =  8.33E-11,  avg # of iterations = 11.8

     negative rho (up, down):  2.500E-02 1.910E-02

     total cpu time spent up to now is    21199.3 secs

     total energy              =  -21092.55837666 Ry
     Harris-Foulkes estimate   =  -21092.55837730 Ry
     estimated scf accuracy    <       0.00000031 Ry

     total magnetization       =   160.86 Bohr mag/cell
     absolute magnetization    =   167.68 Bohr mag/cell

     iteration # 41     ecut=    60.00 Ry     beta= 0.20
     Davidson diagonalization with overlap
     c_bands:  1 eigenvalues not converged
     ethr =  3.03E-11,  avg # of iterations = 11.4

     negative rho (up, down):  2.502E-02 1.914E-02

     total cpu time spent up to now is    21766.9 secs

     total energy              =  -21092.55828657 Ry
     Harris-Foulkes estimate   =  -21092.55837673 Ry
     estimated scf accuracy    <       0.00000036 Ry

     total magnetization       =   160.86 Bohr mag/cell
     absolute magnetization    =   167.68 Bohr mag/cell

     iteration # 42     ecut=    60.00 Ry     beta= 0.20
     Davidson diagonalization with overlap
     ethr =  3.03E-11,  avg # of iterations =  6.8

     negative rho (up, down):  2.503E-02 1.915E-02

     total cpu time spent up to now is    21994.1 secs

     total energy              =  -21092.55825142 Ry
     Harris-Foulkes estimate   =  -21092.55828657 Ry
     estimated scf accuracy    <       0.00000017 Ry

     total magnetization       =   160.86 Bohr mag/cell
     absolute magnetization    =   167.68 Bohr mag/cell

     iteration # 43     ecut=    60.00 Ry     beta= 0.20
     Davidson diagonalization with overlap
     ethr =  1.65E-11,  avg # of iterations =  8.6

     negative rho (up, down):  2.504E-02 1.914E-02

     total cpu time spent up to now is    22482.9 secs

     total energy              =  -21092.55823137 Ry
     Harris-Foulkes estimate   =  -21092.55825143 Ry
     estimated scf accuracy    <       0.00000003 Ry

     total magnetization       =   160.86 Bohr mag/cell
     absolute magnetization    =   167.68 Bohr mag/cell

     iteration # 44     ecut=    60.00 Ry     beta= 0.20
     Davidson diagonalization with overlap
     ethr =  3.29E-12,  avg # of iterations = 12.4

     negative rho (up, down):  2.505E-02 1.915E-02

     total cpu time spent up to now is    23260.4 secs

     total energy              =  -21092.55821605 Ry
     Harris-Foulkes estimate   =  -21092.55823137 Ry
     estimated scf accuracy    <       0.00000001 Ry

     total magnetization       =   160.86 Bohr mag/cell
     absolute magnetization    =   167.68 Bohr mag/cell

     iteration # 45     ecut=    60.00 Ry     beta= 0.20
     Davidson diagonalization with overlap
     ethr =  1.09E-12,  avg # of iterations =  9.9

     negative rho (up, down):  2.504E-02 1.915E-02

     Magnetic moment per site:
     atom:    1    charge:   12.6165    magn:    2.3624    constr:    0.0000
     atom:    2    charge:   12.6074    magn:    2.1748    constr:    0.0000
     atom:    3    charge:   12.6160    magn:    2.3651    constr:    0.0000
     atom:    4    charge:   12.6055    magn:    2.2096    constr:    0.0000
     atom:    5    charge:   12.6097    magn:    2.1959    constr:    0.0000
     atom:    6    charge:   12.6133    magn:    2.3586    constr:    0.0000
     atom:    7    charge:   12.6059    magn:    2.2630    constr:    0.0000
     atom:    8    charge:   12.6169    magn:    2.3560    constr:    0.0000
     atom:    9    charge:   12.6165    magn:    2.3585    constr:    0.0000
     atom:   10    charge:   12.6164    magn:    2.3611    constr:    0.0000
     atom:   11    charge:   12.6060    magn:    2.2129    constr:    0.0000
     atom:   12    charge:   12.6065    magn:    2.2017    constr:    0.0000
     atom:   13    charge:   12.6063    magn:    2.2068    constr:    0.0000
     atom:   14    charge:   12.6104    magn:    2.1901    constr:    0.0000
     atom:   15    charge:   12.6196    magn:    2.3356    constr:    0.0000
     atom:   16    charge:   12.6189    magn:    2.3280    constr:    0.0000
     atom:   17    charge:   12.6158    magn:    2.3651    constr:    0.0000
     atom:   18    charge:   12.6055    magn:    2.2097    constr:    0.0000
     atom:   19    charge:   12.6158    magn:    2.3651    constr:    0.0000
     atom:   20    charge:   12.6053    magn:    2.2237    constr:    0.0000
     atom:   21    charge:   12.6062    magn:    2.2628    constr:    0.0000
     atom:   22    charge:   12.6167    magn:    2.3562    constr:    0.0000
     atom:   23    charge:   12.6062    magn:    2.2628    constr:    0.0000
     atom:   24    charge:   12.6266    magn:    1.6272    constr:    0.0000
     atom:   25    charge:   12.6158    magn:    2.3646    constr:    0.0000
     atom:   26    charge:   12.6157    magn:    2.3681    constr:    0.0000
     atom:   27    charge:   12.6053    magn:    2.2350    constr:    0.0000
     atom:   28    charge:   12.6060    magn:    2.2128    constr:    0.0000
     atom:   29    charge:   12.6071    magn:    2.2887    constr:    0.0000
     atom:   30    charge:   12.6112    magn:    2.0857    constr:    0.0000
     atom:   31    charge:   12.6125    magn:    2.1483    constr:    0.0000
     atom:   32    charge:   12.6196    magn:    2.3355    constr:    0.0000
     atom:   33    charge:   12.6164    magn:    2.3624    constr:    0.0000
     atom:   34    charge:   12.6055    magn:    2.2097    constr:    0.0000
     atom:   35    charge:   12.6164    magn:    2.3624    constr:    0.0000
     atom:   36    charge:   12.6078    magn:    2.1750    constr:    0.0000
     atom:   37    charge:   12.6097    magn:    2.1959    constr:    0.0000
     atom:   38    charge:   12.6167    magn:    2.3562    constr:    0.0000
     atom:   39    charge:   12.6097    magn:    2.1959    constr:    0.0000
     atom:   40    charge:   12.6127    magn:    2.3590    constr:    0.0000
     atom:   41    charge:   12.6169    magn:    2.3662    constr:    0.0000
     atom:   42    charge:   12.6162    magn:    2.3682    constr:    0.0000
     atom:   43    charge:   12.6065    magn:    2.2017    constr:    0.0000
     atom:   44    charge:   12.6060    magn:    2.2129    constr:    0.0000
     atom:   45    charge:   12.6095    magn:    2.1447    constr:    0.0000
     atom:   46    charge:   12.6111    magn:    2.0857    constr:    0.0000
     atom:   47    charge:   12.6189    magn:    2.3279    constr:    0.0000
     atom:   48    charge:   12.6194    magn:    2.3358    constr:    0.0000
     atom:   49    charge:   12.6160    magn:    2.3652    constr:    0.0000
     atom:   50    charge:   12.6059    magn:    2.2241    constr:    0.0000
     atom:   51    charge:   12.6165    magn:    2.3624    constr:    0.0000
     atom:   52    charge:   12.6055    magn:    2.2097    constr:    0.0000
     atom:   53    charge:   12.6059    magn:    2.2631    constr:    0.0000
     atom:   54    charge:   12.6264    magn:    1.6273    constr:    0.0000
     atom:   55    charge:   12.6097    magn:    2.1958    constr:    0.0000
     atom:   56    charge:   12.6169    magn:    2.3560    constr:    0.0000
     atom:   57    charge:   12.6165    magn:    2.3585    constr:    0.0000
     atom:   58    charge:   12.6164    magn:    2.3611    constr:    0.0000
     atom:   59    charge:   12.6060    magn:    2.2130    constr:    0.0000
     atom:   60    charge:   12.6053    magn:    2.2350    constr:    0.0000
     atom:   61    charge:   12.6063    magn:    2.2068    constr:    0.0000
     atom:   62    charge:   12.6104    magn:    2.1901    constr:    0.0000
     atom:   63    charge:   12.6194    magn:    2.3359    constr:    0.0000
     atom:   64    charge:   12.6125    magn:    2.1483    constr:    0.0000
     atom:   65    charge:    3.7356    magn:   -0.1344    constr:    0.0000

     total cpu time spent up to now is    23848.7 secs

     End of self-consistent calculation

 ------ SPIN UP ------------


          k = 0.0000 0.0000 0.0000 (128403 PWs)   bands (ev):

   -95.2184 -95.1616 -95.1610 -95.1516 -95.1448 -95.1291 -95.1158 -95.1142
   -95.1127 -95.1105 -95.1086 -95.1064 -95.1040 -95.0998 -95.0985 -95.0966
   -95.0939 -95.0929 -95.0918 -95.0913 -95.0908 -95.0840 -95.0823 -95.0820
   -95.0797 -95.0789 -95.0763 -95.0732 -95.0647 -95.0595 -95.0576 -95.0471
   -95.0449 -95.0433 -95.0432 -94.9972 -94.9864 -94.9851 -94.9798 -94.9769
   -94.9746 -94.9698 -94.9678 -94.9633 -94.9606 -94.9595 -94.9590 -94.9581
   -94.9535 -94.9517 -94.9490 -94.9473 -94.9461 -94.9446 -94.9440 -94.9418
   -94.9380 -94.9345 -94.9314 -94.9245 -94.9234 -94.9089 -94.9070 -94.9034
   -61.3944 -61.3532 -61.3390 -61.3305 -61.3281 -61.3159 -61.3114 -61.3105
   -61.3072 -61.3031 -61.3019 -61.3012 -61.2971 -61.2934 -61.2925 -61.2912
   -61.2881 -61.2864 -61.2850 -61.2817 -61.2811 -61.2806 -61.2798 -61.2770
   -61.2760 -61.2701 -61.2690 -61.2647 -61.2629 -61.2610 -61.2594 -61.2593
   -61.2579 -61.2550 -61.2480 -61.2477 -61.2475 -61.2383 -61.2380 -61.2377
   -61.2359 -61.2278 -61.2142 -61.2129 -61.2101 -61.2096 -61.2052 -61.2020
   -61.1910 -61.1883 -61.1772 -61.1725 -61.1685 -61.1615 -61.1576 -61.1556
   -61.1519 -61.1517 -61.1480 -61.1474 -61.1451 -61.1437 -61.1399 -61.1369
   -61.1364 -61.1340 -61.1331 -61.1316 -61.1296 -61.1282 -61.1214 -61.1189
   -61.1145 -61.1131 -61.1117 -61.1075 -61.1025 -61.0994 -61.0978 -61.0935
   -61.0861 -61.0860 -61.0844 -61.0835 -61.0819 -61.0779 -61.0754 -61.0734
   -61.0731 -61.0720 -61.0709 -61.0701 -61.0689 -61.0668 -61.0658 -61.0652
   -61.0642 -61.0629 -61.0601 -61.0568 -61.0557 -61.0502 -61.0484 -61.0481
   -61.0452 -61.0430 -61.0385 -61.0353 -61.0343 -61.0320 -61.0286 -61.0280
   -61.0261 -61.0256 -61.0200 -61.0172 -61.0161 -61.0116 -61.0114 -61.0086
   -61.0073 -61.0066 -61.0061 -61.0026 -61.0010 -60.9983 -60.9976 -60.9965
   -60.9934 -60.9916 -60.9891 -60.9891 -60.9880 -60.9853 -60.9821 -60.9816
   -60.9685 -60.9681 -60.9677 -60.9666 -60.9640 -60.9598 -60.9586 -60.9560
   -60.9559 -60.9533 -60.9521 -60.9498 -60.9458 -60.9449 -60.9442 -60.9408
   -60.9403 -60.9396 -60.9392 -60.9391 -60.9338 -60.9306 -60.9270 -60.9256
   -60.9194 -60.9193 -60.9175 -60.9169 -60.9152 -60.9094 -60.9072 -60.9017
   -60.8997 -60.8985 -60.8905 -60.8881 -60.8878 -60.8847 -60.8829 -60.8790
   -60.8733 -60.8730 -60.8674 -60.8650 -60.8633 -60.8625 -60.8614 -60.8570
   -60.8545 -60.8527 -60.8479 -60.8472 -60.8413 -60.8410 -60.7795 -60.7785
   -22.5414 -14.8740 -13.6145 -13.5899 -13.5378 -13.2559 -13.2144 -13.0844
   -13.0212 -12.8054 -12.7040 -12.4623 -12.2524 -12.2367 -12.1322 -12.0724
   -12.0414 -11.8106 -11.7723 -11.7212 -11.6041 -11.5742 -11.5718 -11.5453
   -11.5280 -11.5023 -11.4939 -11.4221 -11.3379 -11.1950 -11.1442 -11.1417
   -11.1143 -11.0912 -11.0845 -11.0587 -11.0423 -11.0343 -11.0253 -11.0178
   -11.0092 -11.0068 -11.0059 -10.9997 -10.9909 -10.9844 -10.9711 -10.9671
   -10.9465 -10.9419 -10.9406 -10.9208 -10.9200 -10.9142 -10.8861 -10.8731
   -10.8466 -10.8252 -10.8128 -10.7588 -10.7549 -10.7438 -10.7386 -10.6753
   -10.5822 -10.4955 -10.4802 -10.4549 -10.4341 -10.4265 -10.4224 -10.4219
   -10.3899 -10.3512 -10.3062 -10.2815 -10.2669 -10.2633 -10.2587 -10.2497
   -10.2479 -10.2477 -10.2259 -10.2204 -10.2087 -10.2061 -10.2058 -10.2035
   -10.2003 -10.1851 -10.1776 -10.1741 -10.1645 -10.1617 -10.1443 -10.1344
   -10.1244 -10.1149 -10.1075 -10.1039 -10.1007 -10.0930 -10.0912 -10.0804
   -10.0755 -10.0627 -10.0552 -10.0548 -10.0434  -9.9738  -9.9662  -9.9621
    -9.8965  -9.8939  -9.8928  -9.8855  -9.8782  -9.8452  -9.8127  -9.7991
    -9.7693  -9.7300  -9.7044  -9.6908  -9.6783  -9.6781  -9.6682  -9.6630
    -9.6595  -9.6446  -9.6424  -9.6016  -9.5937  -9.5900  -9.5701  -9.5630
    -9.5557  -9.5476  -9.5408  -9.5355  -9.5299  -9.5264  -9.5204  -9.5042
    -9.4939  -9.4684  -9.4509  -9.4092  -9.3716  -9.3705  -9.3694  -9.3650
    -9.3629  -9.3490  -9.3413  -9.3216  -9.3205  -9.3020  -9.2894  -9.2621
    -9.2447  -9.2423  -9.2358  -9.2333  -9.2310  -9.2280  -9.2192  -9.2191
    -9.2144  -9.1675  -9.1446  -9.1327  -9.1309  -9.1217  -9.1154  -9.1100
    -9.1033  -9.0879  -9.0869  -9.0816  -9.0799  -9.0714  -9.0699  -9.0488
    -9.0368  -8.9987  -8.9823  -8.9592  -8.8502  -8.8372  -8.7243  -8.7004
    -8.5960  -8.5749  -8.5703  -8.5689  -8.5659  -8.5553  -8.5503  -8.5444
    -8.5380  -8.5321  -8.5142  -8.5097  -8.5050  -8.4992  -8.4695  -8.4491
    -8.4465  -8.4293  -8.4074  -8.4067  -8.4054  -8.3877  -8.3773  -8.3743
    -8.3672  -8.3597  -8.3577  -8.3564  -8.3346  -8.3310  -8.3162  -8.3159
    -8.3045  -8.2946  -8.2935  -8.2843  -8.2603  -8.2474  -8.2468  -8.2344
    -8.2234  -8.2214  -8.2183  -8.2147  -8.2130  -8.1924  -8.1913  -8.1856
    -8.1828  -8.1813  -8.1724  -8.1653  -8.1624  -8.1503  -8.1454  -8.1413
    -8.1372  -8.1366  -8.1319  -8.1283  -8.1278  -8.1256  -8.1167  -8.1136
    -8.1123  -8.1085  -8.0959  -8.0948  -8.0781  -8.0780  -8.0772  -8.0697
    -8.0659  -8.0468  -8.0455  -8.0324  -8.0300  -8.0277  -8.0257  -8.0162
    -8.0142  -8.0095  -8.0066  -8.0053  -7.9855  -7.9833  -7.9628  -7.9593
    -7.9421  -7.9278  -7.9165  -7.9163  -7.9068  -7.9032  -7.8954  -7.8920
    -7.8854  -7.8782  -7.8588  -7.8428  -7.7790  -7.7636  -7.7596  -7.7533
    -7.7522  -7.7493  -7.7463  -7.7429  -7.7413  -7.7265  -7.7138  -7.7118
    -7.7076  -7.6959  -7.6943  -7.6884  -7.6788  -7.6783  -7.6509  -7.6466
    -7.6431  -7.5854  -7.5775  -7.3989  -7.3097  -7.2917  -7.2703  -7.2566
    -7.2286  -7.1942  -7.1636  -7.1559  -7.1365  -7.1044  -7.0875  -7.0676
    -7.0662  -7.0151  -7.0128  -7.0126  -6.9774  -6.9505  -6.9471  -6.9368
    -6.9087  -6.8788  -6.8176  -6.8091  -6.7945  -6.7390  -6.7291  -6.6880
    -6.6581  -6.3968  -6.3326  -6.2504  -6.1148  -6.0168  -5.9410  -5.9279
    -5.9030  -5.8844  -5.5158  -5.3767  -5.3125  -5.0793  -5.0683  -5.0529
    -4.9746  -4.9678

          k = 0.0000 0.2652 0.0000 (128375 PWs)   bands (ev):

   -95.2184 -95.1615 -95.1611 -95.1516 -95.1448 -95.1280 -95.1184 -95.1142
   -95.1132 -95.1105 -95.1080 -95.1042 -95.1030 -95.1012 -95.0993 -95.0987
   -95.0928 -95.0918 -95.0914 -95.0909 -95.0903 -95.0847 -95.0826 -95.0818
   -95.0800 -95.0797 -95.0760 -95.0719 -95.0654 -95.0596 -95.0576 -95.0468
   -95.0454 -95.0436 -95.0427 -94.9963 -94.9896 -94.9823 -94.9803 -94.9769
   -94.9748 -94.9707 -94.9665 -94.9627 -94.9605 -94.9595 -94.9589 -94.9582
   -94.9550 -94.9522 -94.9483 -94.9468 -94.9462 -94.9444 -94.9434 -94.9418
   -94.9378 -94.9353 -94.9322 -94.9247 -94.9221 -94.9090 -94.9068 -94.9037
   -61.3943 -61.3513 -61.3408 -61.3297 -61.3284 -61.3150 -61.3128 -61.3102
   -61.3064 -61.3045 -61.3019 -61.2997 -61.2958 -61.2940 -61.2934 -61.2902
   -61.2869 -61.2854 -61.2841 -61.2823 -61.2799 -61.2794 -61.2778 -61.2770
   -61.2755 -61.2711 -61.2689 -61.2657 -61.2628 -61.2622 -61.2604 -61.2595
   -61.2563 -61.2528 -61.2487 -61.2463 -61.2426 -61.2369 -61.2348 -61.2328
   -61.2275 -61.2246 -61.2202 -61.2107 -61.2087 -61.2047 -61.2014 -61.1996
   -61.1972 -61.1842 -61.1817 -61.1742 -61.1721 -61.1654 -61.1629 -61.1617
   -61.1580 -61.1546 -61.1514 -61.1471 -61.1460 -61.1436 -61.1391 -61.1366
   -61.1355 -61.1343 -61.1331 -61.1313 -61.1299 -61.1264 -61.1255 -61.1242
   -61.1230 -61.1201 -61.1190 -61.1145 -61.1127 -61.1059 -61.1024 -61.1008
   -61.0992 -61.0954 -61.0926 -61.0881 -61.0850 -61.0823 -61.0807 -61.0795
   -61.0759 -61.0749 -61.0714 -61.0667 -61.0639 -61.0628 -61.0619 -61.0610
   -61.0574 -61.0533 -61.0527 -61.0508 -61.0471 -61.0444 -61.0425 -61.0407
   -61.0391 -61.0381 -61.0370 -61.0333 -61.0328 -61.0311 -61.0306 -61.0272
   -61.0265 -61.0241 -61.0228 -61.0198 -61.0163 -61.0154 -61.0141 -61.0107
   -61.0093 -61.0059 -61.0043 -61.0001 -60.9993 -60.9961 -60.9947 -60.9921
   -60.9914 -60.9888 -60.9869 -60.9837 -60.9810 -60.9802 -60.9747 -60.9736
   -60.9696 -60.9683 -60.9666 -60.9644 -60.9616 -60.9590 -60.9565 -60.9549
   -60.9542 -60.9535 -60.9510 -60.9472 -60.9464 -60.9459 -60.9439 -60.9416
   -60.9394 -60.9387 -60.9365 -60.9342 -60.9335 -60.9285 -60.9275 -60.9263
   -60.9247 -60.9213 -60.9175 -60.9156 -60.9141 -60.9079 -60.9062 -60.9022
   -60.8958 -60.8942 -60.8932 -60.8891 -60.8865 -60.8846 -60.8816 -60.8800
   -60.8764 -60.8738 -60.8710 -60.8694 -60.8665 -60.8647 -60.8631 -60.8590
   -60.8580 -60.8567 -60.8505 -60.8481 -60.8460 -60.8416 -60.7800 -60.7789
   -22.5414 -14.7634 -13.9464 -13.5854 -13.5357 -13.3400 -13.2669 -13.0594
   -12.8863 -12.7043 -12.5366 -12.4037 -12.2793 -12.1873 -12.1059 -12.0483
   -11.8877 -11.8486 -11.7738 -11.6866 -11.6186 -11.5807 -11.5218 -11.5172
   -11.4967 -11.4722 -11.4561 -11.4209 -11.4065 -11.2942 -11.2369 -11.1975
   -11.1787 -11.1518 -11.1445 -11.1331 -11.1268 -11.1128 -11.0986 -11.0834
   -11.0819 -11.0540 -11.0436 -11.0242 -11.0219 -10.9967 -10.9845 -10.9697
   -10.9439 -10.9401 -10.9214 -10.9116 -10.8945 -10.8643 -10.8500 -10.8487
   -10.8417 -10.8368 -10.7949 -10.7486 -10.7189 -10.6809 -10.6770 -10.6401
   -10.6177 -10.5748 -10.5537 -10.5142 -10.4865 -10.4545 -10.4280 -10.3947
   -10.3743 -10.3539 -10.3211 -10.2897 -10.2803 -10.2642 -10.2629 -10.2486
   -10.2374 -10.2347 -10.2235 -10.2165 -10.2105 -10.1997 -10.1896 -10.1808
   -10.1716 -10.1600 -10.1584 -10.1490 -10.1409 -10.1339 -10.1301 -10.1227
   -10.1174 -10.1110 -10.1041 -10.0997 -10.0880 -10.0717 -10.0699 -10.0353
   -10.0224 -10.0144 -10.0019  -9.9998  -9.9925  -9.9758  -9.9686  -9.9522
    -9.9441  -9.9378  -9.8825  -9.8558  -9.8456  -9.8326  -9.8192  -9.7929
    -9.7804  -9.7624  -9.7493  -9.7358  -9.7125  -9.6751  -9.6629  -9.6581
    -9.6483  -9.6370  -9.6294  -9.6281  -9.6146  -9.6049  -9.6000  -9.5938
    -9.5748  -9.5609  -9.5596  -9.5460  -9.5397  -9.5268  -9.5183  -9.5041
    -9.4810  -9.4527  -9.4344  -9.4282  -9.3913  -9.3880  -9.3825  -9.3799
    -9.3679  -9.3564  -9.3454  -9.3411  -9.3349  -9.3295  -9.3147  -9.3098
    -9.2996  -9.2983  -9.2899  -9.2766  -9.2587  -9.2429  -9.2010  -9.1910
    -9.1847  -9.1693  -9.1656  -9.1421  -9.1301  -9.1172  -9.1036  -9.0862
    -9.0770  -9.0655  -9.0569  -9.0256  -9.0141  -8.9947  -8.9651  -8.9529
    -8.9392  -8.9003  -8.8922  -8.8736  -8.8228  -8.7233  -8.7066  -8.6911
    -8.6754  -8.6636  -8.6377  -8.6099  -8.6016  -8.5899  -8.5630  -8.5504
    -8.5370  -8.5344  -8.5233  -8.5099  -8.5061  -8.5017  -8.4887  -8.4791
    -8.4727  -8.4512  -8.4502  -8.4317  -8.4231  -8.4136  -8.4014  -8.3757
    -8.3721  -8.3631  -8.3517  -8.3423  -8.3383  -8.3252  -8.3188  -8.3172
    -8.3103  -8.3044  -8.2882  -8.2632  -8.2561  -8.2520  -8.2429  -8.2315
    -8.2270  -8.2231  -8.2181  -8.2085  -8.2037  -8.1983  -8.1981  -8.1897
    -8.1827  -8.1763  -8.1665  -8.1613  -8.1530  -8.1441  -8.1399  -8.1311
    -8.1275  -8.1223  -8.1145  -8.1069  -8.1010  -8.0993  -8.0958  -8.0889
    -8.0820  -8.0784  -8.0693  -8.0665  -8.0536  -8.0473  -8.0433  -8.0401
    -8.0320  -8.0302  -8.0258  -8.0217  -8.0179  -8.0114  -8.0074  -7.9953
    -7.9917  -7.9873  -7.9780  -7.9683  -7.9562  -7.9516  -7.9375  -7.9303
    -7.9184  -7.8921  -7.8858  -7.8795  -7.8751  -7.8701  -7.8620  -7.8453
    -7.8422  -7.8328  -7.8247  -7.8196  -7.8125  -7.8083  -7.7901  -7.7758
    -7.7604  -7.7527  -7.7500  -7.7440  -7.7369  -7.7241  -7.7156  -7.7124
    -7.7015  -7.6947  -7.6709  -7.6618  -7.6447  -7.6053  -7.5761  -7.5674
    -7.5565  -7.5209  -7.3961  -7.3745  -7.3665  -7.3365  -7.2999  -7.2881
    -7.2739  -7.2598  -7.2385  -7.2187  -7.1984  -7.1707  -7.1596  -7.1488
    -7.1238  -7.1137  -7.0985  -7.0978  -7.0810  -7.0650  -7.0477  -7.0333
    -7.0161  -6.9492  -6.9441  -6.9231  -6.8837  -6.8361  -6.7070  -6.5442
    -6.4264  -6.3910  -6.3104  -6.2144  -6.1560  -6.0471  -6.0079  -5.9072
    -5.9033  -5.6877  -5.6604  -5.6335  -5.6105  -5.5022  -5.3365  -5.3001
    -5.1900  -5.1655

          k = 0.0000-0.5303 0.0000 (128388 PWs)   bands (ev):

   -95.2184 -95.1613 -95.1613 -95.1516 -95.1448 -95.1262 -95.1215 -95.1142
   -95.1137 -95.1098 -95.1065 -95.1058 -95.1015 -95.1011 -95.1010 -95.0987
   -95.0937 -95.0915 -95.0915 -95.0889 -95.0883 -95.0863 -95.0839 -95.0809
   -95.0806 -95.0787 -95.0771 -95.0699 -95.0667 -95.0597 -95.0576 -95.0463
   -95.0461 -95.0437 -95.0424 -94.9944 -94.9927 -94.9803 -94.9802 -94.9777
   -94.9754 -94.9719 -94.9638 -94.9618 -94.9607 -94.9597 -94.9592 -94.9585
   -94.9571 -94.9521 -94.9477 -94.9469 -94.9454 -94.9444 -94.9430 -94.9414
   -94.9378 -94.9363 -94.9329 -94.9249 -94.9211 -94.9092 -94.9066 -94.9040
   -61.3941 -61.3481 -61.3438 -61.3293 -61.3284 -61.3142 -61.3127 -61.3102
   -61.3082 -61.3036 -61.3031 -61.2979 -61.2956 -61.2937 -61.2923 -61.2881
   -61.2880 -61.2850 -61.2836 -61.2792 -61.2791 -61.2790 -61.2775 -61.2753
   -61.2748 -61.2726 -61.2701 -61.2673 -61.2633 -61.2619 -61.2596 -61.2595
   -61.2536 -61.2531 -61.2501 -61.2468 -61.2364 -61.2307 -61.2284 -61.2238
   -61.2233 -61.2219 -61.2211 -61.2150 -61.2100 -61.2022 -61.1971 -61.1933
   -61.1903 -61.1864 -61.1859 -61.1813 -61.1812 -61.1713 -61.1682 -61.1674
   -61.1651 -61.1610 -61.1569 -61.1497 -61.1467 -61.1441 -61.1437 -61.1423
   -61.1375 -61.1341 -61.1310 -61.1308 -61.1291 -61.1272 -61.1257 -61.1255
   -61.1233 -61.1166 -61.1158 -61.1127 -61.1119 -61.1107 -61.1100 -61.1071
   -61.1017 -61.1016 -61.0973 -61.0972 -61.0942 -61.0913 -61.0884 -61.0855
   -61.0826 -61.0821 -61.0721 -61.0676 -61.0659 -61.0652 -61.0601 -61.0549
   -61.0539 -61.0528 -61.0497 -61.0490 -61.0472 -61.0437 -61.0405 -61.0391
   -61.0375 -61.0335 -61.0316 -61.0314 -61.0291 -61.0285 -61.0245 -61.0240
   -61.0199 -61.0169 -61.0164 -61.0132 -61.0131 -61.0103 -61.0069 -61.0065
   -61.0059 -61.0050 -61.0026 -61.0002 -60.9999 -60.9963 -60.9936 -60.9913
   -60.9888 -60.9887 -60.9865 -60.9850 -60.9795 -60.9758 -60.9747 -60.9727
   -60.9718 -60.9710 -60.9665 -60.9648 -60.9626 -60.9621 -60.9578 -60.9542
   -60.9539 -60.9476 -60.9466 -60.9458 -60.9455 -60.9438 -60.9416 -60.9403
   -60.9391 -60.9364 -60.9360 -60.9355 -60.9339 -60.9326 -60.9269 -60.9254
   -60.9177 -60.9169 -60.9157 -60.9136 -60.9087 -60.9067 -60.9051 -60.9010
   -60.8956 -60.8954 -60.8907 -60.8864 -60.8856 -60.8842 -60.8820 -60.8811
   -60.8794 -60.8771 -60.8744 -60.8717 -60.8712 -60.8688 -60.8684 -60.8653
   -60.8610 -60.8594 -60.8569 -60.8484 -60.8479 -60.8419 -60.7805 -60.7793
   -22.5413 -14.4768 -14.3991 -13.5846 -13.5137 -13.3380 -13.1428 -13.1285
   -13.0329 -12.6676 -12.4066 -12.3494 -12.1653 -12.1518 -11.9152 -11.8667
   -11.8660 -11.7943 -11.7750 -11.7372 -11.6437 -11.5852 -11.5791 -11.5607
   -11.4768 -11.4367 -11.3852 -11.3816 -11.3720 -11.3699 -11.3451 -11.3366
   -11.3215 -11.3175 -11.3035 -11.2793 -11.2221 -11.1764 -11.1554 -11.0983
   -11.0745 -11.0407 -11.0106 -11.0031 -10.9748 -10.9714 -10.9201 -10.9148
   -10.9090 -10.9051 -10.9034 -10.8902 -10.8833 -10.8805 -10.8584 -10.8553
   -10.8012 -10.7847 -10.7728 -10.7468 -10.7295 -10.7151 -10.6845 -10.6669
   -10.6360 -10.6315 -10.5862 -10.5656 -10.5243 -10.5195 -10.4916 -10.4712
   -10.4239 -10.3546 -10.3090 -10.2901 -10.2631 -10.2579 -10.2539 -10.2498
   -10.2437 -10.2174 -10.2089 -10.2021 -10.1932 -10.1897 -10.1846 -10.1782
   -10.1729 -10.1592 -10.1501 -10.1481 -10.1385 -10.1283 -10.1272 -10.0944
   -10.0767 -10.0568 -10.0484 -10.0482 -10.0261 -10.0138 -10.0046  -9.9964
    -9.9790  -9.9750  -9.9646  -9.9638  -9.9563  -9.9518  -9.9466  -9.9295
    -9.9236  -9.9191  -9.9151  -9.8995  -9.8984  -9.8747  -9.8671  -9.8574
    -9.7778  -9.7746  -9.7375  -9.6885  -9.6663  -9.6564  -9.6546  -9.6396
    -9.6314  -9.6270  -9.6243  -9.6216  -9.6128  -9.6126  -9.5953  -9.5920
    -9.5849  -9.5842  -9.5799  -9.5762  -9.5716  -9.5566  -9.5416  -9.5342
    -9.5219  -9.5035  -9.4947  -9.4848  -9.4705  -9.4477  -9.4426  -9.4244
    -9.4231  -9.4186  -9.4000  -9.3895  -9.3797  -9.3649  -9.3602  -9.3479
    -9.3317  -9.3095  -9.2926  -9.2623  -9.2596  -9.2012  -9.1965  -9.1798
    -9.1374  -9.1350  -9.1275  -9.1145  -9.1083  -9.0985  -9.0943  -9.0748
    -9.0681  -8.9827  -8.9129  -8.8950  -8.8638  -8.8604  -8.8538  -8.8171
    -8.8086  -8.7962  -8.7812  -8.7661  -8.7517  -8.7356  -8.7001  -8.6973
    -8.6745  -8.6674  -8.6567  -8.6565  -8.6540  -8.6386  -8.6153  -8.6039
    -8.6014  -8.5909  -8.5887  -8.5695  -8.5279  -8.5010  -8.5001  -8.4876
    -8.4742  -8.4635  -8.4551  -8.4503  -8.4314  -8.4258  -8.4109  -8.4104
    -8.3987  -8.3703  -8.3548  -8.3445  -8.3400  -8.3315  -8.3247  -8.3183
    -8.3113  -8.3087  -8.3044  -8.3013  -8.2987  -8.2928  -8.2876  -8.2857
    -8.2818  -8.2734  -8.2580  -8.2429  -8.2319  -8.1974  -8.1853  -8.1629
    -8.1614  -8.1584  -8.1564  -8.1526  -8.1495  -8.1376  -8.1358  -8.1277
    -8.1269  -8.1065  -8.1026  -8.0991  -8.0953  -8.0868  -8.0861  -8.0823
    -8.0720  -8.0707  -8.0637  -8.0546  -8.0415  -8.0414  -8.0349  -8.0329
    -8.0144  -7.9953  -7.9905  -7.9809  -7.9806  -7.9713  -7.9508  -7.9485
    -7.9340  -7.9337  -7.9178  -7.9154  -7.9097  -7.8993  -7.8922  -7.8862
    -7.8709  -7.8705  -7.8671  -7.8667  -7.8569  -7.8567  -7.8467  -7.8467
    -7.8411  -7.8406  -7.8268  -7.8142  -7.8130  -7.8065  -7.7968  -7.7966
    -7.7721  -7.7551  -7.7378  -7.7308  -7.6598  -7.6587  -7.6522  -7.6285
    -7.6172  -7.5953  -7.5729  -7.5422  -7.5339  -7.4731  -7.4664  -7.4593
    -7.4449  -7.4336  -7.4281  -7.4057  -7.3788  -7.3656  -7.3656  -7.3555
    -7.3431  -7.3331  -7.3090  -7.3061  -7.2910  -7.2816  -7.2148  -7.2095
    -7.1732  -7.1709  -7.1686  -7.1389  -7.1189  -7.1074  -7.0922  -7.0843
    -7.0778  -7.0697  -7.0368  -7.0344  -7.0252  -7.0116  -6.8237  -6.7827
    -6.7115  -6.5987  -6.3138  -6.3124  -6.0757  -6.0677  -5.9865  -5.9677
    -5.6890  -5.6844  -5.6820  -5.6128  -5.3763  -5.3539  -5.2855  -5.2781
    -5.2032  -5.1966

          k = 0.2500-0.0884 0.0000 (128371 PWs)   bands (ev):

   -95.2184 -95.1615 -95.1611 -95.1516 -95.1448 -95.1280 -95.1184 -95.1142
   -95.1132 -95.1105 -95.1080 -95.1042 -95.1030 -95.1012 -95.0993 -95.0987
   -95.0928 -95.0918 -95.0914 -95.0909 -95.0903 -95.0847 -95.0826 -95.0818
   -95.0800 -95.0797 -95.0760 -95.0719 -95.0654 -95.0596 -95.0576 -95.0468
   -95.0454 -95.0436 -95.0427 -94.9963 -94.9896 -94.9823 -94.9803 -94.9769
   -94.9748 -94.9707 -94.9665 -94.9627 -94.9605 -94.9595 -94.9589 -94.9582
   -94.9550 -94.9522 -94.9483 -94.9468 -94.9462 -94.9444 -94.9434 -94.9418
   -94.9378 -94.9353 -94.9323 -94.9247 -94.9221 -94.9090 -94.9068 -94.9037
   -61.3943 -61.3513 -61.3408 -61.3297 -61.3284 -61.3150 -61.3128 -61.3102
   -61.3064 -61.3045 -61.3019 -61.2997 -61.2958 -61.2940 -61.2934 -61.2902
   -61.2869 -61.2854 -61.2841 -61.2823 -61.2799 -61.2794 -61.2778 -61.2770
   -61.2755 -61.2711 -61.2689 -61.2657 -61.2628 -61.2622 -61.2604 -61.2595
   -61.2563 -61.2528 -61.2487 -61.2463 -61.2426 -61.2369 -61.2348 -61.2328
   -61.2275 -61.2246 -61.2202 -61.2107 -61.2087 -61.2047 -61.2014 -61.1996
   -61.1972 -61.1842 -61.1817 -61.1742 -61.1721 -61.1654 -61.1629 -61.1617
   -61.1580 -61.1546 -61.1513 -61.1471 -61.1460 -61.1436 -61.1391 -61.1366
   -61.1355 -61.1343 -61.1331 -61.1313 -61.1299 -61.1264 -61.1255 -61.1242
   -61.1230 -61.1201 -61.1190 -61.1145 -61.1127 -61.1059 -61.1024 -61.1008
   -61.0992 -61.0954 -61.0926 -61.0881 -61.0850 -61.0823 -61.0807 -61.0794
   -61.0759 -61.0749 -61.0714 -61.0667 -61.0639 -61.0628 -61.0619 -61.0610
   -61.0574 -61.0533 -61.0527 -61.0508 -61.0471 -61.0444 -61.0425 -61.0407
   -61.0391 -61.0381 -61.0370 -61.0333 -61.0328 -61.0311 -61.0306 -61.0272
   -61.0265 -61.0241 -61.0228 -61.0198 -61.0163 -61.0154 -61.0141 -61.0107
   -61.0093 -61.0059 -61.0043 -61.0001 -60.9993 -60.9961 -60.9947 -60.9921
   -60.9914 -60.9888 -60.9869 -60.9837 -60.9810 -60.9802 -60.9747 -60.9736
   -60.9696 -60.9683 -60.9666 -60.9644 -60.9616 -60.9590 -60.9565 -60.9549
   -60.9542 -60.9535 -60.9510 -60.9472 -60.9464 -60.9459 -60.9439 -60.9416
   -60.9394 -60.9387 -60.9365 -60.9342 -60.9335 -60.9285 -60.9275 -60.9263
   -60.9247 -60.9213 -60.9175 -60.9156 -60.9141 -60.9079 -60.9062 -60.9022
   -60.8958 -60.8943 -60.8932 -60.8891 -60.8865 -60.8846 -60.8816 -60.8800
   -60.8764 -60.8738 -60.8710 -60.8694 -60.8665 -60.8647 -60.8631 -60.8590
   -60.8580 -60.8567 -60.8505 -60.8481 -60.8460 -60.8416 -60.7800 -60.7789
   -22.5414 -14.7634 -13.9464 -13.5854 -13.5357 -13.3400 -13.2668 -13.0594
   -12.8863 -12.7043 -12.5366 -12.4037 -12.2793 -12.1873 -12.1059 -12.0483
   -11.8877 -11.8486 -11.7738 -11.6866 -11.6186 -11.5807 -11.5218 -11.5172
   -11.4967 -11.4722 -11.4561 -11.4209 -11.4065 -11.2942 -11.2369 -11.1975
   -11.1787 -11.1518 -11.1445 -11.1331 -11.1268 -11.1128 -11.0986 -11.0834
   -11.0819 -11.0540 -11.0436 -11.0242 -11.0218 -10.9967 -10.9845 -10.9697
   -10.9439 -10.9401 -10.9214 -10.9116 -10.8945 -10.8643 -10.8501 -10.8487
   -10.8417 -10.8368 -10.7949 -10.7486 -10.7189 -10.6809 -10.6770 -10.6401
   -10.6177 -10.5748 -10.5537 -10.5142 -10.4865 -10.4545 -10.4280 -10.3947
   -10.3743 -10.3539 -10.3211 -10.2897 -10.2803 -10.2642 -10.2629 -10.2486
   -10.2374 -10.2347 -10.2235 -10.2165 -10.2105 -10.1996 -10.1896 -10.1809
   -10.1716 -10.1601 -10.1584 -10.1490 -10.1409 -10.1339 -10.1301 -10.1227
   -10.1174 -10.1110 -10.1041 -10.0997 -10.0879 -10.0717 -10.0699 -10.0353
   -10.0224 -10.0145 -10.0019  -9.9998  -9.9925  -9.9758  -9.9686  -9.9522
    -9.9441  -9.9378  -9.8825  -9.8558  -9.8456  -9.8326  -9.8192  -9.7929
    -9.7804  -9.7624  -9.7493  -9.7358  -9.7125  -9.6751  -9.6629  -9.6581
    -9.6483  -9.6370  -9.6294  -9.6281  -9.6146  -9.6049  -9.6000  -9.5938
    -9.5748  -9.5609  -9.5596  -9.5460  -9.5397  -9.5268  -9.5183  -9.5041
    -9.4810  -9.4527  -9.4343  -9.4282  -9.3913  -9.3880  -9.3825  -9.3799
    -9.3679  -9.3564  -9.3454  -9.3411  -9.3349  -9.3295  -9.3147  -9.3098
    -9.2996  -9.2983  -9.2899  -9.2766  -9.2587  -9.2429  -9.2010  -9.1910
    -9.1847  -9.1693  -9.1656  -9.1421  -9.1301  -9.1172  -9.1036  -9.0862
    -9.0770  -9.0655  -9.0569  -9.0256  -9.0141  -8.9947  -8.9651  -8.9529
    -8.9392  -8.9003  -8.8922  -8.8736  -8.8228  -8.7233  -8.7066  -8.6911
    -8.6754  -8.6637  -8.6377  -8.6099  -8.6016  -8.5899  -8.5630  -8.5504
    -8.5370  -8.5345  -8.5233  -8.5099  -8.5061  -8.5017  -8.4887  -8.4791
    -8.4727  -8.4512  -8.4502  -8.4317  -8.4231  -8.4136  -8.4014  -8.3757
    -8.3721  -8.3631  -8.3517  -8.3422  -8.3383  -8.3252  -8.3188  -8.3172
    -8.3103  -8.3044  -8.2882  -8.2632  -8.2561  -8.2520  -8.2429  -8.2315
    -8.2270  -8.2231  -8.2181  -8.2085  -8.2037  -8.1983  -8.1981  -8.1897
    -8.1827  -8.1763  -8.1665  -8.1613  -8.1530  -8.1441  -8.1399  -8.1311
    -8.1275  -8.1223  -8.1145  -8.1069  -8.1010  -8.0993  -8.0958  -8.0889
    -8.0820  -8.0784  -8.0693  -8.0665  -8.0536  -8.0472  -8.0433  -8.0401
    -8.0320  -8.0302  -8.0258  -8.0217  -8.0179  -8.0114  -8.0074  -7.9953
    -7.9917  -7.9873  -7.9780  -7.9683  -7.9563  -7.9516  -7.9375  -7.9303
    -7.9184  -7.8921  -7.8858  -7.8795  -7.8751  -7.8701  -7.8620  -7.8454
    -7.8422  -7.8328  -7.8247  -7.8196  -7.8125  -7.8083  -7.7901  -7.7758
    -7.7604  -7.7527  -7.7500  -7.7440  -7.7369  -7.7241  -7.7156  -7.7124
    -7.7015  -7.6947  -7.6709  -7.6618  -7.6447  -7.6053  -7.5761  -7.5674
    -7.5565  -7.5209  -7.3961  -7.3745  -7.3665  -7.3365  -7.2999  -7.2881
    -7.2739  -7.2598  -7.2385  -7.2187  -7.1984  -7.1707  -7.1596  -7.1488
    -7.1239  -7.1136  -7.0985  -7.0978  -7.0810  -7.0650  -7.0477  -7.0333
    -7.0161  -6.9492  -6.9441  -6.9231  -6.8837  -6.8361  -6.7070  -6.5442
    -6.4264  -6.3910  -6.3105  -6.2145  -6.1561  -6.0471  -6.0078  -5.9072
    -5.9033  -5.6877  -5.6604  -5.6335  -5.6105  -5.5022  -5.3364  -5.3001
    -5.1900  -5.1655

          k = 0.2500 0.1768 0.0000 (128340 PWs)   bands (ev):

   -95.2184 -95.1615 -95.1610 -95.1515 -95.1449 -95.1273 -95.1174 -95.1150
   -95.1140 -95.1124 -95.1086 -95.1039 -95.1029 -95.1021 -95.0985 -95.0963
   -95.0935 -95.0916 -95.0914 -95.0907 -95.0872 -95.0849 -95.0846 -95.0827
   -95.0820 -95.0797 -95.0730 -95.0716 -95.0665 -95.0598 -95.0576 -95.0469
   -95.0451 -95.0443 -95.0422 -94.9958 -94.9873 -94.9869 -94.9808 -94.9765
   -94.9749 -94.9677 -94.9656 -94.9635 -94.9603 -94.9601 -94.9587 -94.9586
   -94.9547 -94.9517 -94.9511 -94.9469 -94.9450 -94.9444 -94.9428 -94.9420
   -94.9376 -94.9369 -94.9298 -94.9267 -94.9210 -94.9090 -94.9069 -94.9039
   -61.3942 -61.3513 -61.3390 -61.3313 -61.3278 -61.3152 -61.3130 -61.3097
   -61.3038 -61.3036 -61.3020 -61.2994 -61.2984 -61.2940 -61.2908 -61.2886
   -61.2877 -61.2859 -61.2829 -61.2827 -61.2802 -61.2793 -61.2780 -61.2765
   -61.2728 -61.2706 -61.2706 -61.2673 -61.2632 -61.2598 -61.2581 -61.2563
   -61.2547 -61.2545 -61.2500 -61.2481 -61.2394 -61.2314 -61.2306 -61.2290
   -61.2269 -61.2216 -61.2078 -61.2074 -61.2037 -61.2031 -61.2026 -61.2000
   -61.1941 -61.1863 -61.1836 -61.1825 -61.1711 -61.1686 -61.1673 -61.1659
   -61.1612 -61.1605 -61.1527 -61.1508 -61.1498 -61.1471 -61.1460 -61.1440
   -61.1435 -61.1417 -61.1336 -61.1333 -61.1322 -61.1309 -61.1290 -61.1278
   -61.1258 -61.1215 -61.1203 -61.1189 -61.1157 -61.1076 -61.1064 -61.1002
   -61.0996 -61.0960 -61.0951 -61.0908 -61.0890 -61.0828 -61.0809 -61.0799
   -61.0768 -61.0757 -61.0737 -61.0699 -61.0674 -61.0660 -61.0603 -61.0600
   -61.0564 -61.0528 -61.0462 -61.0454 -61.0423 -61.0409 -61.0404 -61.0360
   -61.0358 -61.0354 -61.0336 -61.0328 -61.0320 -61.0313 -61.0303 -61.0262
   -61.0249 -61.0224 -61.0219 -61.0184 -61.0159 -61.0145 -61.0127 -61.0109
   -61.0075 -61.0032 -61.0031 -61.0010 -60.9987 -60.9976 -60.9955 -60.9926
   -60.9897 -60.9895 -60.9821 -60.9791 -60.9767 -60.9709 -60.9699 -60.9664
   -60.9664 -60.9647 -60.9635 -60.9590 -60.9580 -60.9576 -60.9566 -60.9548
   -60.9534 -60.9532 -60.9514 -60.9497 -60.9474 -60.9471 -60.9437 -60.9424
   -60.9377 -60.9367 -60.9344 -60.9336 -60.9326 -60.9306 -60.9273 -60.9262
   -60.9248 -60.9214 -60.9170 -60.9117 -60.9103 -60.9077 -60.9023 -60.9009
   -60.9006 -60.8912 -60.8908 -60.8901 -60.8890 -60.8859 -60.8819 -60.8804
   -60.8788 -60.8748 -60.8739 -60.8698 -60.8694 -60.8686 -60.8668 -60.8633
   -60.8612 -60.8599 -60.8511 -60.8502 -60.8487 -60.8460 -60.7805 -60.7793
   -22.5413 -14.7248 -13.7325 -13.6925 -13.6026 -13.4587 -13.2880 -13.2872
   -12.7512 -12.6209 -12.4965 -12.4404 -12.3734 -12.2225 -12.0860 -11.9879
   -11.8241 -11.7835 -11.6807 -11.5690 -11.5621 -11.5243 -11.5225 -11.4880
   -11.4544 -11.4442 -11.4362 -11.4002 -11.3395 -11.3326 -11.3012 -11.2419
   -11.2133 -11.2003 -11.1797 -11.1577 -11.1206 -11.1193 -11.0926 -11.0790
   -11.0700 -11.0650 -11.0505 -11.0485 -11.0446 -11.0369 -11.0314 -11.0270
   -10.9910 -10.9818 -10.9532 -10.9518 -10.9196 -10.9151 -10.8787 -10.8591
   -10.8124 -10.7957 -10.7389 -10.6984 -10.6891 -10.6682 -10.6653 -10.6237
   -10.5930 -10.5799 -10.5578 -10.5574 -10.4924 -10.4916 -10.4499 -10.4059
   -10.3891 -10.3409 -10.3190 -10.3112 -10.2937 -10.2879 -10.2773 -10.2687
   -10.2664 -10.2661 -10.2514 -10.2469 -10.2401 -10.2353 -10.2292 -10.2214
   -10.2205 -10.1976 -10.1867 -10.1501 -10.1269 -10.1245 -10.1158 -10.0976
   -10.0895 -10.0681 -10.0630 -10.0569 -10.0452 -10.0361 -10.0310 -10.0077
   -10.0055  -9.9824  -9.9781  -9.9573  -9.9390  -9.9297  -9.9126  -9.9038
    -9.8976  -9.8752  -9.8675  -9.8608  -9.8515  -9.8483  -9.8340  -9.8333
    -9.8244  -9.8222  -9.8099  -9.7876  -9.7567  -9.7397  -9.7274  -9.7255
    -9.6730  -9.6668  -9.6572  -9.6451  -9.6424  -9.6370  -9.6150  -9.6013
    -9.5699  -9.5533  -9.5479  -9.5323  -9.5312  -9.5266  -9.5109  -9.5074
    -9.4893  -9.4721  -9.4688  -9.4507  -9.4303  -9.4123  -9.3830  -9.3806
    -9.3594  -9.3591  -9.3560  -9.3322  -9.3268  -9.3176  -9.3152  -9.2885
    -9.2678  -9.2651  -9.2561  -9.2558  -9.2418  -9.2391  -9.2306  -9.2195
    -9.2153  -9.2027  -9.1980  -9.1923  -9.1851  -9.1758  -9.1715  -9.1358
    -9.1293  -9.1210  -9.0789  -9.0473  -8.9641  -8.9429  -8.9017  -8.8878
    -8.8608  -8.8470  -8.8179  -8.7765  -8.7481  -8.7154  -8.7132  -8.7086
    -8.6669  -8.6562  -8.6398  -8.6377  -8.6228  -8.5820  -8.5700  -8.5652
    -8.5489  -8.5442  -8.5288  -8.5211  -8.5159  -8.5126  -8.4978  -8.4760
    -8.4573  -8.4484  -8.4466  -8.4438  -8.4214  -8.4140  -8.4073  -8.4024
    -8.3974  -8.3722  -8.3685  -8.3602  -8.3283  -8.3242  -8.3107  -8.2955
    -8.2935  -8.2785  -8.2760  -8.2659  -8.2643  -8.2582  -8.2576  -8.2364
    -8.2251  -8.2169  -8.2169  -8.2150  -8.1948  -8.1872  -8.1862  -8.1792
    -8.1776  -8.1708  -8.1671  -8.1609  -8.1590  -8.1341  -8.1162  -8.1135
    -8.1071  -8.0955  -8.0952  -8.0878  -8.0853  -8.0696  -8.0681  -8.0506
    -8.0372  -8.0325  -8.0315  -8.0268  -8.0245  -8.0038  -8.0026  -7.9946
    -7.9940  -7.9893  -7.9853  -7.9737  -7.9698  -7.9695  -7.9571  -7.9517
    -7.9473  -7.9430  -7.9395  -7.9346  -7.9309  -7.9248  -7.9220  -7.8980
    -7.8952  -7.8888  -7.8827  -7.8780  -7.8713  -7.8643  -7.8597  -7.8510
    -7.8481  -7.8470  -7.8394  -7.8260  -7.8212  -7.7956  -7.7950  -7.7740
    -7.7591  -7.7542  -7.7428  -7.7222  -7.7104  -7.7047  -7.6982  -7.6771
    -7.6676  -7.6617  -7.6554  -7.6546  -7.5924  -7.5914  -7.5503  -7.5479
    -7.5428  -7.5160  -7.4318  -7.4057  -7.3388  -7.3302  -7.2814  -7.2657
    -7.2216  -7.2128  -7.2007  -7.1826  -7.1743  -7.1439  -7.1359  -7.1243
    -7.1159  -7.1130  -7.1047  -7.0929  -7.0785  -7.0479  -7.0349  -7.0009
    -6.9566  -6.9202  -6.8695  -6.8374  -6.8088  -6.7497  -6.6935  -6.6691
    -6.5391  -6.4600  -6.4586  -6.2112  -6.1696  -6.1235  -6.0819  -6.0346
    -6.0007  -5.9936  -5.9720  -5.9398  -5.8891  -5.8094  -5.5567  -5.5149
    -5.4230  -5.3312

          k = 0.2500-0.6187 0.0000 (128424 PWs)   bands (ev):

   -95.2184 -95.1614 -95.1611 -95.1515 -95.1449 -95.1255 -95.1203 -95.1153
   -95.1137 -95.1126 -95.1101 -95.1029 -95.1016 -95.0999 -95.0993 -95.0967
   -95.0940 -95.0916 -95.0914 -95.0902 -95.0886 -95.0878 -95.0825 -95.0814
   -95.0810 -95.0801 -95.0737 -95.0705 -95.0674 -95.0599 -95.0576 -95.0465
   -95.0457 -95.0442 -95.0420 -94.9942 -94.9913 -94.9841 -94.9827 -94.9753
   -94.9737 -94.9701 -94.9635 -94.9623 -94.9619 -94.9593 -94.9592 -94.9585
   -94.9570 -94.9518 -94.9495 -94.9468 -94.9447 -94.9442 -94.9426 -94.9418
   -94.9379 -94.9374 -94.9312 -94.9259 -94.9203 -94.9092 -94.9067 -94.9042
   -61.3940 -61.3488 -61.3412 -61.3314 -61.3275 -61.3151 -61.3120 -61.3095
   -61.3060 -61.3040 -61.3025 -61.2990 -61.2962 -61.2938 -61.2898 -61.2879
   -61.2868 -61.2850 -61.2820 -61.2810 -61.2802 -61.2782 -61.2769 -61.2758
   -61.2749 -61.2723 -61.2677 -61.2672 -61.2648 -61.2613 -61.2593 -61.2569
   -61.2532 -61.2529 -61.2501 -61.2450 -61.2360 -61.2244 -61.2219 -61.2191
   -61.2168 -61.2162 -61.2131 -61.2128 -61.2075 -61.2046 -61.1964 -61.1942
   -61.1925 -61.1898 -61.1880 -61.1804 -61.1770 -61.1755 -61.1738 -61.1708
   -61.1691 -61.1668 -61.1660 -61.1582 -61.1542 -61.1517 -61.1457 -61.1452
   -61.1421 -61.1382 -61.1358 -61.1340 -61.1329 -61.1299 -61.1288 -61.1278
   -61.1234 -61.1205 -61.1164 -61.1157 -61.1137 -61.1111 -61.1087 -61.1066
   -61.1046 -61.1007 -61.1003 -61.0971 -61.0944 -61.0913 -61.0904 -61.0897
   -61.0823 -61.0810 -61.0776 -61.0766 -61.0706 -61.0645 -61.0619 -61.0563
   -61.0520 -61.0475 -61.0453 -61.0443 -61.0416 -61.0404 -61.0387 -61.0377
   -61.0354 -61.0329 -61.0323 -61.0287 -61.0273 -61.0250 -61.0232 -61.0203
   -61.0198 -61.0188 -61.0146 -61.0132 -61.0118 -61.0097 -61.0084 -61.0080
   -61.0047 -61.0029 -61.0010 -60.9989 -60.9969 -60.9933 -60.9913 -60.9889
   -60.9868 -60.9834 -60.9822 -60.9818 -60.9791 -60.9753 -60.9715 -60.9697
   -60.9684 -60.9681 -60.9629 -60.9623 -60.9598 -60.9569 -60.9563 -60.9551
   -60.9530 -60.9499 -60.9475 -60.9457 -60.9446 -60.9429 -60.9423 -60.9419
   -60.9382 -60.9358 -60.9342 -60.9323 -60.9313 -60.9297 -60.9275 -60.9233
   -60.9199 -60.9139 -60.9129 -60.9099 -60.9090 -60.9062 -60.9032 -60.9010
   -60.8961 -60.8939 -60.8916 -60.8883 -60.8857 -60.8838 -60.8828 -60.8821
   -60.8803 -60.8788 -60.8767 -60.8749 -60.8737 -60.8721 -60.8707 -60.8694
   -60.8639 -60.8617 -60.8603 -60.8510 -60.8502 -60.8478 -60.7810 -60.7798
   -22.5413 -14.4741 -14.1938 -13.9227 -13.4779 -13.4268 -13.1424 -13.0736
   -12.8716 -12.7503 -12.5882 -12.4288 -12.0221 -11.9497 -11.8650 -11.8515
   -11.8182 -11.7529 -11.7261 -11.6727 -11.6003 -11.5948 -11.5312 -11.5195
   -11.5061 -11.4585 -11.4325 -11.3961 -11.3805 -11.3584 -11.3547 -11.3361
   -11.3315 -11.2951 -11.2568 -11.2387 -11.2231 -11.2057 -11.1904 -11.1610
   -11.1563 -11.1223 -11.1106 -11.0964 -11.0750 -11.0021 -10.9944 -10.9695
   -10.9480 -10.9131 -10.9046 -10.8752 -10.8515 -10.8306 -10.8079 -10.7603
   -10.7568 -10.7504 -10.7264 -10.7187 -10.7101 -10.6783 -10.6701 -10.6603
   -10.6305 -10.6078 -10.5710 -10.5635 -10.5512 -10.5335 -10.4878 -10.4652
   -10.4559 -10.4201 -10.3851 -10.3498 -10.3134 -10.2911 -10.2809 -10.2751
   -10.2661 -10.2538 -10.2480 -10.2402 -10.2256 -10.2080 -10.1768 -10.1622
   -10.1522 -10.1309 -10.1140 -10.1037 -10.0850 -10.0756 -10.0721 -10.0660
   -10.0599 -10.0493 -10.0381 -10.0347 -10.0257 -10.0173  -9.9978  -9.9858
    -9.9763  -9.9729  -9.9656  -9.9464  -9.9348  -9.9260  -9.9202  -9.9116
    -9.9012  -9.8952  -9.8791  -9.8722  -9.8391  -9.8295  -9.8204  -9.8115
    -9.8103  -9.7968  -9.7944  -9.7852  -9.7824  -9.7670  -9.7524  -9.7444
    -9.7345  -9.7305  -9.7192  -9.7049  -9.7016  -9.6818  -9.6604  -9.6464
    -9.6368  -9.6101  -9.6035  -9.5408  -9.5175  -9.5073  -9.4977  -9.4772
    -9.4721  -9.4709  -9.4671  -9.4460  -9.4434  -9.4313  -9.4206  -9.4173
    -9.4097  -9.4058  -9.3945  -9.3862  -9.3767  -9.3590  -9.3556  -9.3416
    -9.3373  -9.3191  -9.3135  -9.2660  -9.2423  -9.2221  -9.1934  -9.1829
    -9.1715  -9.1538  -9.1306  -9.1039  -9.0974  -9.0608  -9.0476  -9.0231
    -8.9879  -8.9552  -8.9383  -8.9034  -8.8948  -8.8794  -8.8728  -8.8430
    -8.8146  -8.8032  -8.7749  -8.7686  -8.7556  -8.7350  -8.7251  -8.7002
    -8.6963  -8.6924  -8.6766  -8.6655  -8.6489  -8.6325  -8.6064  -8.5935
    -8.5825  -8.5642  -8.5582  -8.5494  -8.5229  -8.5085  -8.5022  -8.4756
    -8.4714  -8.4593  -8.4438  -8.4405  -8.4338  -8.4270  -8.4150  -8.4001
    -8.3938  -8.3831  -8.3813  -8.3491  -8.3414  -8.3281  -8.3230  -8.3193
    -8.3115  -8.2996  -8.2904  -8.2889  -8.2829  -8.2803  -8.2736  -8.2667
    -8.2620  -8.2492  -8.2432  -8.2386  -8.2158  -8.2037  -8.1927  -8.1791
    -8.1777  -8.1571  -8.1558  -8.1408  -8.1379  -8.1290  -8.1225  -8.1178
    -8.1122  -8.0994  -8.0959  -8.0848  -8.0834  -8.0674  -8.0654  -8.0519
    -8.0461  -8.0306  -8.0274  -8.0230  -8.0089  -8.0002  -7.9938  -7.9882
    -7.9840  -7.9756  -7.9727  -7.9665  -7.9634  -7.9603  -7.9529  -7.9342
    -7.9267  -7.9219  -7.9187  -7.9102  -7.9081  -7.9009  -7.8972  -7.8898
    -7.8863  -7.8792  -7.8719  -7.8635  -7.8601  -7.8457  -7.8287  -7.8250
    -7.8166  -7.8065  -7.7945  -7.7807  -7.7721  -7.7649  -7.7612  -7.7305
    -7.7079  -7.6924  -7.6802  -7.6643  -7.6457  -7.6421  -7.6346  -7.5988
    -7.5651  -7.5549  -7.5313  -7.5247  -7.4846  -7.4741  -7.4666  -7.4519
    -7.4437  -7.4265  -7.4026  -7.3939  -7.3807  -7.3630  -7.3510  -7.3186
    -7.3098  -7.2957  -7.2620  -7.2567  -7.2389  -7.2223  -7.2107  -7.1933
    -7.1768  -7.1682  -7.1521  -7.1395  -7.1326  -7.1240  -7.0972  -7.0811
    -7.0675  -7.0536  -7.0328  -7.0086  -6.9387  -6.9159  -6.8989  -6.7215
    -6.6683  -6.6255  -6.4548  -6.4049  -6.3175  -6.2509  -6.1861  -6.1474
    -6.0181  -5.9236  -5.7734  -5.7199  -5.6864  -5.5971  -5.5656  -5.4391
    -5.3123  -5.2406

          k = 0.2500-0.3536 0.0000 (128397 PWs)   bands (ev):

   -95.2184 -95.1613 -95.1612 -95.1516 -95.1448 -95.1267 -95.1196 -95.1146
   -95.1137 -95.1134 -95.1065 -95.1031 -95.1011 -95.1010 -95.1007 -95.0962
   -95.0951 -95.0917 -95.0914 -95.0912 -95.0908 -95.0859 -95.0810 -95.0809
   -95.0805 -95.0794 -95.0755 -95.0721 -95.0660 -95.0597 -95.0576 -95.0464
   -95.0460 -95.0437 -95.0424 -94.9950 -94.9913 -94.9838 -94.9783 -94.9775
   -94.9741 -94.9712 -94.9659 -94.9626 -94.9608 -94.9593 -94.9591 -94.9578
   -94.9568 -94.9516 -94.9481 -94.9471 -94.9450 -94.9446 -94.9424 -94.9422
   -94.9377 -94.9361 -94.9334 -94.9244 -94.9213 -94.9092 -94.9066 -94.9040
   -61.3941 -61.3484 -61.3433 -61.3301 -61.3278 -61.3146 -61.3132 -61.3088
   -61.3072 -61.3053 -61.3019 -61.2987 -61.2964 -61.2944 -61.2919 -61.2882
   -61.2868 -61.2842 -61.2834 -61.2801 -61.2796 -61.2789 -61.2777 -61.2768
   -61.2747 -61.2714 -61.2710 -61.2654 -61.2646 -61.2616 -61.2596 -61.2582
   -61.2562 -61.2522 -61.2488 -61.2422 -61.2397 -61.2335 -61.2300 -61.2239
   -61.2227 -61.2203 -61.2171 -61.2153 -61.2079 -61.2030 -61.2018 -61.2012
   -61.1996 -61.1892 -61.1781 -61.1762 -61.1738 -61.1698 -61.1660 -61.1620
   -61.1608 -61.1565 -61.1553 -61.1514 -61.1453 -61.1445 -61.1423 -61.1404
   -61.1403 -61.1375 -61.1372 -61.1349 -61.1315 -61.1298 -61.1291 -61.1282
   -61.1257 -61.1236 -61.1190 -61.1142 -61.1141 -61.1117 -61.1084 -61.1079
   -61.1059 -61.0953 -61.0941 -61.0913 -61.0899 -61.0866 -61.0847 -61.0845
   -61.0800 -61.0783 -61.0766 -61.0662 -61.0643 -61.0624 -61.0598 -61.0561
   -61.0529 -61.0512 -61.0494 -61.0484 -61.0464 -61.0447 -61.0419 -61.0390
   -61.0373 -61.0369 -61.0343 -61.0300 -61.0298 -61.0277 -61.0240 -61.0229
   -61.0192 -61.0174 -61.0162 -61.0159 -61.0152 -61.0140 -61.0122 -61.0120
   -61.0089 -61.0083 -61.0035 -61.0020 -60.9986 -60.9961 -60.9957 -60.9927
   -60.9910 -60.9864 -60.9856 -60.9847 -60.9784 -60.9743 -60.9707 -60.9707
   -60.9664 -60.9658 -60.9618 -60.9612 -60.9579 -60.9579 -60.9554 -60.9533
   -60.9525 -60.9522 -60.9487 -60.9475 -60.9463 -60.9441 -60.9432 -60.9401
   -60.9386 -60.9360 -60.9354 -60.9329 -60.9328 -60.9309 -60.9298 -60.9284
   -60.9238 -60.9216 -60.9201 -60.9141 -60.9095 -60.9090 -60.9026 -60.9012
   -60.8966 -60.8962 -60.8909 -60.8891 -60.8855 -60.8835 -60.8812 -60.8802
   -60.8798 -60.8742 -60.8722 -60.8718 -60.8716 -60.8695 -60.8658 -60.8633
   -60.8600 -60.8598 -60.8522 -60.8496 -60.8479 -60.8474 -60.7805 -60.7793
   -22.5413 -14.5834 -14.0391 -14.0205 -13.4924 -13.3940 -13.2058 -12.8032
   -12.7621 -12.6675 -12.4810 -12.4703 -12.3468 -12.1930 -12.0758 -11.9421
   -11.6762 -11.6683 -11.6404 -11.6156 -11.6154 -11.6056 -11.5684 -11.5681
   -11.5214 -11.4882 -11.4663 -11.4535 -11.4233 -11.3930 -11.3877 -11.3675
   -11.2951 -11.2348 -11.2239 -11.1916 -11.1846 -11.1610 -11.1508 -11.1339
   -11.1287 -11.1160 -11.0818 -11.0794 -11.0499 -11.0140 -11.0045 -10.9767
   -10.9588 -10.9337 -10.8896 -10.8751 -10.8606 -10.8141 -10.7970 -10.7655
[...]
    -6.2621  -6.2147  -6.2038  -6.1732  -6.1348  -6.1197  -6.1006  -6.0706
    -6.0449  -6.0423  -6.0185  -6.0089  -5.9963  -5.9805  -5.9669  -5.9473
    -5.9358  -5.9219  -5.8827  -5.8506  -5.8251  -5.8192  -5.8073  -5.7880
    -5.7797  -5.7670  -5.7601  -5.7472  -5.7321  -5.7287  -5.7228  -5.7093
    -5.6865  -5.6569  -5.6474  -5.6257  -5.6185  -5.6160  -5.5846  -5.5692
    -5.5361  -5.5288  -5.5200  -5.5133  -5.4966  -5.4808  -5.4654  -5.4523
    -5.4442  -5.4418  -5.4339  -5.4259  -5.4154  -5.4018  -5.3896  -5.3881
    -5.3779  -5.3677  -5.3542  -5.3413  -5.3358  -5.3071  -5.2934  -5.2866
    -5.2712  -5.2632  -5.2572  -5.2554  -5.2418  -5.2388  -5.2347  -5.2321
    -5.2143  -5.2043  -5.1888  -5.1778  -5.1712  -5.1643  -5.1635  -5.1567
    -5.1487  -5.1389  -5.1307  -5.1260  -5.1130  -5.1083  -5.0865  -5.0785
    -5.0702  -5.0644  -5.0529  -5.0389  -5.0327  -5.0256  -5.0188  -5.0133
    -5.0117  -5.0014  -4.9974  -4.9890  -4.9862  -4.9812  -4.9650  -4.9573
    -4.9489  -4.9437  -4.9307  -4.9159  -4.9060  -4.8957  -4.8953  -4.8888
    -4.8811  -4.8781  -4.8669  -4.8606  -4.8534  -4.8501  -4.8434  -4.8343
    -4.8282  -4.8219  -4.8065  -4.8001  -4.7852  -4.7720  -4.7708  -4.7629
    -4.7446  -4.7204  -4.7128  -4.6949  -4.6884  -4.6849  -4.6771  -4.6629
    -4.6547  -4.6480  -4.6361  -4.6147  -4.6021  -4.5993  -4.5864  -4.5638
    -4.5504  -4.5434  -4.5196  -4.4815  -4.4702  -4.3985  -4.3819  -4.3114
    -4.3029  -4.2980  -4.2751  -4.2020  -4.1793  -4.1064  -4.0499  -4.0076
    -3.9956  -3.9274

          k =-0.5000-0.3536 0.0000 (128560 PWs)   bands (ev):

   -92.7898 -92.7895 -92.3436 -92.3435 -92.2242 -92.2223 -92.2170 -92.1248
   -92.1089 -92.1023 -92.0991 -92.0917 -92.0908 -92.0806 -92.0779 -92.0766
   -92.0708 -92.0707 -92.0674 -92.0643 -92.0620 -92.0613 -92.0599 -92.0581
   -92.0580 -92.0571 -92.0548 -92.0528 -92.0528 -92.0496 -92.0488 -92.0487
   -92.0482 -92.0415 -92.0381 -92.0348 -92.0311 -92.0289 -92.0258 -92.0257
   -92.0239 -92.0231 -92.0202 -92.0179 -92.0157 -92.0157 -92.0140 -92.0124
   -92.0107 -91.9997 -91.9986 -91.9978 -91.9961 -91.9949 -91.9945 -91.9944
   -91.9922 -91.9921 -91.9916 -91.9901 -91.9764 -91.9726 -91.9715 -91.9685
   -59.3381 -59.3299 -58.7903 -58.7808 -58.7082 -58.7013 -58.6563 -58.6510
   -58.4525 -58.4439 -58.4307 -58.4261 -58.4233 -58.4203 -58.4113 -58.3881
   -58.3878 -58.3856 -58.3782 -58.3730 -58.3681 -58.3655 -58.3588 -58.3539
   -58.3523 -58.3516 -58.3490 -58.3438 -58.3420 -58.3377 -58.3368 -58.3332
   -58.3283 -58.3204 -58.3201 -58.3172 -58.3161 -58.3112 -58.3106 -58.3102
   -58.3078 -58.3076 -58.3049 -58.3020 -58.2976 -58.2904 -58.2895 -58.2885
   -58.2879 -58.2865 -58.2808 -58.2759 -58.2744 -58.2734 -58.2717 -58.2686
   -58.2671 -58.2663 -58.2651 -58.2651 -58.2630 -58.2617 -58.2586 -58.2582
   -58.2577 -58.2566 -58.2550 -58.2510 -58.2481 -58.2473 -58.2468 -58.2438
   -58.2349 -58.2258 -58.2193 -58.2173 -58.2136 -58.2099 -58.2066 -58.2016
   -58.1978 -58.1962 -58.1951 -58.1916 -58.1754 -58.1738 -58.1728 -58.1725
   -58.1676 -58.1617 -58.1603 -58.1595 -58.1579 -58.1573 -58.1526 -58.1516
   -58.1494 -58.1493 -58.1458 -58.1457 -58.1408 -58.1405 -58.1377 -58.1351
   -58.1349 -58.1302 -58.1244 -58.1236 -58.1228 -58.1173 -58.1162 -58.1159
   -58.1154 -58.1152 -58.1134 -58.1124 -58.1119 -58.1088 -58.1084 -58.1018
   -58.1001 -58.0993 -58.0905 -58.0894 -58.0888 -58.0865 -58.0865 -58.0848
   -58.0847 -58.0821 -58.0804 -58.0748 -58.0726 -58.0705 -58.0680 -58.0665
   -58.0649 -58.0635 -58.0631 -58.0607 -58.0600 -58.0594 -58.0570 -58.0563
   -58.0554 -58.0547 -58.0537 -58.0513 -58.0507 -58.0503 -58.0491 -58.0485
   -58.0473 -58.0465 -58.0449 -58.0442 -58.0404 -58.0396 -58.0386 -58.0357
   -58.0335 -58.0326 -58.0308 -58.0297 -58.0262 -58.0251 -58.0251 -58.0242
   -58.0242 -58.0227 -58.0225 -58.0212 -58.0207 -58.0203 -58.0203 -58.0191
   -58.0189 -58.0166 -58.0120 -58.0108 -58.0095 -58.0092 -58.0090 -58.0049
   -58.0022 -58.0022 -58.0013 -57.9974 -57.9970 -57.9951 -57.9919 -57.9891
   -22.6857 -14.1031 -14.0590 -13.6009 -13.4801 -13.1414 -12.9826 -12.7317
   -12.5918 -12.2898 -12.1062 -11.9445 -11.4984 -11.4439 -11.4318 -11.3121
   -11.0499 -11.0120 -10.6705 -10.6599 -10.6398 -10.6128 -10.6055 -10.5504
   -10.5375 -10.5111 -10.4744 -10.4622 -10.4417 -10.3036 -10.0886 -10.0834
   -10.0818 -10.0748 -10.0326  -9.9805  -9.8863  -9.7381  -9.6240  -9.6220
    -9.6136  -9.5835  -9.5623  -9.5585  -9.5538  -9.5113  -9.4821  -9.4582
    -9.4237  -9.3258  -9.3248  -9.3126  -9.2965  -9.2859  -9.2690  -9.0928
    -9.0727  -9.0494  -9.0493  -9.0216  -9.0009  -8.9740  -8.8200  -8.7951
    -8.7742  -8.7658  -8.7155  -8.7099  -8.7072  -8.6381  -8.5956  -8.5723
    -8.5573  -8.5327  -8.5223  -8.5115  -8.5112  -8.4860  -8.4860  -8.4696
    -8.4539  -8.4075  -8.3883  -8.3851  -8.3797  -8.3795  -8.3707  -8.3702
    -8.3461  -8.3422  -8.3147  -8.2950  -8.2078  -8.1736  -8.1697  -8.1613
    -8.1607  -8.0827  -8.0703  -8.0439  -8.0308  -8.0240  -8.0229  -8.0080
    -7.9994  -7.9938  -7.9933  -7.9562  -7.9536  -7.9430  -7.9338  -7.9321
    -7.9242  -7.9232  -7.9089  -7.9079  -7.9005  -7.8947  -7.8903  -7.8850
    -7.8587  -7.8585  -7.8569  -7.8504  -7.8492  -7.8408  -7.8292  -7.8170
    -7.8076  -7.7878  -7.7835  -7.7821  -7.7805  -7.7731  -7.7698  -7.7618
    -7.7541  -7.7307  -7.7288  -7.7117  -7.5991  -7.5606  -7.5539  -7.5373
    -7.5281  -7.5228  -7.5144  -7.5125  -7.5042  -7.4918  -7.4791  -7.4674
    -7.4012  -7.3798  -7.3713  -7.3526  -7.3493  -7.3440  -7.3374  -7.3282
    -7.3207  -7.2821  -7.2693  -7.2627  -7.2224  -7.2018  -7.1740  -7.1714
    -7.1444  -7.1051  -7.0801  -7.0577  -7.0116  -7.0098  -6.9965  -6.9866
    -6.9738  -6.9727  -6.9503  -6.9466  -6.9301  -6.9107  -6.9009  -6.8863
    -6.8794  -6.8700  -6.8326  -6.8314  -6.6354  -6.6297  -6.6188  -6.6148
    -6.5061  -6.4867  -6.4834  -6.3686  -6.3314  -6.3238  -6.3012  -6.2306
    -6.2086  -6.1913  -6.1875  -6.1460  -6.1210  -6.1033  -6.1020  -6.0759
    -6.0569  -6.0394  -5.9838  -5.9603  -5.9542  -5.9536  -5.9405  -5.9288
    -5.8693  -5.8494  -5.8393  -5.8284  -5.8252  -5.8207  -5.7834  -5.7583
    -5.7569  -5.7342  -5.7164  -5.7133  -5.7102  -5.7073  -5.6860  -5.6762
    -5.6703  -5.6447  -5.6198  -5.6156  -5.6090  -5.6086  -5.5706  -5.5682
    -5.5569  -5.5525  -5.5514  -5.5483  -5.5341  -5.5224  -5.4773  -5.4564
    -5.4231  -5.4175  -5.4022  -5.3627  -5.3549  -5.3514  -5.3463  -5.3330
    -5.3028  -5.3020  -5.2978  -5.2789  -5.2781  -5.2763  -5.2475  -5.2474
    -5.2330  -5.2307  -5.2251  -5.2160  -5.2092  -5.2065  -5.1949  -5.1900
    -5.1861  -5.1731  -5.1672  -5.1451  -5.1415  -5.1407  -5.1329  -5.1283
    -5.1137  -5.1135  -5.1106  -5.1074  -5.1008  -5.0984  -5.0796  -5.0742
    -5.0694  -5.0692  -5.0578  -5.0373  -5.0365  -5.0329  -5.0261  -5.0235
    -5.0195  -5.0170  -5.0078  -4.9867  -4.9818  -4.9773  -4.9769  -4.9746
    -4.9584  -4.9368  -4.9330  -4.9242  -4.9133  -4.9113  -4.9052  -4.8967
    -4.8813  -4.8764  -4.8666  -4.8486  -4.8473  -4.8352  -4.8311  -4.8281
    -4.8181  -4.8143  -4.8062  -4.8023  -4.7992  -4.7958  -4.7934  -4.7856
    -4.7795  -4.7742  -4.7567  -4.7512  -4.7505  -4.7400  -4.7354  -4.7275
    -4.7209  -4.7133  -4.6870  -4.6734  -4.6635  -4.6620  -4.6609  -4.6314
    -4.6293  -4.6177  -4.4959  -4.4630  -4.4192  -4.4178  -4.3812  -4.3487
    -4.2202  -4.2170  -4.1990  -4.1914  -4.1611  -4.1498  -4.1423  -4.1389
    -4.1140  -4.1056

     the Fermi energy is    -6.9614 ev

!    total energy              =  -21092.55821607 Ry
     Harris-Foulkes estimate   =  -21092.55821659 Ry
     estimated scf accuracy    <          4.3E-11 Ry

     The total energy is the sum of the following terms:

     one-electron contribution = -743209.38395670 Ry
     hartree contribution      =  371336.10626295 Ry
     xc contribution           =   -2233.60709158 Ry
     ewald contribution        =  357889.15880445 Ry
     Dispersion Correction     =      -1.38916706 Ry
     one-center paw contrib.   =   -4873.44664885 Ry
     smearing contrib. (-TS)   =       0.00358071 Ry

     total magnetization       =   160.86 Bohr mag/cell
     absolute magnetization    =   167.68 Bohr mag/cell

     convergence has been achieved in  13 iterations

     negative rho (up, down):  2.504E-02 1.908E-02

     Forces acting on atoms (cartesian axes, Ry/au):

     atom    1 type  1   force =     0.00008321    0.00062219    0.00874203
     atom    2 type  1   force =     0.00298289   -0.00419875   -0.01546014
     atom    3 type  1   force =    -0.00076134   -0.00057036    0.00800200
     atom    4 type  1   force =     0.00052755    0.00098421   -0.00791717
     atom    5 type  1   force =     0.00010796   -0.00002311   -0.00002682
     atom    6 type  1   force =     0.00001833   -0.00003162   -0.00004135
     atom    7 type  1   force =    -0.00005521    0.00001617    0.00000668
     atom    8 type  1   force =    -0.00002507   -0.00003448    0.00002219
     atom    9 type  1   force =     0.00001705   -0.00001981    0.00806651
     atom   10 type  1   force =    -0.00071466   -0.00052913    0.00855538
     atom   11 type  1   force =     0.00096629   -0.00046885   -0.00800494
     atom   12 type  1   force =     0.00066475    0.00053166   -0.01214424
     atom   13 type  1   force =    -0.00000233   -0.00000288   -0.00006727
     atom   14 type  1   force =    -0.00000615   -0.00000279   -0.00002187
     atom   15 type  1   force =     0.00009351    0.00004275   -0.00007464
     atom   16 type  1   force =     0.00005111    0.00003324    0.00002230
     atom   17 type  1   force =    -0.00081641   -0.00047639    0.00800855
     atom   18 type  1   force =     0.00109887    0.00019297   -0.00789360
     atom   19 type  1   force =     0.00071869    0.00060680    0.00798845
     atom   20 type  1   force =    -0.00107511    0.00155861   -0.00336154
     atom   21 type  1   force =    -0.00000385   -0.00006659    0.00000406
     atom   22 type  1   force =    -0.00003928   -0.00001663    0.00001992
     atom   23 type  1   force =     0.00005942   -0.00002185    0.00000227
     atom   24 type  1   force =    -0.00003870    0.00004688   -0.00002902
     atom   25 type  1   force =     0.00003396   -0.00003283    0.00779448
     atom   26 type  1   force =    -0.00117031    0.00165809    0.00755921
     atom   27 type  1   force =     0.00122235    0.00081053   -0.00355815
     atom   28 type  1   force =     0.00013399   -0.00105167   -0.00800772
     atom   29 type  1   force =    -0.00000174   -0.00000391    0.00005797
     atom   30 type  1   force =     0.00001494   -0.00002449    0.00006809
     atom   31 type  1   force =     0.00002459    0.00000462   -0.00000435
     atom   32 type  1   force =    -0.00007787   -0.00008252   -0.00007548
     atom   33 type  1   force =    -0.00009198   -0.00061964    0.00873163
     atom   34 type  1   force =    -0.00052947   -0.00096278   -0.00789870
     atom   35 type  1   force =     0.00060739   -0.00012020    0.00874097
     atom   36 type  1   force =    -0.00304192    0.00429334   -0.01542002
     atom   37 type  1   force =    -0.00011496    0.00001833   -0.00002545
     atom   38 type  1   force =     0.00002117    0.00002545    0.00001797
     atom   39 type  1   force =     0.00001805    0.00011200   -0.00002699
     atom   40 type  1   force =    -0.00002135    0.00001836   -0.00004797
     atom   41 type  1   force =     0.00002831   -0.00003278    0.00920980
     atom   42 type  1   force =     0.00118046   -0.00166225    0.00756135
     atom   43 type  1   force =    -0.00071767   -0.00043329   -0.01215127
     atom   44 type  1   force =    -0.00096722    0.00048222   -0.00795419
     atom   45 type  1   force =     0.00000033   -0.00000259   -0.00002132
     atom   46 type  1   force =    -0.00001720    0.00002024    0.00007636
     atom   47 type  1   force =    -0.00005360   -0.00004155    0.00002333
     atom   48 type  1   force =    -0.00010093   -0.00005137   -0.00007927
     atom   49 type  1   force =     0.00078634    0.00052483    0.00800882
     atom   50 type  1   force =     0.00115207   -0.00161069   -0.00331341
     atom   51 type  1   force =    -0.00061859    0.00013156    0.00875752
     atom   52 type  1   force =    -0.00109380   -0.00014729   -0.00792308
     atom   53 type  1   force =    -0.00000182    0.00005482    0.00000577
     atom   54 type  1   force =     0.00003621   -0.00005863   -0.00002242
     atom   55 type  1   force =    -0.00001939   -0.00011357   -0.00002526
     atom   56 type  1   force =     0.00003173    0.00000517    0.00002134
     atom   57 type  1   force =    -0.00000154   -0.00002703    0.00807649
     atom   58 type  1   force =     0.00072480    0.00048413    0.00855894
     atom   59 type  1   force =    -0.00011694    0.00108931   -0.00794936
     atom   60 type  1   force =    -0.00116181   -0.00086197   -0.00355920
     atom   61 type  1   force =    -0.00000093   -0.00000266   -0.00006512
     atom   62 type  1   force =     0.00000067    0.00000139   -0.00002087
     atom   63 type  1   force =     0.00007505    0.00007108   -0.00008038
     atom   64 type  1   force =    -0.00002356   -0.00002845   -0.00000195
     atom   65 type  2   force =     0.00000064   -0.00000556   -0.00009892

     Total force =     0.000459     Total SCF correction =     0.000030

     bfgs converged in  10 scf cycles and   9 bfgs steps
     (criteria: energy <  7.3E-07 Ry, force <  3.9E-04 Ry/Bohr)

     End of BFGS Geometry Optimization

     Final energy   =  -21092.5582160737 Ry
Begin final coordinates

ATOMIC_POSITIONS (angstrom)
Fe       1.654912953   1.170200133   0.000000000    0   0   0
Fe       0.000000000   0.000000000   2.026984232    0   0   0
Fe       4.964738858   3.510600399   0.000000000    0   0   0
Fe       3.309825906   2.340400266   2.026984232    0   0   0
Fe       1.678806994   1.167994809   4.028591221
Fe       3.335478005   9.325953666   6.014648497
Fe       4.960425076   3.533258650   4.041947248
Fe       3.388865992   2.341721327   6.022998858
Fe       2.482363858   3.510600399   0.000000000    0   0   0
Fe       4.137287953   1.170200133   0.000000000    0   0   0
Fe       0.827450906   2.340400266   2.026984232    0   0   0
Fe       2.482375000   0.000000000   2.026984232    0   0   0
Fe       2.482576459   3.510835432   4.046766472
Fe       4.161254216   1.187440189   4.031957581
Fe       0.907815888   2.304408624   6.030598651
Fe       2.511451635   0.020838500   6.022419190
Fe       6.619662953   1.170200133   0.000000000    0   0   0
Fe       4.964750000   0.000000000   2.026984232    0   0   0
Fe       9.929488858   3.510600399   0.000000000    0   0   0
Fe       8.274575906   2.340400266   2.026984232    0   0   0
Fe       6.639204257   1.158528080   4.041692278
Fe       4.991987182   0.074492558   6.023318172
Fe       9.934446910   3.488571233   4.041724074
Fe       8.454366489   2.086845468   5.975870090
Fe       7.447113858   3.510600399   0.000000000    0   0   0
Fe       9.102037953   1.170200133   0.000000000    0   0   0
Fe       5.792200906   2.340400266   2.026984232    0   0   0
Fe       7.447125000   0.000000000   2.026984232    0   0   0
Fe       7.447520085   3.510553364   4.054994486
Fe       9.131256508   1.129313623   3.995768932
Fe       5.879616657   2.402096598   6.007822270
Fe      10.764756123   9.274331162   6.030567259
Fe       3.309814764   5.851000664   0.000000000    0   0   0
Fe       1.654901811   4.680800531   2.026984232    0   0   0
Fe       6.619640670   8.191400930   0.000000000    0   0   0
Fe       4.964727717   7.021200797   2.026984232    0   0   0
Fe       3.286320144   5.853562380   4.028785332
Fe      11.505904276   4.680418709   6.023358567
Fe       6.625458183   8.214712916   4.028794871
Fe       4.939356678   7.057684658   6.015839556
Fe       4.137265670   8.191400930   0.000000000    0   0   0
Fe       5.792189764   5.851000664   0.000000000    0   0   0
Fe       2.482352717   7.021200797   2.026984232    0   0   0
Fe       4.137276811   4.680800531   2.026984232    0   0   0
Fe       4.137438634   8.191593189   4.016128332
Fe       5.763163765   5.892504461   3.996101920
Fe      12.383113371   7.001224526   6.022313626
Fe       4.057783077   4.717874056   6.031032854
Fe       8.274564764   5.851000664   0.000000000    0   0   0
Fe       6.619651811   4.680800531   2.026984232    0   0   0
Fe      11.584390670   8.191400930   0.000000000    0   0   0
Fe       9.929477717   7.021200797   2.026984232    0   0   0
Fe       8.255093563   5.862953059   4.041991867
Fe       6.440769554   4.934562032   5.975753169
Fe      11.578919002   8.168450904   4.028542905
Fe       9.902541573   6.947659196   6.022963399
Fe       9.102015670   8.191400930   0.000000000    0   0   0
Fe      10.756939764   5.851000664   0.000000000    0   0   0
Fe       7.447102717   7.021200797   2.026984232    0   0   0
Fe       9.102026811   4.680800531   2.026984232    0   0   0
Fe       9.102140527   8.191620926   4.046765087
Fe      10.733135805   5.834439536   4.031976777
Fe       7.439271346   7.109110949   6.031107632
Fe       9.015523198   4.619444667   6.007887625
N        7.447581845   3.510739905   6.342350374
End final coordinates



     Writing output data file Fe_N_paper_480c_ESM_pn25.save/

     init_run     :     83.21s CPU     85.46s WALL (       1 calls)
     electrons    :  69079.77s CPU  69556.45s WALL (      10 calls)
     update_pot   :    136.68s CPU    136.84s WALL (       9 calls)
     forces       :    430.50s CPU    435.13s WALL (      10 calls)

     Called by init_run:
     wfcinit      :     61.27s CPU     63.25s WALL (       1 calls)
     potinit      :      6.42s CPU      6.47s WALL (       1 calls)
     hinit0       :     12.89s CPU     12.99s WALL (       1 calls)

     Called by electrons:
     c_bands      :  64284.56s CPU  64691.30s WALL (     168 calls)
     sum_band     :   2701.06s CPU   2747.85s WALL (     168 calls)
     v_of_rho     :    277.49s CPU    278.38s WALL (     169 calls)
     newd         :     50.74s CPU     53.03s WALL (     169 calls)
     PAW_pot      :     81.23s CPU     81.72s WALL (     178 calls)
     mix_rho      :   1628.85s CPU   1644.01s WALL (     168 calls)

     Called by c_bands:
     init_us_2    :     77.87s CPU     80.87s WALL (    1068 calls)
     cegterg      :  48466.45s CPU  48758.52s WALL (     511 calls)

     Called by sum_band:
     sum_band:bec :      5.16s CPU      5.18s WALL (     531 calls)
     addusdens    :     59.54s CPU     63.62s WALL (     168 calls)

     Called by *egterg:
     h_psi        :  13933.68s CPU  14049.78s WALL (    4747 calls)
     s_psi        :   2833.36s CPU   2838.94s WALL (    4747 calls)
     g_psi        :     39.76s CPU     39.93s WALL (    4233 calls)
     cdiaghg      :  19581.28s CPU  19660.40s WALL (    4690 calls)

     Called by h_psi:
     h_psi:pot    :  13863.83s CPU  13938.43s WALL (    4747 calls)
     h_psi:calbec :   2875.13s CPU   2880.34s WALL (    4747 calls)
     vloc_psi     :   8146.61s CPU   8210.58s WALL (    4747 calls)
     add_vuspsi   :   2842.03s CPU   2847.47s WALL (    4747 calls)

     General routines
     calbec       :   4045.93s CPU   4053.36s WALL (    5398 calls)
     fft          :    179.68s CPU    180.54s WALL (    4382 calls)
     ffts         :    847.31s CPU    853.84s WALL (   99337 calls)
     fftw         :   7685.29s CPU   7750.23s WALL ( 2175216 calls)
     interpolate  :     18.10s CPU     18.19s WALL (     338 calls)
     davcio       :      0.73s CPU    110.00s WALL (    4051 calls)

     Parallel routines
     fft_scatt_xy :   1497.64s CPU   1505.27s WALL ( 2278935 calls)
     fft_scatt_yz :   2146.92s CPU   2182.78s WALL ( 2278935 calls)

     PWSCF        :     19h23m CPU     19h32m WALL


   This run was terminated on:  16:33:33  13Jun2022            

=------------------------------------------------------------------------------=
   JOB DONE.
=------------------------------------------------------------------------------=
