     Message from routine get_command_line:
     unexpected argument # 4     :-in

     Program PWSCF v.6.7MaX starts on  4Jul2022 at  0: 1:35 

     This program is part of the open-source Quantum ESPRESSO suite
     for quantum simulation of materials; please cite
         "P. Giannozzi et al., J. Phys.:Condens. Matter 21 395502 (2009);
         "P. Giannozzi et al., J. Phys.:Condens. Matter 29 465901 (2017);
          URL http://www.quantum-espresso.org", 
     in publications or presentations arising from this work. More details at
     http://www.quantum-espresso.org/quote

     Parallel version (MPI), running on   120 processors

     MPI processes distributed on     1 nodes
     K-points division:     npool     =       8
     R & G space division:  proc/nbgrp/npool/nimage =      15
     Waiting for input...
     Reading input from standard input
Warning: card &CELL ignored
Warning: card / ignored

     Current dimensions of program PWSCF are:
     Max number of different atomic species (ntypx) = 10
     Max number of k-points (npk) =  40000
     Max angular momentum in pseudopotentials (lmaxx) =  3

     IMPORTANT: XC functional enforced from input :
     Exchange-correlation= PBE
                           (   1   4   3   4   0   0   0)
     Any further DFT definition will be discarded
     Please, verify this is what you really want


     -------------------------------------------------
     Parameters for Dispersion (Grimme-D2) Correction:
     -------------------------------------------------
       atom      VdW radius       C_6     

        H          1.892          4.857

     Subspace diagonalization in iterative solution of the eigenvalue problem:
     one sub-group per band group will be used
     scalapack distributed-memory algorithm (size of sub-group:  3*  3 procs)


     Parallelization info
     --------------------
     sticks:   dense  smooth     PW     G-vecs:    dense   smooth      PW
     Min        3636    1818    468               639190   225950   29545
     Max        3637    1819    470               639197   225953   29547
     Sum       54553   27281   7033              9587919  3389267  443191



     bravais-lattice index     =            0
     lattice parameter (alat)  =      37.7945  a.u.
     unit-cell volume          =   53986.6760 (a.u.)^3
     number of atoms/cell      =            1
     number of atomic types    =            1
     number of electrons       =         1.00
     number of Kohn-Sham states=            5
     kinetic-energy cutoff     =      60.0000  Ry
     charge density cutoff     =     480.0000  Ry
     scf convergence threshold =      1.0E-08
     mixing beta               =       0.7000
     number of iterations used =           10  plain     mixing
     energy convergence thresh.=      7.3E-07
     force convergence thresh. =      3.9E-04
     Exchange-correlation= PBE
                           (   1   4   3   4   0   0   0)
     nstep                     =           50


     Effective Screening Medium Method
     =================================
     Boundary Conditions: Metal-Slab-Metal
     field strength                   =    -0.02 Ry/a.u.
     grid points for fit at edges     =        4 


     celldm(1)=  37.794522  celldm(2)=   0.000000  celldm(3)=   0.000000
     celldm(4)=   0.000000  celldm(5)=   0.000000  celldm(6)=   0.000000

     crystal axes: (cart. coord. in units of alat)
               a(1) = (   1.000000   0.000000   0.000000 )  
               a(2) = (   0.000000   1.000000   0.000000 )  
               a(3) = (   0.000000   0.000000   1.000000 )  

     reciprocal axes: (cart. coord. in units 2 pi/alat)
               b(1) = (  1.000000  0.000000  0.000000 )  
               b(2) = (  0.000000  1.000000  0.000000 )  
               b(3) = (  0.000000  0.000000  1.000000 )  


     PseudoPot. # 1 for H  read from file:
     ../../SSSP/H.pbe-rrkjus_psl.1.0.0.UPF
     MD5 check sum: f52b6d4d1c606e5624b1dc7b2218f220
     Pseudo is Ultrasoft, Zval =  1.0
     Generated using "atomic" code by A. Dal Corso  v.5.1
     Using radial grid of  929 points,  2 beta functions with: 
                l(1) =   0
                l(2) =   0
     Q(r) pseudized with 0 coefficients 


     atomic species   valence    mass     pseudopotential
        H              1.00     1.00800     H ( 1.00)

     Starting magnetic structure 
     atomic species   magnetization
        H            0.100

     No symmetry found



   Cartesian axes

     site n.     atom                  positions (alat units)
         1           H   tau(   1) = (   0.5000000   0.5000000   0.0000000  )

     number of k points=    10  Methfessel-Paxton smearing, width (Ry)=  0.0100
                       cart. coord. in units 2pi/alat
        k(    1) = (   0.0000000   0.0000000   0.0000000), wk =   0.0625000
        k(    2) = (   0.0000000   0.2500000   0.0000000), wk =   0.1250000
        k(    3) = (   0.0000000  -0.5000000   0.0000000), wk =   0.0625000
        k(    4) = (   0.2500000   0.0000000   0.0000000), wk =   0.1250000
        k(    5) = (   0.2500000   0.2500000   0.0000000), wk =   0.1250000
        k(    6) = (   0.2500000  -0.5000000   0.0000000), wk =   0.1250000
        k(    7) = (   0.2500000  -0.2500000   0.0000000), wk =   0.1250000
        k(    8) = (  -0.5000000   0.0000000   0.0000000), wk =   0.0625000
        k(    9) = (  -0.5000000   0.2500000   0.0000000), wk =   0.1250000
        k(   10) = (  -0.5000000  -0.5000000   0.0000000), wk =   0.0625000

     Dense  grid:  9587919 G-vectors     FFT dimensions: ( 270, 270, 270)

     Smooth grid:  3389267 G-vectors     FFT dimensions: ( 192, 192, 192)

     Estimated max dynamical RAM per process >     315.63 MB

     Estimated total dynamical RAM >      36.99 GB
     Generating pointlists ...
     new r_m :   0.4125 (alat units) 15.5902 (a.u.) for type    1

     Initial potential from superposition of free atoms

     starting charge    0.99999, renormalised to    1.00000

     negative rho (up, down):  1.968E-05 1.610E-05
     Starting wfcs are    1 randomized atomic wfcs +    4 random wfcs

     total cpu time spent up to now is       20.1 secs

     Self-consistent Calculation

     iteration #  1     ecut=    60.00 Ry     beta= 0.70
     CG style diagonalization
     c_bands:  2 eigenvalues not converged
     ethr =  1.00E-04,  avg # of iterations = 15.6

     negative rho (up, down):  3.750E-05 4.367E-06

     total cpu time spent up to now is       47.4 secs

     total energy              =      -0.99071907 Ry
     estimated scf accuracy    <       0.00952124 Ry

     total magnetization       =     1.03 Bohr mag/cell
     absolute magnetization    =     1.03 Bohr mag/cell

     iteration #  2     ecut=    60.00 Ry     beta= 0.70
     CG style diagonalization
     ethr =  9.52E-04,  avg # of iterations =  3.1

     negative rho (up, down):  4.887E-05 1.646E-05

     total cpu time spent up to now is       61.9 secs

     total energy              =      -0.99916202 Ry
     estimated scf accuracy    <       0.00161902 Ry

     total magnetization       =     1.00 Bohr mag/cell
     absolute magnetization    =     1.00 Bohr mag/cell

     iteration #  3     ecut=    60.00 Ry     beta= 0.70
     CG style diagonalization
     ethr =  1.62E-04,  avg # of iterations =  3.2

     negative rho (up, down):  4.847E-05 1.083E-03

     total cpu time spent up to now is       76.7 secs

     total energy              =      -1.03202802 Ry
     estimated scf accuracy    <       0.00004947 Ry

     total magnetization       =     1.00 Bohr mag/cell
     absolute magnetization    =     1.00 Bohr mag/cell

     iteration #  4     ecut=    60.00 Ry     beta= 0.70
     CG style diagonalization
     ethr =  4.95E-06,  avg # of iterations =  4.7

     negative rho (up, down):  4.988E-05 8.392E-04

     total cpu time spent up to now is       93.3 secs

     total energy              =      -1.03225810 Ry
     estimated scf accuracy    <       0.00004903 Ry

     total magnetization       =     1.00 Bohr mag/cell
     absolute magnetization    =     1.00 Bohr mag/cell

     iteration #  5     ecut=    60.00 Ry     beta= 0.70
     CG style diagonalization
     ethr =  4.90E-06,  avg # of iterations =  3.0

     negative rho (up, down):  4.963E-05 4.485E-07

     total cpu time spent up to now is      108.0 secs

     total energy              =      -1.00003867 Ry
     estimated scf accuracy    <       0.00009620 Ry

     total magnetization       =     1.00 Bohr mag/cell
     absolute magnetization    =     1.00 Bohr mag/cell

     iteration #  6     ecut=    60.00 Ry     beta= 0.70
     CG style diagonalization
     ethr =  4.90E-06,  avg # of iterations =  5.2

     negative rho (up, down):  4.942E-05 1.057E-07

     total cpu time spent up to now is      125.2 secs

     total energy              =      -1.00016520 Ry
     estimated scf accuracy    <       0.00002084 Ry

     total magnetization       =     1.00 Bohr mag/cell
     absolute magnetization    =     1.00 Bohr mag/cell

     iteration #  7     ecut=    60.00 Ry     beta= 0.70
     CG style diagonalization
     ethr =  2.08E-06,  avg # of iterations =  3.6

     negative rho (up, down):  4.934E-05 1.559E-08

     total cpu time spent up to now is      140.8 secs

     total energy              =      -1.00017109 Ry
     estimated scf accuracy    <       0.00001166 Ry

     total magnetization       =     1.00 Bohr mag/cell
     absolute magnetization    =     1.00 Bohr mag/cell

     iteration #  8     ecut=    60.00 Ry     beta= 0.70
     CG style diagonalization
     ethr =  1.17E-06,  avg # of iterations =  3.0

     negative rho (up, down):  4.888E-05 1.075E-04

     total cpu time spent up to now is      155.8 secs

     total energy              =      -1.03243246 Ry
     estimated scf accuracy    <       0.00000647 Ry

     total magnetization       =     1.00 Bohr mag/cell
     absolute magnetization    =     1.00 Bohr mag/cell

     iteration #  9     ecut=    60.00 Ry     beta= 0.70
     CG style diagonalization
     ethr =  6.47E-07,  avg # of iterations =  5.4

     negative rho (up, down):  5.009E-05 2.818E-05

     total cpu time spent up to now is      173.5 secs

     total energy              =      -1.03256430 Ry
     estimated scf accuracy    <       0.00005785 Ry

     total magnetization       =     1.00 Bohr mag/cell
     absolute magnetization    =     1.00 Bohr mag/cell

     iteration # 10     ecut=    60.00 Ry     beta= 0.70
     CG style diagonalization
     ethr =  6.47E-07,  avg # of iterations =  3.1

     negative rho (up, down):  5.062E-05 2.456E-05

     total cpu time spent up to now is      194.1 secs

     total energy              =      -1.03256536 Ry
     estimated scf accuracy    <       0.00003173 Ry

     total magnetization       =     1.00 Bohr mag/cell
     absolute magnetization    =     1.00 Bohr mag/cell

     iteration # 11     ecut=    60.00 Ry     beta= 0.70
     CG style diagonalization
     ethr =  6.47E-07,  avg # of iterations =  3.0

     negative rho (up, down):  5.076E-05 2.284E-05

     total cpu time spent up to now is      210.0 secs

     total energy              =      -1.03256586 Ry
     estimated scf accuracy    <       0.00002848 Ry

     total magnetization       =     1.00 Bohr mag/cell
     absolute magnetization    =     1.00 Bohr mag/cell

     iteration # 12     ecut=    60.00 Ry     beta= 0.70
     CG style diagonalization
     ethr =  6.47E-07,  avg # of iterations =  3.0

     negative rho (up, down):  5.037E-05 1.462E-10

     total cpu time spent up to now is      225.3 secs

     total energy              =      -1.00011093 Ry
     estimated scf accuracy    <       0.00002733 Ry

     total magnetization       =     1.00 Bohr mag/cell
     absolute magnetization    =     1.00 Bohr mag/cell

     iteration # 13     ecut=    60.00 Ry     beta= 0.70
     CG style diagonalization
     ethr =  6.47E-07,  avg # of iterations =  5.0

     negative rho (up, down):  4.920E-05 2.409E-12

     total cpu time spent up to now is      243.0 secs

     total energy              =      -1.00018092 Ry
     estimated scf accuracy    <       0.00000549 Ry

     total magnetization       =     1.00 Bohr mag/cell
     absolute magnetization    =     1.00 Bohr mag/cell

     iteration # 14     ecut=    60.00 Ry     beta= 0.70
     CG style diagonalization
     ethr =  5.49E-07,  avg # of iterations =  3.0

     negative rho (up, down):  4.930E-05 2.315E-12

     total cpu time spent up to now is      258.5 secs

     total energy              =      -1.00018162 Ry
     estimated scf accuracy    <       0.00000088 Ry

     total magnetization       =     1.00 Bohr mag/cell
     absolute magnetization    =     1.00 Bohr mag/cell

     iteration # 15     ecut=    60.00 Ry     beta= 0.70
     CG style diagonalization
     ethr =  8.77E-08,  avg # of iterations =  3.0

     negative rho (up, down):  4.939E-05 3.411E-08

     total cpu time spent up to now is      273.7 secs

     total energy              =      -1.03247866 Ry
     estimated scf accuracy    <       0.00000304 Ry

     total magnetization       =     1.00 Bohr mag/cell
     absolute magnetization    =     1.00 Bohr mag/cell

     iteration # 16     ecut=    60.00 Ry     beta= 0.70
     CG style diagonalization
     ethr =  8.77E-08,  avg # of iterations =  5.1

     negative rho (up, down):  4.975E-05 1.126E-08

     total cpu time spent up to now is      291.3 secs

     total energy              =      -1.03257236 Ry
     estimated scf accuracy    <       0.00001634 Ry

     total magnetization       =     1.00 Bohr mag/cell
     absolute magnetization    =     1.00 Bohr mag/cell

     iteration # 17     ecut=    60.00 Ry     beta= 0.70
     CG style diagonalization
     ethr =  8.77E-08,  avg # of iterations =  3.0

     negative rho (up, down):  5.020E-05 4.176E-11

     total cpu time spent up to now is      306.6 secs

     total energy              =      -1.00008742 Ry
     estimated scf accuracy    <       0.00001442 Ry

     total magnetization       =     1.00 Bohr mag/cell
     absolute magnetization    =     1.00 Bohr mag/cell

     iteration # 18     ecut=    60.00 Ry     beta= 0.70
     CG style diagonalization
     ethr =  8.77E-08,  avg # of iterations =  5.1

     negative rho (up, down):  4.933E-05 3.951E-11

     total cpu time spent up to now is      324.4 secs

     total energy              =      -1.00018195 Ry
     estimated scf accuracy    <       0.00000384 Ry

     total magnetization       =     1.00 Bohr mag/cell
     absolute magnetization    =     1.00 Bohr mag/cell

     iteration # 19     ecut=    60.00 Ry     beta= 0.70
     CG style diagonalization
     ethr =  8.77E-08,  avg # of iterations =  3.0

     negative rho (up, down):  4.932E-05 2.731E-11

     total cpu time spent up to now is      339.7 secs

     total energy              =      -1.00018177 Ry
     estimated scf accuracy    <       0.00000420 Ry

     total magnetization       =     1.00 Bohr mag/cell
     absolute magnetization    =     1.00 Bohr mag/cell

     iteration # 20     ecut=    60.00 Ry     beta= 0.70
     CG style diagonalization
     ethr =  8.77E-08,  avg # of iterations =  3.0

     negative rho (up, down):  4.924E-05 4.766E-10

     total cpu time spent up to now is      354.9 secs

     total energy              =      -1.00018227 Ry
     estimated scf accuracy    <       0.00000342 Ry

     total magnetization       =     1.00 Bohr mag/cell
     absolute magnetization    =     1.00 Bohr mag/cell

     iteration # 21     ecut=    60.00 Ry     beta= 0.70
     CG style diagonalization
     ethr =  8.77E-08,  avg # of iterations =  3.0

     negative rho (up, down):  4.954E-05 5.240E-08

     total cpu time spent up to now is      370.2 secs

     total energy              =      -1.03247947 Ry
     estimated scf accuracy    <       0.00000213 Ry

     total magnetization       =     1.00 Bohr mag/cell
     absolute magnetization    =     1.00 Bohr mag/cell

     iteration # 22     ecut=    60.00 Ry     beta= 0.70
     CG style diagonalization
     ethr =  8.77E-08,  avg # of iterations =  5.1

     negative rho (up, down):  4.968E-05 4.859E-11

     total cpu time spent up to now is      387.9 secs

     total energy              =      -1.00008651 Ry
     estimated scf accuracy    <       0.00001311 Ry

     total magnetization       =     1.00 Bohr mag/cell
     absolute magnetization    =     1.00 Bohr mag/cell

     iteration # 23     ecut=    60.00 Ry     beta= 0.70
     CG style diagonalization
     ethr =  8.77E-08,  avg # of iterations =  5.2

     negative rho (up, down):  4.974E-05 9.514E-11

     total cpu time spent up to now is      405.7 secs

     total energy              =      -1.00018379 Ry
     estimated scf accuracy    <       0.00001318 Ry

     total magnetization       =     1.00 Bohr mag/cell
     absolute magnetization    =     1.00 Bohr mag/cell

     iteration # 24     ecut=    60.00 Ry     beta= 0.70
     CG style diagonalization
     ethr =  8.77E-08,  avg # of iterations =  3.0

     negative rho (up, down):  5.078E-05 4.434E-08

     total cpu time spent up to now is      421.0 secs

     total energy              =      -1.03247992 Ry
     estimated scf accuracy    <       0.00001371 Ry

     total magnetization       =     1.00 Bohr mag/cell
     absolute magnetization    =     1.00 Bohr mag/cell

     iteration # 25     ecut=    60.00 Ry     beta= 0.70
     CG style diagonalization
     ethr =  8.77E-08,  avg # of iterations =  5.1

     negative rho (up, down):  4.975E-05 2.674E-07

     total cpu time spent up to now is      438.6 secs

     total energy              =      -1.03256975 Ry
     estimated scf accuracy    <       0.00000044 Ry

     total magnetization       =     1.00 Bohr mag/cell
     absolute magnetization    =     1.00 Bohr mag/cell

     iteration # 26     ecut=    60.00 Ry     beta= 0.70
     CG style diagonalization
     ethr =  4.39E-08,  avg # of iterations =  3.1

     negative rho (up, down):  4.989E-05 4.452E-07

     total cpu time spent up to now is      454.0 secs

     total energy              =      -1.03257035 Ry
     estimated scf accuracy    <       0.00000224 Ry

     total magnetization       =     1.00 Bohr mag/cell
     absolute magnetization    =     1.00 Bohr mag/cell

     iteration # 27     ecut=    60.00 Ry     beta= 0.70
     CG style diagonalization
     ethr =  4.39E-08,  avg # of iterations =  3.0

     negative rho (up, down):  5.000E-05 1.970E-07

     total cpu time spent up to now is      469.3 secs

     total energy              =      -1.03257042 Ry
     estimated scf accuracy    <       0.00000561 Ry

     total magnetization       =     1.00 Bohr mag/cell
     absolute magnetization    =     1.00 Bohr mag/cell

     iteration # 28     ecut=    60.00 Ry     beta= 0.70
     CG style diagonalization
     ethr =  4.39E-08,  avg # of iterations =  3.0

     negative rho (up, down):  5.005E-05 1.896E-07

     total cpu time spent up to now is      484.6 secs

     total energy              =      -1.03257054 Ry
     estimated scf accuracy    <       0.00000539 Ry

     total magnetization       =     1.00 Bohr mag/cell
     absolute magnetization    =     1.00 Bohr mag/cell

     iteration # 29     ecut=    60.00 Ry     beta= 0.70
     CG style diagonalization
     ethr =  4.39E-08,  avg # of iterations =  3.0

     negative rho (up, down):  5.004E-05 2.956E-07

     total cpu time spent up to now is      499.9 secs

     total energy              =      -1.03257025 Ry
     estimated scf accuracy    <       0.00000594 Ry

     total magnetization       =     1.00 Bohr mag/cell
     absolute magnetization    =     1.00 Bohr mag/cell

     iteration # 30     ecut=    60.00 Ry     beta= 0.70
     CG style diagonalization
     ethr =  4.39E-08,  avg # of iterations =  3.0

     negative rho (up, down):  5.004E-05 2.865E-07

     total cpu time spent up to now is      515.3 secs

     total energy              =      -1.03257026 Ry
     estimated scf accuracy    <       0.00000478 Ry

     total magnetization       =     1.00 Bohr mag/cell
     absolute magnetization    =     1.00 Bohr mag/cell

     iteration # 31     ecut=    60.00 Ry     beta= 0.70
     CG style diagonalization
     ethr =  4.39E-08,  avg # of iterations =  3.0

     negative rho (up, down):  5.015E-05 3.249E-08

     total cpu time spent up to now is      530.6 secs

     total energy              =      -1.03257142 Ry
     estimated scf accuracy    <       0.00000477 Ry

     total magnetization       =     1.00 Bohr mag/cell
     absolute magnetization    =     1.00 Bohr mag/cell

     iteration # 32     ecut=    60.00 Ry     beta= 0.70
     CG style diagonalization
     ethr =  4.39E-08,  avg # of iterations =  3.0

     negative rho (up, down):  5.015E-05 6.238E-08

     total cpu time spent up to now is      546.0 secs

     total energy              =      -1.03257129 Ry
     estimated scf accuracy    <       0.00000975 Ry

     total magnetization       =     1.00 Bohr mag/cell
     absolute magnetization    =     1.00 Bohr mag/cell

     iteration # 33     ecut=    60.00 Ry     beta= 0.70
     CG style diagonalization
     ethr =  4.39E-08,  avg # of iterations =  3.0

     negative rho (up, down):  5.042E-05 6.624E-11

     total cpu time spent up to now is      561.3 secs

     total energy              =      -1.00009017 Ry
     estimated scf accuracy    <       0.00000919 Ry

     total magnetization       =     1.00 Bohr mag/cell
     absolute magnetization    =     1.00 Bohr mag/cell

     iteration # 34     ecut=    60.00 Ry     beta= 0.70
     CG style diagonalization
     ethr =  4.39E-08,  avg # of iterations =  5.3

     negative rho (up, down):  4.924E-05 5.038E-11

     total cpu time spent up to now is      579.5 secs

     total energy              =      -1.00018155 Ry
     estimated scf accuracy    <       0.00000303 Ry

     total magnetization       =     1.00 Bohr mag/cell
     absolute magnetization    =     1.00 Bohr mag/cell

     iteration # 35     ecut=    60.00 Ry     beta= 0.70
     CG style diagonalization
     ethr =  4.39E-08,  avg # of iterations =  3.1

     negative rho (up, down):  4.967E-05 1.835E-11

     total cpu time spent up to now is      595.0 secs

     total energy              =      -1.00018273 Ry
     estimated scf accuracy    <       0.00000181 Ry

     total magnetization       =     1.00 Bohr mag/cell
     absolute magnetization    =     1.00 Bohr mag/cell

     iteration # 36     ecut=    60.00 Ry     beta= 0.70
     CG style diagonalization
     ethr =  4.39E-08,  avg # of iterations =  3.1

     negative rho (up, down):  5.031E-05 1.092E-07

     total cpu time spent up to now is      610.3 secs

     total energy              =      -1.03247930 Ry
     estimated scf accuracy    <       0.00000951 Ry

     total magnetization       =     1.00 Bohr mag/cell
     absolute magnetization    =     1.00 Bohr mag/cell

     iteration # 37     ecut=    60.00 Ry     beta= 0.70
     CG style diagonalization
     ethr =  4.39E-08,  avg # of iterations =  5.3

     negative rho (up, down):  4.961E-05 2.035E-07

     total cpu time spent up to now is      628.1 secs

     total energy              =      -1.03257156 Ry
     estimated scf accuracy    <       0.00000280 Ry

     total magnetization       =     1.00 Bohr mag/cell
     absolute magnetization    =     1.00 Bohr mag/cell

     iteration # 38     ecut=    60.00 Ry     beta= 0.70
     CG style diagonalization
     ethr =  4.39E-08,  avg # of iterations =  3.2

     negative rho (up, down):  4.988E-05 2.399E-12

     total cpu time spent up to now is      643.6 secs

     total energy              =      -1.00008676 Ry
     estimated scf accuracy    <       0.00001134 Ry

     total magnetization       =     1.00 Bohr mag/cell
     absolute magnetization    =     1.00 Bohr mag/cell

     iteration # 39     ecut=    60.00 Ry     beta= 0.70
     CG style diagonalization
     ethr =  4.39E-08,  avg # of iterations =  5.1

     negative rho (up, down):  4.979E-05 3.390E-08

     total cpu time spent up to now is      661.3 secs

     total energy              =      -1.03247734 Ry
     estimated scf accuracy    <       0.00001456 Ry

     total magnetization       =     1.00 Bohr mag/cell
     absolute magnetization    =     1.00 Bohr mag/cell

     iteration # 40     ecut=    60.00 Ry     beta= 0.70
     CG style diagonalization
     ethr =  4.39E-08,  avg # of iterations =  5.2

     negative rho (up, down):  4.972E-05 3.304E-08

     total cpu time spent up to now is      679.1 secs

     total energy              =      -1.03257015 Ry
     estimated scf accuracy    <       0.00000371 Ry

     total magnetization       =     1.00 Bohr mag/cell
     absolute magnetization    =     1.00 Bohr mag/cell

     iteration # 41     ecut=    60.00 Ry     beta= 0.70
     CG style diagonalization
     ethr =  4.39E-08,  avg # of iterations =  3.1

     negative rho (up, down):  4.989E-05 8.489E-09

     total cpu time spent up to now is      694.6 secs

     total energy              =      -1.03257046 Ry
     estimated scf accuracy    <       0.00000370 Ry

     total magnetization       =     1.00 Bohr mag/cell
     absolute magnetization    =     1.00 Bohr mag/cell

     iteration # 42     ecut=    60.00 Ry     beta= 0.70
     CG style diagonalization
     ethr =  4.39E-08,  avg # of iterations =  3.0

     negative rho (up, down):  4.995E-05 2.159E-08

     total cpu time spent up to now is      715.9 secs

     total energy              =      -1.03257020 Ry
     estimated scf accuracy    <       0.00000507 Ry

     total magnetization       =     1.00 Bohr mag/cell
     absolute magnetization    =     1.00 Bohr mag/cell

     iteration # 43     ecut=    60.00 Ry     beta= 0.70
     CG style diagonalization
     ethr =  4.39E-08,  avg # of iterations =  3.0

     negative rho (up, down):  4.997E-05 2.359E-08

     total cpu time spent up to now is      731.9 secs

     total energy              =      -1.03257025 Ry
     estimated scf accuracy    <       0.00000396 Ry

     total magnetization       =     1.00 Bohr mag/cell
     absolute magnetization    =     1.00 Bohr mag/cell

     iteration # 44     ecut=    60.00 Ry     beta= 0.70
     CG style diagonalization
     ethr =  4.39E-08,  avg # of iterations =  3.0

     negative rho (up, down):  4.995E-05 6.787E-09

     total cpu time spent up to now is      747.2 secs

     total energy              =      -1.03256964 Ry
     estimated scf accuracy    <       0.00000415 Ry

     total magnetization       =     1.00 Bohr mag/cell
     absolute magnetization    =     1.00 Bohr mag/cell

     iteration # 45     ecut=    60.00 Ry     beta= 0.70
     CG style diagonalization
     ethr =  4.39E-08,  avg # of iterations =  3.0

     negative rho (up, down):  5.003E-05 4.722E-08

     total cpu time spent up to now is      762.4 secs

     total energy              =      -1.03257064 Ry
     estimated scf accuracy    <       0.00000146 Ry

     total magnetization       =     1.00 Bohr mag/cell
     absolute magnetization    =     1.00 Bohr mag/cell

     iteration # 46     ecut=    60.00 Ry     beta= 0.70
     CG style diagonalization
     ethr =  4.39E-08,  avg # of iterations =  3.1

     negative rho (up, down):  5.001E-05 7.157E-09

     total cpu time spent up to now is      777.8 secs

     total energy              =      -1.03256923 Ry
     estimated scf accuracy    <       0.00000642 Ry

     total magnetization       =     1.00 Bohr mag/cell
     absolute magnetization    =     1.00 Bohr mag/cell

     iteration # 47     ecut=    60.00 Ry     beta= 0.70
     CG style diagonalization
     ethr =  4.39E-08,  avg # of iterations =  3.1

     negative rho (up, down):  4.996E-05 9.664E-09

     total cpu time spent up to now is      793.2 secs

     total energy              =      -1.03256985 Ry
     estimated scf accuracy    <       0.00000021 Ry

     total magnetization       =     1.00 Bohr mag/cell
     absolute magnetization    =     1.00 Bohr mag/cell

     iteration # 48     ecut=    60.00 Ry     beta= 0.70
     CG style diagonalization
     ethr =  2.13E-08,  avg # of iterations =  3.1

     negative rho (up, down):  4.996E-05 8.641E-12

     total cpu time spent up to now is      808.6 secs

     total energy              =      -1.00009085 Ry
     estimated scf accuracy    <       0.00000251 Ry

     total magnetization       =     1.00 Bohr mag/cell
     absolute magnetization    =     1.00 Bohr mag/cell

     iteration # 49     ecut=    60.00 Ry     beta= 0.70
     CG style diagonalization
     ethr =  2.13E-08,  avg # of iterations =  5.2

     negative rho (up, down):  4.993E-05 7.161E-12

     total cpu time spent up to now is      826.5 secs

     total energy              =      -1.00018461 Ry
     estimated scf accuracy    <       0.00002102 Ry

     total magnetization       =     1.00 Bohr mag/cell
     absolute magnetization    =     1.00 Bohr mag/cell

     iteration # 50     ecut=    60.00 Ry     beta= 0.70
     CG style diagonalization
     ethr =  2.13E-08,  avg # of iterations =  3.0

     negative rho (up, down):  5.022E-05 3.326E-12

     total cpu time spent up to now is      841.7 secs

     total energy              =      -1.00018446 Ry
     estimated scf accuracy    <       0.00001993 Ry

     total magnetization       =     1.00 Bohr mag/cell
     absolute magnetization    =     1.00 Bohr mag/cell

     iteration # 51     ecut=    60.00 Ry     beta= 0.70
     CG style diagonalization
     ethr =  2.13E-08,  avg # of iterations =  3.0

     negative rho (up, down):  5.045E-05 2.010E-08

     total cpu time spent up to now is      857.0 secs

     total energy              =      -1.03247701 Ry
     estimated scf accuracy    <       0.00001912 Ry

     total magnetization       =     1.00 Bohr mag/cell
     absolute magnetization    =     1.00 Bohr mag/cell

     iteration # 52     ecut=    60.00 Ry     beta= 0.70
     CG style diagonalization
     ethr =  2.13E-08,  avg # of iterations =  5.2

     negative rho (up, down):  5.038E-05 4.638E-08

     total cpu time spent up to now is      874.6 secs

     total energy              =      -1.03256931 Ry
     estimated scf accuracy    <       0.00000191 Ry

     total magnetization       =     1.00 Bohr mag/cell
     absolute magnetization    =     1.00 Bohr mag/cell

     iteration # 53     ecut=    60.00 Ry     beta= 0.70
     CG style diagonalization
     ethr =  2.13E-08,  avg # of iterations =  3.3

     negative rho (up, down):  5.015E-05 5.287E-08

     total cpu time spent up to now is      890.2 secs

     total energy              =      -1.03257239 Ry
     estimated scf accuracy    <       0.00000096 Ry

     total magnetization       =     1.00 Bohr mag/cell
     absolute magnetization    =     1.00 Bohr mag/cell

     iteration # 54     ecut=    60.00 Ry     beta= 0.70
     CG style diagonalization
     ethr =  2.13E-08,  avg # of iterations =  3.2

     negative rho (up, down):  5.044E-05 3.907E-08

     total cpu time spent up to now is      905.7 secs

     total energy              =      -1.03257346 Ry
     estimated scf accuracy    <       0.00002067 Ry

     total magnetization       =     1.00 Bohr mag/cell
     absolute magnetization    =     1.00 Bohr mag/cell

     iteration # 55     ecut=    60.00 Ry     beta= 0.70
     CG style diagonalization
     ethr =  2.13E-08,  avg # of iterations =  3.0

     negative rho (up, down):  5.032E-05 3.256E-11

     total cpu time spent up to now is      921.0 secs

     total energy              =      -1.00008243 Ry
     estimated scf accuracy    <       0.00001971 Ry

     total magnetization       =     1.00 Bohr mag/cell
     absolute magnetization    =     1.00 Bohr mag/cell

     iteration # 56     ecut=    60.00 Ry     beta= 0.70
     CG style diagonalization
     ethr =  2.13E-08,  avg # of iterations =  5.2

     negative rho (up, down):  4.980E-05 1.418E-12

     total cpu time spent up to now is      938.8 secs

     total energy              =      -1.00018357 Ry
     estimated scf accuracy    <       0.00005798 Ry

     total magnetization       =     1.00 Bohr mag/cell
     absolute magnetization    =     1.00 Bohr mag/cell

     iteration # 57     ecut=    60.00 Ry     beta= 0.70
     CG style diagonalization
     ethr =  2.13E-08,  avg # of iterations =  3.2

     negative rho (up, down):  4.901E-05 4.566E-08

     total cpu time spent up to now is      954.3 secs

     total energy              =      -1.03247274 Ry
     estimated scf accuracy    <       0.00001735 Ry

     total magnetization       =     1.00 Bohr mag/cell
     absolute magnetization    =     1.00 Bohr mag/cell

     iteration # 58     ecut=    60.00 Ry     beta= 0.70
     CG style diagonalization
     ethr =  2.13E-08,  avg # of iterations =  5.2

     negative rho (up, down):  4.985E-05 1.382E-11

     total cpu time spent up to now is      971.9 secs

     total energy              =      -1.00007976 Ry
     estimated scf accuracy    <       0.00003055 Ry

     total magnetization       =     1.00 Bohr mag/cell
     absolute magnetization    =     1.00 Bohr mag/cell

     iteration # 59     ecut=    60.00 Ry     beta= 0.70
     CG style diagonalization
     ethr =  2.13E-08,  avg # of iterations =  5.3

     negative rho (up, down):  5.034E-05 9.594E-13

     total cpu time spent up to now is      989.7 secs

     total energy              =      -1.00018593 Ry
     estimated scf accuracy    <       0.00002753 Ry

     total magnetization       =     1.00 Bohr mag/cell
     absolute magnetization    =     1.00 Bohr mag/cell

     iteration # 60     ecut=    60.00 Ry     beta= 0.70
     CG style diagonalization
     ethr =  2.13E-08,  avg # of iterations =  3.0

     negative rho (up, down):  5.034E-05 1.400E-09

     total cpu time spent up to now is     1005.0 secs

     total energy              =      -1.03247526 Ry
     estimated scf accuracy    <       0.00002739 Ry

     total magnetization       =     1.00 Bohr mag/cell
     absolute magnetization    =     1.00 Bohr mag/cell

     iteration # 61     ecut=    60.00 Ry     beta= 0.70
     CG style diagonalization
     ethr =  2.13E-08,  avg # of iterations =  5.1

     negative rho (up, down):  4.962E-05 1.263E-08

     total cpu time spent up to now is     1022.6 secs

     total energy              =      -1.03257039 Ry
     estimated scf accuracy    <       0.00000190 Ry

     total magnetization       =     1.00 Bohr mag/cell
     absolute magnetization    =     1.00 Bohr mag/cell

     iteration # 62     ecut=    60.00 Ry     beta= 0.70
     CG style diagonalization
     ethr =  2.13E-08,  avg # of iterations =  3.2

     negative rho (up, down):  4.985E-05 5.692E-09

     total cpu time spent up to now is     1038.2 secs

     total energy              =      -1.03257033 Ry
     estimated scf accuracy    <       0.00000492 Ry

     total magnetization       =     1.00 Bohr mag/cell
     absolute magnetization    =     1.00 Bohr mag/cell

     iteration # 63     ecut=    60.00 Ry     beta= 0.70
     CG style diagonalization
     ethr =  2.13E-08,  avg # of iterations =  3.0

     negative rho (up, down):  4.994E-05 2.622E-09

     total cpu time spent up to now is     1053.5 secs

     total energy              =      -1.03257020 Ry
     estimated scf accuracy    <       0.00000452 Ry

     total magnetization       =     1.00 Bohr mag/cell
     absolute magnetization    =     1.00 Bohr mag/cell

     iteration # 64     ecut=    60.00 Ry     beta= 0.70
     CG style diagonalization
     ethr =  2.13E-08,  avg # of iterations =  3.0

     negative rho (up, down):  5.002E-05 1.057E-08

     total cpu time spent up to now is     1068.8 secs

     total energy              =      -1.03257085 Ry
     estimated scf accuracy    <       0.00000390 Ry

     total magnetization       =     1.00 Bohr mag/cell
     absolute magnetization    =     1.00 Bohr mag/cell

     iteration # 65     ecut=    60.00 Ry     beta= 0.70
     CG style diagonalization
     ethr =  2.13E-08,  avg # of iterations =  3.0

     negative rho (up, down):  5.001E-05 9.126E-09

     total cpu time spent up to now is     1084.0 secs

     total energy              =      -1.03257067 Ry
     estimated scf accuracy    <       0.00000693 Ry

     total magnetization       =     1.00 Bohr mag/cell
     absolute magnetization    =     1.00 Bohr mag/cell

     iteration # 66     ecut=    60.00 Ry     beta= 0.70
     CG style diagonalization
     ethr =  2.13E-08,  avg # of iterations =  3.0

     negative rho (up, down):  4.999E-05 3.624E-09

     total cpu time spent up to now is     1099.3 secs

     total energy              =      -1.03257039 Ry
     estimated scf accuracy    <       0.00000612 Ry

     total magnetization       =     1.00 Bohr mag/cell
     absolute magnetization    =     1.00 Bohr mag/cell

     iteration # 67     ecut=    60.00 Ry     beta= 0.70
     CG style diagonalization
     ethr =  2.13E-08,  avg # of iterations =  3.0

     negative rho (up, down):  5.007E-05 1.445E-09

     total cpu time spent up to now is     1114.8 secs

     total energy              =      -1.03257063 Ry
     estimated scf accuracy    <       0.00000484 Ry

     total magnetization       =     1.00 Bohr mag/cell
     absolute magnetization    =     1.00 Bohr mag/cell

     iteration # 68     ecut=    60.00 Ry     beta= 0.70
     CG style diagonalization
     ethr =  2.13E-08,  avg # of iterations =  3.0

     negative rho (up, down):  4.999E-05 4.778E-13

     total cpu time spent up to now is     1130.1 secs

     total energy              =      -1.00008906 Ry
     estimated scf accuracy    <       0.00000589 Ry

     total magnetization       =     1.00 Bohr mag/cell
     absolute magnetization    =     1.00 Bohr mag/cell

     iteration # 69     ecut=    60.00 Ry     beta= 0.70
     CG style diagonalization
     ethr =  2.13E-08,  avg # of iterations =  5.2

     negative rho (up, down):  4.973E-05 1.729E-09

     total cpu time spent up to now is     1147.9 secs

     total energy              =      -1.03247627 Ry
     estimated scf accuracy    <       0.00001750 Ry

     total magnetization       =     1.00 Bohr mag/cell
     absolute magnetization    =     1.00 Bohr mag/cell

     iteration # 70     ecut=    60.00 Ry     beta= 0.70
     CG style diagonalization
     ethr =  2.13E-08,  avg # of iterations =  5.3

     negative rho (up, down):  4.975E-05 4.909E-09

     total cpu time spent up to now is     1165.7 secs

     total energy              =      -1.03257052 Ry
     estimated scf accuracy    <       0.00000429 Ry

     total magnetization       =     1.00 Bohr mag/cell
     absolute magnetization    =     1.00 Bohr mag/cell

     iteration # 71     ecut=    60.00 Ry     beta= 0.70
     CG style diagonalization
     ethr =  2.13E-08,  avg # of iterations =  3.1

     negative rho (up, down):  4.977E-05 1.506E-12

     total cpu time spent up to now is     1181.2 secs

     total energy              =      -1.00008919 Ry
     estimated scf accuracy    <       0.00000540 Ry

     total magnetization       =     1.00 Bohr mag/cell
     absolute magnetization    =     1.00 Bohr mag/cell

     iteration # 72     ecut=    60.00 Ry     beta= 0.70
     CG style diagonalization
     ethr =  2.13E-08,  avg # of iterations =  5.2

     negative rho (up, down):  4.948E-05 2.642E-09

     total cpu time spent up to now is     1199.0 secs

     total energy              =      -1.03247438 Ry
     estimated scf accuracy    <       0.00002055 Ry

     total magnetization       =     1.00 Bohr mag/cell
     absolute magnetization    =     1.00 Bohr mag/cell

     iteration # 73     ecut=    60.00 Ry     beta= 0.70
     CG style diagonalization
     ethr =  2.13E-08,  avg # of iterations =  5.2

     negative rho (up, down):  4.973E-05 1.291E-12

     total cpu time spent up to now is     1216.7 secs

     total energy              =      -1.00008788 Ry
     estimated scf accuracy    <       0.00000787 Ry

     total magnetization       =     1.00 Bohr mag/cell
     absolute magnetization    =     1.00 Bohr mag/cell

     iteration # 74     ecut=    60.00 Ry     beta= 0.70
     CG style diagonalization
     ethr =  2.13E-08,  avg # of iterations =  5.3

     negative rho (up, down):  4.998E-05 2.569E-09

     total cpu time spent up to now is     1234.7 secs

     total energy              =      -1.03247662 Ry
     estimated scf accuracy    <       0.00001749 Ry

     total magnetization       =     1.00 Bohr mag/cell
     absolute magnetization    =     1.00 Bohr mag/cell

     iteration # 75     ecut=    60.00 Ry     beta= 0.70
     CG style diagonalization
     ethr =  2.13E-08,  avg # of iterations =  5.2

     negative rho (up, down):  4.972E-05 2.436E-09

     total cpu time spent up to now is     1252.4 secs

     total energy              =      -1.03257026 Ry
     estimated scf accuracy    <       0.00000352 Ry

     total magnetization       =     1.00 Bohr mag/cell
     absolute magnetization    =     1.00 Bohr mag/cell

     iteration # 76     ecut=    60.00 Ry     beta= 0.70
     CG style diagonalization
     ethr =  2.13E-08,  avg # of iterations =  3.1

     negative rho (up, down):  4.990E-05 2.023E-09

     total cpu time spent up to now is     1267.9 secs

     total energy              =      -1.03257040 Ry
     estimated scf accuracy    <       0.00000417 Ry

     total magnetization       =     1.00 Bohr mag/cell
     absolute magnetization    =     1.00 Bohr mag/cell

     iteration # 77     ecut=    60.00 Ry     beta= 0.70
     CG style diagonalization
     ethr =  2.13E-08,  avg # of iterations =  3.0

     negative rho (up, down):  4.998E-05 8.472E-10

     total cpu time spent up to now is     1283.1 secs

     total energy              =      -1.03257035 Ry
     estimated scf accuracy    <       0.00000483 Ry

     total magnetization       =     1.00 Bohr mag/cell
     absolute magnetization    =     1.00 Bohr mag/cell

     iteration # 78     ecut=    60.00 Ry     beta= 0.70
     CG style diagonalization
     ethr =  2.13E-08,  avg # of iterations =  3.0

     negative rho (up, down):  4.999E-05 1.342E-09

     total cpu time spent up to now is     1298.5 secs

     total energy              =      -1.03257025 Ry
     estimated scf accuracy    <       0.00000461 Ry

     total magnetization       =     1.00 Bohr mag/cell
     absolute magnetization    =     1.00 Bohr mag/cell

     iteration # 79     ecut=    60.00 Ry     beta= 0.70
     CG style diagonalization
     ethr =  2.13E-08,  avg # of iterations =  3.0

     negative rho (up, down):  4.997E-05 1.462E-09

     total cpu time spent up to now is     1313.8 secs

     total energy              =      -1.03257007 Ry
     estimated scf accuracy    <       0.00000416 Ry

     total magnetization       =     1.00 Bohr mag/cell
     absolute magnetization    =     1.00 Bohr mag/cell

     iteration # 80     ecut=    60.00 Ry     beta= 0.70
     CG style diagonalization
     ethr =  2.13E-08,  avg # of iterations =  3.0

     negative rho (up, down):  4.996E-05 1.594E-09

     total cpu time spent up to now is     1329.1 secs

     total energy              =      -1.03256997 Ry
     estimated scf accuracy    <       0.00000330 Ry

     total magnetization       =     1.00 Bohr mag/cell
     absolute magnetization    =     1.00 Bohr mag/cell

     iteration # 81     ecut=    60.00 Ry     beta= 0.70
     CG style diagonalization
     ethr =  2.13E-08,  avg # of iterations =  3.0

     negative rho (up, down):  4.994E-05 1.954E-10

     total cpu time spent up to now is     1344.3 secs

     total energy              =      -1.03256956 Ry
     estimated scf accuracy    <       0.00000280 Ry

     total magnetization       =     1.00 Bohr mag/cell
     absolute magnetization    =     1.00 Bohr mag/cell

     iteration # 82     ecut=    60.00 Ry     beta= 0.70
     CG style diagonalization
     ethr =  2.13E-08,  avg # of iterations =  3.0

     negative rho (up, down):  4.991E-05 6.030E-14

     total cpu time spent up to now is     1359.6 secs

     total energy              =      -1.00009132 Ry
     estimated scf accuracy    <       0.00000098 Ry

     total magnetization       =     1.00 Bohr mag/cell
     absolute magnetization    =     1.00 Bohr mag/cell

     iteration # 83     ecut=    60.00 Ry     beta= 0.70
     CG style diagonalization
     ethr =  2.13E-08,  avg # of iterations =  5.2

     negative rho (up, down):  4.997E-05 1.792E-13

     total cpu time spent up to now is     1377.4 secs

     total energy              =      -1.00018493 Ry
     estimated scf accuracy    <       0.00002685 Ry

     total magnetization       =     1.00 Bohr mag/cell
     absolute magnetization    =     1.00 Bohr mag/cell

     iteration # 84     ecut=    60.00 Ry     beta= 0.70
     CG style diagonalization
     ethr =  2.13E-08,  avg # of iterations =  3.0

     negative rho (up, down):  5.058E-05 1.548E-13

     total cpu time spent up to now is     1392.7 secs

     total energy              =      -1.00018579 Ry
     estimated scf accuracy    <       0.00002201 Ry

     total magnetization       =     1.00 Bohr mag/cell
     absolute magnetization    =     1.00 Bohr mag/cell

     iteration # 85     ecut=    60.00 Ry     beta= 0.70
     CG style diagonalization
     ethr =  2.13E-08,  avg # of iterations =  3.0

     negative rho (up, down):  5.037E-05 6.764E-13

     total cpu time spent up to now is     1408.1 secs

     total energy              =      -1.00018465 Ry
     estimated scf accuracy    <       0.00002651 Ry

     total magnetization       =     1.00 Bohr mag/cell
     absolute magnetization    =     1.00 Bohr mag/cell

     iteration # 86     ecut=    60.00 Ry     beta= 0.70
     CG style diagonalization
     ethr =  2.13E-08,  avg # of iterations =  3.0

     negative rho (up, down):  5.102E-05 9.976E-13

     total cpu time spent up to now is     1423.4 secs

     total energy              =      -1.00018651 Ry
     estimated scf accuracy    <       0.00002047 Ry

     total magnetization       =     1.00 Bohr mag/cell
     absolute magnetization    =     1.00 Bohr mag/cell

     iteration # 87     ecut=    60.00 Ry     beta= 0.70
     CG style diagonalization
     ethr =  2.13E-08,  avg # of iterations =  3.1

     negative rho (up, down):  5.063E-05 1.406E-09

     total cpu time spent up to now is     1438.8 secs

     total energy              =      -1.03247529 Ry
     estimated scf accuracy    <       0.00003084 Ry

     total magnetization       =     1.00 Bohr mag/cell
     absolute magnetization    =     1.00 Bohr mag/cell

     iteration # 88     ecut=    60.00 Ry     beta= 0.70
     CG style diagonalization
     ethr =  2.13E-08,  avg # of iterations =  5.2

     negative rho (up, down):  4.976E-05 1.580E-09

     total cpu time spent up to now is     1456.6 secs

     total energy              =      -1.03256957 Ry
     estimated scf accuracy    <       0.00000121 Ry

     total magnetization       =     1.00 Bohr mag/cell
     absolute magnetization    =     1.00 Bohr mag/cell

     iteration # 89     ecut=    60.00 Ry     beta= 0.70
     CG style diagonalization
     ethr =  2.13E-08,  avg # of iterations =  3.0

     negative rho (up, down):  4.996E-05 1.363E-09

     total cpu time spent up to now is     1471.9 secs

     total energy              =      -1.03257175 Ry
     estimated scf accuracy    <       0.00000093 Ry

     total magnetization       =     1.00 Bohr mag/cell
     absolute magnetization    =     1.00 Bohr mag/cell

     iteration # 90     ecut=    60.00 Ry     beta= 0.70
     CG style diagonalization
     ethr =  2.13E-08,  avg # of iterations =  3.2

     negative rho (up, down):  4.996E-05 2.793E-10

     total cpu time spent up to now is     1487.3 secs

     total energy              =      -1.03257028 Ry
     estimated scf accuracy    <       0.00001261 Ry

     total magnetization       =     1.00 Bohr mag/cell
     absolute magnetization    =     1.00 Bohr mag/cell

     iteration # 91     ecut=    60.00 Ry     beta= 0.70
     CG style diagonalization
     ethr =  2.13E-08,  avg # of iterations =  3.1

     negative rho (up, down):  4.993E-05 2.296E-13

     total cpu time spent up to now is     1502.7 secs

     total energy              =      -1.00008911 Ry
     estimated scf accuracy    <       0.00000465 Ry

     total magnetization       =     1.00 Bohr mag/cell
     absolute magnetization    =     1.00 Bohr mag/cell

     iteration # 92     ecut=    60.00 Ry     beta= 0.70
     CG style diagonalization
     ethr =  2.13E-08,  avg # of iterations =  5.2

     negative rho (up, down):  4.976E-05 8.296E-11

     total cpu time spent up to now is     1520.6 secs

     total energy              =      -1.03247524 Ry
     estimated scf accuracy    <       0.00002314 Ry

     total magnetization       =     1.00 Bohr mag/cell
     absolute magnetization    =     1.00 Bohr mag/cell

     iteration # 93     ecut=    60.00 Ry     beta= 0.70
     CG style diagonalization
     ethr =  2.13E-08,  avg # of iterations =  5.3

     negative rho (up, down):  4.970E-05 1.232E-10

     total cpu time spent up to now is     1538.4 secs

     total energy              =      -1.03257041 Ry
     estimated scf accuracy    <       0.00000359 Ry

     total magnetization       =     1.00 Bohr mag/cell
     absolute magnetization    =     1.00 Bohr mag/cell

     iteration # 94     ecut=    60.00 Ry     beta= 0.70
     CG style diagonalization
     ethr =  2.13E-08,  avg # of iterations =  3.2

     negative rho (up, down):  4.986E-05 1.615E-10

     total cpu time spent up to now is     1554.0 secs

     total energy              =      -1.03257008 Ry
     estimated scf accuracy    <       0.00000484 Ry

     total magnetization       =     1.00 Bohr mag/cell
     absolute magnetization    =     1.00 Bohr mag/cell

     iteration # 95     ecut=    60.00 Ry     beta= 0.70
     CG style diagonalization
     ethr =  2.13E-08,  avg # of iterations =  3.0

     negative rho (up, down):  4.993E-05 3.588E-11

     total cpu time spent up to now is     1569.3 secs

     total energy              =      -1.03257002 Ry
     estimated scf accuracy    <       0.00000337 Ry

     total magnetization       =     1.00 Bohr mag/cell
     absolute magnetization    =     1.00 Bohr mag/cell

     iteration # 96     ecut=    60.00 Ry     beta= 0.70
     CG style diagonalization
     ethr =  2.13E-08,  avg # of iterations =  3.0

     negative rho (up, down):  5.000E-05 4.955E-10

     total cpu time spent up to now is     1584.5 secs

     total energy              =      -1.03257087 Ry
     estimated scf accuracy    <       0.00000304 Ry

     total magnetization       =     1.00 Bohr mag/cell
     absolute magnetization    =     1.00 Bohr mag/cell

     iteration # 97     ecut=    60.00 Ry     beta= 0.70
     CG style diagonalization
     ethr =  2.13E-08,  avg # of iterations =  3.1

     negative rho (up, down):  5.005E-05 7.408E-10

     total cpu time spent up to now is     1600.0 secs

     total energy              =      -1.03257116 Ry
     estimated scf accuracy    <       0.00000722 Ry

     total magnetization       =     1.00 Bohr mag/cell
     absolute magnetization    =     1.00 Bohr mag/cell

     iteration # 98     ecut=    60.00 Ry     beta= 0.70
     CG style diagonalization
     ethr =  2.13E-08,  avg # of iterations =  3.0

     negative rho (up, down):  5.009E-05 1.020E-13

     total cpu time spent up to now is     1615.3 secs

     total energy              =      -1.00008889 Ry
     estimated scf accuracy    <       0.00000839 Ry

     total magnetization       =     1.00 Bohr mag/cell
     absolute magnetization    =     1.00 Bohr mag/cell

     iteration # 99     ecut=    60.00 Ry     beta= 0.70
     CG style diagonalization
     ethr =  2.13E-08,  avg # of iterations =  5.2

     negative rho (up, down):  4.954E-05 4.222E-13

     total cpu time spent up to now is     1633.2 secs

     total energy              =      -1.00018298 Ry
     estimated scf accuracy    <       0.00000882 Ry

     total magnetization       =     1.00 Bohr mag/cell
     absolute magnetization    =     1.00 Bohr mag/cell

     iteration #100     ecut=    60.00 Ry     beta= 0.70
     CG style diagonalization
     ethr =  2.13E-08,  avg # of iterations =  3.0

     negative rho (up, down):  4.998E-05 1.361E-10

     total cpu time spent up to now is     1648.4 secs

     total energy              =      -1.03247860 Ry
     estimated scf accuracy    <       0.00001082 Ry

     total magnetization       =     1.00 Bohr mag/cell
     absolute magnetization    =     1.00 Bohr mag/cell

     iteration #101     ecut=    60.00 Ry     beta= 0.70
     CG style diagonalization
     ethr =  2.13E-08,  avg # of iterations =  5.2

     negative rho (up, down):  4.967E-05 2.373E-11

     total cpu time spent up to now is     1666.1 secs

     total energy              =      -1.03257001 Ry
     estimated scf accuracy    <       0.00000404 Ry

     total magnetization       =     1.00 Bohr mag/cell
     absolute magnetization    =     1.00 Bohr mag/cell

     iteration #102     ecut=    60.00 Ry     beta= 0.70
     CG style diagonalization
     ethr =  2.13E-08,  avg # of iterations =  3.0

     negative rho (up, down):  4.995E-05 7.266E-11

     total cpu time spent up to now is     1681.5 secs

     total energy              =      -1.03257158 Ry
     estimated scf accuracy    <       0.00000304 Ry

     total magnetization       =     1.00 Bohr mag/cell
     absolute magnetization    =     1.00 Bohr mag/cell

     iteration #103     ecut=    60.00 Ry     beta= 0.70
     CG style diagonalization
     ethr =  2.13E-08,  avg # of iterations =  3.1

     negative rho (up, down):  4.998E-05 1.033E-14

     total cpu time spent up to now is     1696.9 secs

     total energy              =      -1.00008763 Ry
     estimated scf accuracy    <       0.00001083 Ry

     total magnetization       =     1.00 Bohr mag/cell
     absolute magnetization    =     1.00 Bohr mag/cell

     iteration #104     ecut=    60.00 Ry     beta= 0.70
     CG style diagonalization
     ethr =  2.13E-08,  avg # of iterations =  5.2

     negative rho (up, down):  4.944E-05 5.579E-11

     total cpu time spent up to now is     1714.8 secs

     total energy              =      -1.03247752 Ry
     estimated scf accuracy    <       0.00000952 Ry

     total magnetization       =     1.00 Bohr mag/cell
     absolute magnetization    =     1.00 Bohr mag/cell

     iteration #105     ecut=    60.00 Ry     beta= 0.70
     CG style diagonalization
     ethr =  2.13E-08,  avg # of iterations =  5.2

     negative rho (up, down):  4.981E-05 2.837E-10

     total cpu time spent up to now is     1732.5 secs

     total energy              =      -1.03256951 Ry
     estimated scf accuracy    <       0.00000768 Ry

     total magnetization       =     1.00 Bohr mag/cell
     absolute magnetization    =     1.00 Bohr mag/cell

     iteration #106     ecut=    60.00 Ry     beta= 0.70
     CG style diagonalization
     ethr =  2.13E-08,  avg # of iterations =  3.2

     negative rho (up, down):  4.993E-05 1.613E-10

     total cpu time spent up to now is     1748.1 secs

     total energy              =      -1.03256940 Ry
     estimated scf accuracy    <       0.00000122 Ry

     total magnetization       =     1.00 Bohr mag/cell
     absolute magnetization    =     1.00 Bohr mag/cell

     iteration #107     ecut=    60.00 Ry     beta= 0.70
     CG style diagonalization
     ethr =  2.13E-08,  avg # of iterations =  3.0

     negative rho (up, down):  4.995E-05 5.037E-15

     total cpu time spent up to now is     1763.4 secs

     total energy              =      -1.00009256 Ry
     estimated scf accuracy    <       0.00000023 Ry

     total magnetization       =     1.00 Bohr mag/cell
     absolute magnetization    =     1.00 Bohr mag/cell

     iteration #108     ecut=    60.00 Ry     beta= 0.70
     CG style diagonalization
     ethr =  2.13E-08,  avg # of iterations =  5.2

     negative rho (up, down):  5.035E-05 5.213E-11

     total cpu time spent up to now is     1781.3 secs

     total energy              =      -1.03247619 Ry
     estimated scf accuracy    <       0.00003271 Ry

     total magnetization       =     1.00 Bohr mag/cell
     absolute magnetization    =     1.00 Bohr mag/cell

     iteration #109     ecut=    60.00 Ry     beta= 0.70
     CG style diagonalization
     ethr =  2.13E-08,  avg # of iterations =  5.2

     negative rho (up, down):  4.975E-05 1.199E-10

     total cpu time spent up to now is     1799.0 secs

     total energy              =      -1.03256970 Ry
     estimated scf accuracy    <       0.00000023 Ry

     total magnetization       =     1.00 Bohr mag/cell
     absolute magnetization    =     1.00 Bohr mag/cell

     iteration #110     ecut=    60.00 Ry     beta= 0.70
     CG style diagonalization
     ethr =  2.13E-08,  avg # of iterations =  3.2

     negative rho (up, down):  4.985E-05 8.249E-11

     total cpu time spent up to now is     1814.6 secs

     total energy              =      -1.03257001 Ry
     estimated scf accuracy    <       0.00000166 Ry

     total magnetization       =     1.00 Bohr mag/cell
     absolute magnetization    =     1.00 Bohr mag/cell

     iteration #111     ecut=    60.00 Ry     beta= 0.70
     CG style diagonalization
     ethr =  2.13E-08,  avg # of iterations =  3.0

     negative rho (up, down):  4.992E-05 5.043E-11

     total cpu time spent up to now is     1829.8 secs

     total energy              =      -1.03256996 Ry
     estimated scf accuracy    <       0.00000299 Ry

     total magnetization       =     1.00 Bohr mag/cell
     absolute magnetization    =     1.00 Bohr mag/cell

     iteration #112     ecut=    60.00 Ry     beta= 0.70
     CG style diagonalization
     ethr =  2.13E-08,  avg # of iterations =  3.0

     negative rho (up, down):  4.996E-05 3.122E-11

     total cpu time spent up to now is     1845.2 secs

     total energy              =      -1.03257016 Ry
     estimated scf accuracy    <       0.00000276 Ry

     total magnetization       =     1.00 Bohr mag/cell
     absolute magnetization    =     1.00 Bohr mag/cell

     iteration #113     ecut=    60.00 Ry     beta= 0.70
     CG style diagonalization
     ethr =  2.13E-08,  avg # of iterations =  3.0

     negative rho (up, down):  4.996E-05 3.929E-11

     total cpu time spent up to now is     1860.5 secs

     total energy              =      -1.03257001 Ry
     estimated scf accuracy    <       0.00000369 Ry

     total magnetization       =     1.00 Bohr mag/cell
     absolute magnetization    =     1.00 Bohr mag/cell

     iteration #114     ecut=    60.00 Ry     beta= 0.70
     CG style diagonalization
     ethr =  2.13E-08,  avg # of iterations =  3.0

     negative rho (up, down):  4.997E-05 3.863E-11

     total cpu time spent up to now is     1875.8 secs

     total energy              =      -1.03257010 Ry
     estimated scf accuracy    <       0.00000301 Ry

     total magnetization       =     1.00 Bohr mag/cell
     absolute magnetization    =     1.00 Bohr mag/cell

     iteration #115     ecut=    60.00 Ry     beta= 0.70
     CG style diagonalization
     ethr =  2.13E-08,  avg # of iterations =  3.0

     negative rho (up, down):  4.994E-05 4.961E-11

     total cpu time spent up to now is     1891.2 secs

     total energy              =      -1.03256989 Ry
     estimated scf accuracy    <       0.00000341 Ry

     total magnetization       =     1.00 Bohr mag/cell
     absolute magnetization    =     1.00 Bohr mag/cell

     iteration #116     ecut=    60.00 Ry     beta= 0.70
     CG style diagonalization
     ethr =  2.13E-08,  avg # of iterations =  3.0

     negative rho (up, down):  4.994E-05 1.693E-11

     total cpu time spent up to now is     1906.5 secs

     total energy              =      -1.03256992 Ry
     estimated scf accuracy    <       0.00000244 Ry

     total magnetization       =     1.00 Bohr mag/cell
     absolute magnetization    =     1.00 Bohr mag/cell

     iteration #117     ecut=    60.00 Ry     beta= 0.70
     CG style diagonalization
     ethr =  2.13E-08,  avg # of iterations =  3.0

     negative rho (up, down):  4.994E-05 1.570E-11

     total cpu time spent up to now is     1921.7 secs

     total energy              =      -1.03256991 Ry
     estimated scf accuracy    <       0.00000259 Ry

     total magnetization       =     1.00 Bohr mag/cell
     absolute magnetization    =     1.00 Bohr mag/cell

     iteration #118     ecut=    60.00 Ry     beta= 0.70
     CG style diagonalization
     ethr =  2.13E-08,  avg # of iterations =  3.0

     negative rho (up, down):  4.994E-05 1.673E-11

     total cpu time spent up to now is     1937.1 secs

     total energy              =      -1.03256990 Ry
     estimated scf accuracy    <       0.00000254 Ry

     total magnetization       =     1.00 Bohr mag/cell
     absolute magnetization    =     1.00 Bohr mag/cell

     iteration #119     ecut=    60.00 Ry     beta= 0.70
     CG style diagonalization
     ethr =  2.13E-08,  avg # of iterations =  3.0

     negative rho (up, down):  4.996E-05 1.278E-13

     total cpu time spent up to now is     1952.4 secs

     total energy              =      -1.00009038 Ry
     estimated scf accuracy    <       0.00000247 Ry

     total magnetization       =     1.00 Bohr mag/cell
     absolute magnetization    =     1.00 Bohr mag/cell

     iteration #120     ecut=    60.00 Ry     beta= 0.70
     CG style diagonalization
     ethr =  2.13E-08,  avg # of iterations =  5.2

     negative rho (up, down):  5.016E-05 6.539E-14

     total cpu time spent up to now is     1970.3 secs

     total energy              =      -1.00018579 Ry
     estimated scf accuracy    <       0.00003702 Ry

     total magnetization       =     1.00 Bohr mag/cell
     absolute magnetization    =     1.00 Bohr mag/cell

     iteration #121     ecut=    60.00 Ry     beta= 0.70
     CG style diagonalization
     ethr =  2.13E-08,  avg # of iterations =  3.1

     negative rho (up, down):  5.060E-05 6.521E-14

     total cpu time spent up to now is     1985.6 secs

     total energy              =      -1.00018587 Ry
     estimated scf accuracy    <       0.00002665 Ry

     total magnetization       =     1.00 Bohr mag/cell
     absolute magnetization    =     1.00 Bohr mag/cell

     iteration #122     ecut=    60.00 Ry     beta= 0.70
     CG style diagonalization
     ethr =  2.13E-08,  avg # of iterations =  3.0

     negative rho (up, down):  5.068E-05 4.696E-14

     total cpu time spent up to now is     2001.0 secs

     total energy              =      -1.00018563 Ry
     estimated scf accuracy    <       0.00002688 Ry

     total magnetization       =     1.00 Bohr mag/cell
     absolute magnetization    =     1.00 Bohr mag/cell

     iteration #123     ecut=    60.00 Ry     beta= 0.70
     CG style diagonalization
     ethr =  2.13E-08,  avg # of iterations =  3.0

     negative rho (up, down):  5.065E-05 3.504E-11

     total cpu time spent up to now is     2016.2 secs

     total energy              =      -1.03247619 Ry
     estimated scf accuracy    <       0.00002562 Ry

     total magnetization       =     1.00 Bohr mag/cell
     absolute magnetization    =     1.00 Bohr mag/cell

     iteration #124     ecut=    60.00 Ry     beta= 0.70
     CG style diagonalization
     ethr =  2.13E-08,  avg # of iterations =  5.2

     negative rho (up, down):  4.980E-05 2.670E-11

     total cpu time spent up to now is     2034.0 secs

     total energy              =      -1.03256952 Ry
     estimated scf accuracy    <       0.00000108 Ry

     total magnetization       =     1.00 Bohr mag/cell
     absolute magnetization    =     1.00 Bohr mag/cell

     iteration #125     ecut=    60.00 Ry     beta= 0.70
     CG style diagonalization
     ethr =  2.13E-08,  avg # of iterations =  3.0

     negative rho (up, down):  4.983E-05 3.922E-11

     total cpu time spent up to now is     2049.4 secs

     total energy              =      -1.03256957 Ry
     estimated scf accuracy    <       0.00000072 Ry

     total magnetization       =     1.00 Bohr mag/cell
     absolute magnetization    =     1.00 Bohr mag/cell

     iteration #126     ecut=    60.00 Ry     beta= 0.70
     CG style diagonalization
     ethr =  2.13E-08,  avg # of iterations =  3.0

     negative rho (up, down):  4.989E-05 1.309E-11

     total cpu time spent up to now is     2064.6 secs

     total energy              =      -1.03256968 Ry
     estimated scf accuracy    <       0.00000091 Ry

     total magnetization       =     1.00 Bohr mag/cell
     absolute magnetization    =     1.00 Bohr mag/cell

     iteration #127     ecut=    60.00 Ry     beta= 0.70
     CG style diagonalization
     ethr =  2.13E-08,  avg # of iterations =  3.0

     negative rho (up, down):  4.993E-05 1.937E-11

     total cpu time spent up to now is     2079.9 secs

     total energy              =      -1.03257023 Ry
     estimated scf accuracy    <       0.00000144 Ry

     total magnetization       =     1.00 Bohr mag/cell
     absolute magnetization    =     1.00 Bohr mag/cell

     iteration #128     ecut=    60.00 Ry     beta= 0.70
     CG style diagonalization
     ethr =  2.13E-08,  avg # of iterations =  3.1

     negative rho (up, down):  4.998E-05 7.274E-15

     total cpu time spent up to now is     2095.3 secs

     total energy              =      -1.00009014 Ry
     estimated scf accuracy    <       0.00000414 Ry

     total magnetization       =     1.00 Bohr mag/cell
     absolute magnetization    =     1.00 Bohr mag/cell

     iteration #129     ecut=    60.00 Ry     beta= 0.70
     CG style diagonalization
     ethr =  2.13E-08,  avg # of iterations =  5.2

     negative rho (up, down):  4.986E-05 6.806E-15

     total cpu time spent up to now is     2113.1 secs

     total energy              =      -1.00018437 Ry
     estimated scf accuracy    <       0.00001406 Ry

     total magnetization       =     1.00 Bohr mag/cell
     absolute magnetization    =     1.00 Bohr mag/cell

     iteration #130     ecut=    60.00 Ry     beta= 0.70
     CG style diagonalization
     ethr =  2.13E-08,  avg # of iterations =  3.0

     negative rho (up, down):  5.015E-05 8.700E-15

     total cpu time spent up to now is     2128.5 secs

     total energy              =      -1.00018430 Ry
     estimated scf accuracy    <       0.00001854 Ry

     total magnetization       =     1.00 Bohr mag/cell
     absolute magnetization    =     1.00 Bohr mag/cell

     iteration #131     ecut=    60.00 Ry     beta= 0.70
     CG style diagonalization
     ethr =  2.13E-08,  avg # of iterations =  3.0

     negative rho (up, down):  5.018E-05 4.954E-13

     total cpu time spent up to now is     2143.7 secs

     total energy              =      -1.03247652 Ry
     estimated scf accuracy    <       0.00001822 Ry

     total magnetization       =     1.00 Bohr mag/cell
     absolute magnetization    =     1.00 Bohr mag/cell

     iteration #132     ecut=    60.00 Ry     beta= 0.70
     CG style diagonalization
     ethr =  2.13E-08,  avg # of iterations =  5.2

     negative rho (up, down):  4.977E-05 5.447E-12

     total cpu time spent up to now is     2161.5 secs

     total energy              =      -1.03256965 Ry
     estimated scf accuracy    <       0.00000363 Ry

     total magnetization       =     1.00 Bohr mag/cell
     absolute magnetization    =     1.00 Bohr mag/cell

     iteration #133     ecut=    60.00 Ry     beta= 0.70
     CG style diagonalization
     ethr =  2.13E-08,  avg # of iterations =  3.2

     negative rho (up, down):  4.988E-05 7.419E-12

     total cpu time spent up to now is     2177.1 secs

     total energy              =      -1.03256949 Ry
     estimated scf accuracy    <       0.00000140 Ry

     total magnetization       =     1.00 Bohr mag/cell
     absolute magnetization    =     1.00 Bohr mag/cell

     iteration #134     ecut=    60.00 Ry     beta= 0.70
     CG style diagonalization
     ethr =  2.13E-08,  avg # of iterations =  3.0

     negative rho (up, down):  4.990E-05 4.446E-12

     total cpu time spent up to now is     2192.3 secs

     total energy              =      -1.03256967 Ry
     estimated scf accuracy    <       0.00000059 Ry

     total magnetization       =     1.00 Bohr mag/cell
     absolute magnetization    =     1.00 Bohr mag/cell

     iteration #135     ecut=    60.00 Ry     beta= 0.70
     CG style diagonalization
     ethr =  2.13E-08,  avg # of iterations =  3.0

     negative rho (up, down):  4.991E-05 6.619E-12

     total cpu time spent up to now is     2207.7 secs

     total energy              =      -1.03256960 Ry
     estimated scf accuracy    <       0.00000136 Ry

     total magnetization       =     1.00 Bohr mag/cell
     absolute magnetization    =     1.00 Bohr mag/cell

     iteration #136     ecut=    60.00 Ry     beta= 0.70
     CG style diagonalization
     ethr =  2.13E-08,  avg # of iterations =  3.0

     negative rho (up, down):  4.992E-05 2.883E-12

     total cpu time spent up to now is     2223.0 secs

     total energy              =      -1.03256960 Ry
     estimated scf accuracy    <       0.00000106 Ry

     total magnetization       =     1.00 Bohr mag/cell
     absolute magnetization    =     1.00 Bohr mag/cell

     iteration #137     ecut=    60.00 Ry     beta= 0.70
     CG style diagonalization
     ethr =  2.13E-08,  avg # of iterations =  3.0

     negative rho (up, down):  4.992E-05 6.047E-12

     total cpu time spent up to now is     2238.3 secs

     total energy              =      -1.03256957 Ry
     estimated scf accuracy    <       0.00000107 Ry

     total magnetization       =     1.00 Bohr mag/cell
     absolute magnetization    =     1.00 Bohr mag/cell

     iteration #138     ecut=    60.00 Ry     beta= 0.70
     CG style diagonalization
     ethr =  2.13E-08,  avg # of iterations =  3.0

     negative rho (up, down):  4.992E-05 5.160E-12

     total cpu time spent up to now is     2253.6 secs

     total energy              =      -1.03256960 Ry
     estimated scf accuracy    <       0.00000090 Ry

     total magnetization       =     1.00 Bohr mag/cell
     absolute magnetization    =     1.00 Bohr mag/cell

     iteration #139     ecut=    60.00 Ry     beta= 0.70
     CG style diagonalization
     ethr =  2.13E-08,  avg # of iterations =  3.0

     negative rho (up, down):  4.994E-05 1.666E-11

     total cpu time spent up to now is     2269.0 secs

     total energy              =      -1.03256933 Ry
     estimated scf accuracy    <       0.00000103 Ry

     total magnetization       =     1.00 Bohr mag/cell
     absolute magnetization    =     1.00 Bohr mag/cell

     iteration #140     ecut=    60.00 Ry     beta= 0.70
     CG style diagonalization
     ethr =  2.13E-08,  avg # of iterations =  3.1

     negative rho (up, down):  4.992E-05 0.000E+00

     Magnetic moment per site:
     atom:    1    charge:    1.0000    magn:    1.0000    constr:    0.0000

     total cpu time spent up to now is     2281.8 secs

     End of self-consistent calculation

 ------ SPIN UP ------------


          k = 0.0000 0.0000 0.0000 (423701 PWs)   bands (ev):

   -12.0678  -6.4959  -6.1256  -6.1185  -6.1169

          k = 0.0000 0.2500 0.0000 (423725 PWs)   bands (ev):

   -12.0678  -6.4724  -6.2843  -6.0977  -6.0950

          k = 0.0000-0.5000 0.0000 (423542 PWs)   bands (ev):

   -12.0678  -6.4054  -6.3982  -6.0276  -6.0226

          k = 0.2500 0.0000 0.0000 (423725 PWs)   bands (ev):

   -12.0678  -6.4724  -6.2843  -6.0977  -6.0950

          k = 0.2500 0.2500 0.0000 (423766 PWs)   bands (ev):

   -12.0678  -6.4489  -6.2630  -6.2586  -6.0727

          k = 0.2500-0.5000 0.0000 (423782 PWs)   bands (ev):

   -12.0678  -6.3820  -6.3747  -6.1937  -6.1867

          k = 0.2500-0.2500 0.0000 (423766 PWs)   bands (ev):

   -12.0678  -6.4489  -6.2630  -6.2586  -6.0727

          k =-0.5000 0.0000 0.0000 (423542 PWs)   bands (ev):

   -12.0678  -6.4054  -6.3982  -6.0314  -6.0233

          k =-0.5000 0.2500 0.0000 (423782 PWs)   bands (ev):

   -12.0678  -6.3820  -6.3747  -6.1937  -6.1867

          k =-0.5000-0.5000 0.0000 (423708 PWs)   bands (ev):

   -12.0678  -6.3171  -6.3056  -6.3056  -6.3029

 ------ SPIN DOWN ----------


          k = 0.0000 0.0000 0.0000 (423701 PWs)   bands (ev):

    -6.5429  -6.1033  -6.1028  -6.1028  -6.1017

          k = 0.0000 0.2500 0.0000 (423725 PWs)   bands (ev):

    -6.5417  -6.2666  -6.0793  -6.0790  -5.8915

          k = 0.0000-0.5000 0.0000 (423542 PWs)   bands (ev):

    -6.5404  -6.3834  -6.0099  -6.0083  -6.0074

          k = 0.2500 0.0000 0.0000 (423725 PWs)   bands (ev):

    -6.5417  -6.2666  -6.0793  -6.0790  -5.8915

          k = 0.2500 0.2500 0.0000 (423766 PWs)   bands (ev):

    -6.5410  -6.2433  -6.2431  -6.0557  -5.8686

          k = 0.2500-0.5000 0.0000 (423782 PWs)   bands (ev):

    -6.5403  -6.3599  -6.1739  -6.1719  -5.7990

          k = 0.2500-0.2500 0.0000 (423766 PWs)   bands (ev):

    -6.5408  -6.2433  -6.2430  -6.0556  -5.8685

          k =-0.5000 0.0000 0.0000 (423542 PWs)   bands (ev):

    -6.5405  -6.3834  -6.0099  -6.0085  -6.0074

          k =-0.5000 0.2500 0.0000 (423782 PWs)   bands (ev):

    -6.5403  -6.3599  -6.1739  -6.1719  -5.7990

          k =-0.5000-0.5000 0.0000 (423708 PWs)   bands (ev):

    -6.5400  -6.2903  -6.2903  -6.2885  -5.5400

     the Fermi energy is    -8.8039 ev

!    total energy              =      -1.00009459 Ry
     estimated scf accuracy    <          4.7E-09 Ry
     smearing contrib. (-TS)   =       0.00000000 Ry
     internal energy E=F+TS    =      -1.00009459 Ry

     The total energy is F=E-TS. E is the sum of the following terms:
     one-electron contribution =      -1.25750766 Ry
     hartree contribution      =       0.59718111 Ry
     xc contribution           =      -0.61887228 Ry
     ewald contribution        =       0.27910425 Ry
     Dispersion Correction     =      -0.00000001 Ry

     total magnetization       =     1.00 Bohr mag/cell
     absolute magnetization    =     1.00 Bohr mag/cell

     convergence has been achieved in 140 iterations

     Forces acting on atoms (cartesian axes, Ry/au):

     atom    1 type  1   force =     0.00000000    0.00000000    0.01518050

     Total force =     0.000000     Total SCF correction =     0.000000

     BFGS Geometry Optimization
     Energy error            =      0.0E+00
     Gradient error          =      0.0E+00

     bfgs converged in   1 scf cycles and   0 bfgs steps
     (criteria: energy <  7.3E-07 Ry, force <  3.9E-04 Ry/Bohr)

     End of BFGS Geometry Optimization

     Final energy   =      -1.0000945923 Ry
Begin final coordinates

ATOMIC_POSITIONS (angstrom)
H            10.0000000000       10.0000000000        0.0000000000    0   0   0
End final coordinates



     Writing output data file ./H_ESM_pn25.save/

     init_run     :     18.73s CPU     19.86s WALL (       1 calls)
     electrons    :   2090.52s CPU   2264.53s WALL (       1 calls)
     forces       :      1.71s CPU      1.75s WALL (       1 calls)

     Called by init_run:
     wfcinit      :      0.94s CPU      1.01s WALL (       1 calls)
     potinit      :      7.34s CPU      8.04s WALL (       1 calls)
     hinit0       :      0.72s CPU      0.83s WALL (       1 calls)

     Called by electrons:
     c_bands      :    544.20s CPU    553.22s WALL (     140 calls)
     sum_band     :    235.41s CPU    243.80s WALL (     140 calls)
     v_of_rho     :    811.40s CPU    885.30s WALL (     141 calls)
     newd         :     86.35s CPU     89.08s WALL (     141 calls)
     mix_rho      :    273.64s CPU    341.67s WALL (     140 calls)

     Called by c_bands:
     init_us_2    :      1.04s CPU      1.14s WALL (     846 calls)
     ccgdiagg     :    323.43s CPU    327.46s WALL (     420 calls)
     wfcrot       :    139.91s CPU    141.59s WALL (     420 calls)

     Called by *cgdiagg:
     h_psi        :    445.38s CPU    450.79s WALL (    5273 calls)
     s_psi        :      1.27s CPU      1.28s WALL (   10126 calls)

     Called by h_psi:
     h_psi:calbec :      5.28s CPU      5.37s WALL (    5273 calls)
     vloc_psi     :    435.84s CPU    441.10s WALL (    5273 calls)
     add_vuspsi   :      2.61s CPU      2.66s WALL (    5273 calls)
     hs_1psi      :    310.99s CPU    314.83s WALL (    4853 calls)
     s_1psi       :      2.54s CPU      2.58s WALL (    4853 calls)

     General routines
     calbec       :      7.27s CPU      8.31s WALL (   10558 calls)
     fft          :    816.60s CPU    840.10s WALL (    3522 calls)
     ffts         :     44.25s CPU     44.74s WALL (     562 calls)
     fftw         :    413.61s CPU    419.70s WALL (   16006 calls)
     interpolate  :     96.17s CPU    105.28s WALL (     282 calls)
     davcio       :      0.76s CPU     45.24s WALL (    4493 calls)

     Parallel routines
     fft_scatt_xy :    192.44s CPU    194.71s WALL (   20090 calls)
     fft_scatt_yz :    463.91s CPU    470.71s WALL (   20090 calls)

     PWSCF        :  35m11.73s CPU  38m 7.78s WALL


   This run was terminated on:   0:39:43   4Jul2022            

=------------------------------------------------------------------------------=
   JOB DONE.
=------------------------------------------------------------------------------=
