
     Program PWSCF v.6.4.1 starts on 15Jun2022 at 15: 8:15 

     This program is part of the open-source Quantum ESPRESSO suite
     for quantum simulation of materials; please cite
         "P. Giannozzi et al., J. Phys.:Condens. Matter 21 395502 (2009);
         "P. Giannozzi et al., J. Phys.:Condens. Matter 29 465901 (2017);
          URL http://www.quantum-espresso.org", 
     in publications or presentations arising from this work. More details at
     http://www.quantum-espresso.org/quote

     Parallel version (MPI), running on   160 processors

     MPI processes distributed on     8 nodes
     K-points division:     npool     =       8
     R & G space division:  proc/nbgrp/npool/nimage =      20
     Waiting for input...
     Reading input from standard input
Warning: card &CELL ignored
Warning: card / ignored

     Current dimensions of program PWSCF are:
     Max number of different atomic species (ntypx) = 10
     Max number of k-points (npk) =  40000
     Max angular momentum in pseudopotentials (lmaxx) =  3

     IMPORTANT: XC functional enforced from input :
     Exchange-correlation      = PBE ( 1  4  3  4 0 0)
     Any further DFT definition will be discarded
     Please, verify this is what you really want

               file Fe.pbe-spn-kjpaw_psl.0.2.1.UPF: wavefunction(s)  3D renormalized

     -------------------------------------------------
     Parameters for Dispersion (Grimme-D2) Correction:
     -------------------------------------------------
       atom      VdW radius       C_6     

        Fe         2.952        374.666
        N          2.640         42.670
        H          1.892          4.857

     Subspace diagonalization in iterative solution of the eigenvalue problem:
     one sub-group per band group will be used
     scalapack distributed-memory algorithm (size of sub-group:  3*  3 procs)


     Parallelization info
     --------------------
     sticks:   dense  smooth     PW     G-vecs:    dense   smooth      PW
     Min         634     317     83               145278    51361    6989
     Max         635     318     84               145287    51370    7000
     Sum       12685    6351   1677              2905599  1027285  139897



     bravais-lattice index     =            0
     lattice parameter (alat)  =      18.7640  a.u.
     unit-cell volume          =   16360.3163 (a.u.)^3
     number of atoms/cell      =           67
     number of atomic types    =            3
     number of electrons       =      1031.00
     number of Kohn-Sham states=          619
     kinetic-energy cutoff     =      60.0000  Ry
     charge density cutoff     =     480.0000  Ry
     convergence threshold     =      1.0E-08
     mixing beta               =       0.2000
     number of iterations used =           10  local-TF  mixing
     Exchange-correlation      = PBE ( 1  4  3  4 0 0)
     nstep                     =           50


     Effective Screening Medium Method
     =================================
     Boundary Conditions: Metal-Slab-Metal
     field strength                   =    -0.02 Ry/a.u.
     grid points for fit at edges     =        4 


     celldm(1)=  18.764036  celldm(2)=   0.000000  celldm(3)=   0.000000
     celldm(4)=   0.000000  celldm(5)=   0.000000  celldm(6)=   0.000000

     crystal axes: (cart. coord. in units of alat)
               a(1) = (   1.000000   0.000000   0.000000 )  
               a(2) = (   0.333330   0.942807   0.000000 )  
               a(3) = (   0.000000   0.000000   2.626577 )  

     reciprocal axes: (cart. coord. in units 2 pi/alat)
               b(1) = (  1.000000 -0.353551  0.000000 )  
               b(2) = (  0.000000  1.060663  0.000000 )  
               b(3) = (  0.000000  0.000000  0.380724 )  


     PseudoPot. # 1 for Fe read from file:
     ../../SSSP/Fe.pbe-spn-kjpaw_psl.0.2.1.UPF
     MD5 check sum: e86618425769142926afa95317d90200
     Pseudo is Projector augmented-wave + core cor, Zval = 16.0
     Generated using "atomic" code by A. Dal Corso v.5.0.99 svn rev. 10869
     Shape of augmentation charge: PSQ
     Using radial grid of 1191 points,  6 beta functions with: 
                l(1) =   0
                l(2) =   0
                l(3) =   1
                l(4) =   1
                l(5) =   2
                l(6) =   2
     Q(r) pseudized with 0 coefficients 


     PseudoPot. # 2 for N  read from file:
     ../../SSSP/N.pbe-n-radius_5.UPF
     MD5 check sum: 16739722b17309cd8fe442a2ace49922
     Pseudo is Ultrasoft + core correction, Zval =  5.0
     Generated using "atomic" code by A. Dal Corso v.5.1
     Using radial grid of 1085 points,  4 beta functions with: 
                l(1) =   0
                l(2) =   0
                l(3) =   1
                l(4) =   1
     Q(r) pseudized with 0 coefficients 


     PseudoPot. # 3 for H  read from file:
     ../../SSSP/H.pbe-rrkjus_psl.1.0.0.UPF
     MD5 check sum: f52b6d4d1c606e5624b1dc7b2218f220
     Pseudo is Ultrasoft, Zval =  1.0
     Generated using "atomic" code by A. Dal Corso v.5.1
     Using radial grid of  929 points,  2 beta functions with: 
                l(1) =   0
                l(2) =   0
     Q(r) pseudized with 0 coefficients 


     atomic species   valence    mass     pseudopotential
        Fe            16.00    55.84500     Fe( 1.00)
        N              5.00    14.00700     N ( 1.00)
        H              1.00     1.00800     H ( 1.00)

     Starting magnetic structure 
     atomic species   magnetization
        Fe           0.100
        N            0.100
        H            0.100

     No symmetry found



   Cartesian axes

     site n.     atom                  positions (alat units)
         1           Fe  tau(   1) = (   0.1666663   0.1178509   0.0000000  )
         2           Fe  tau(   2) = (   0.0000000   0.0000000   0.2041376  )
         3           Fe  tau(   3) = (   0.4999989   0.3535526   0.0000000  )
         4           Fe  tau(   4) = (   0.3333326   0.2357017   0.2041376  )
         5           Fe  tau(   5) = (   0.1688326   0.1178129   0.4052745  )
         6           Fe  tau(   6) = (   0.3344312   0.9422396   0.6044197  )
         7           Fe  tau(   7) = (   0.5011709   0.3549805   0.4071303  )
         8           Fe  tau(   8) = (   0.3393568   0.2350359   0.6052226  )
         9           Fe  tau(   9) = (   0.2499989   0.3535526   0.0000000  )
        10           Fe  tau(  10) = (   0.4166663   0.1178509   0.0000000  )
        11           Fe  tau(  11) = (   0.0833326   0.2357017   0.2041376  )
        12           Fe  tau(  12) = (   0.2500000   0.0000000   0.2041376  )
        13           Fe  tau(  13) = (   0.2500580   0.3534877   0.4069730  )
        14           Fe  tau(  14) = (   0.4191124   0.1196271   0.4062056  )
        15           Fe  tau(  15) = (   0.0869689   0.2337948   0.6041899  )
        16           Fe  tau(  16) = (   0.2513805   0.0010434   0.6053244  )
        17           Fe  tau(  17) = (   0.6666663   0.1178509   0.0000000  )
        18           Fe  tau(  18) = (   0.5000000   0.0000000   0.2041376  )
        19           Fe  tau(  19) = (   0.9999989   0.3535526   0.0000000  )
        20           Fe  tau(  20) = (   0.8333326   0.2357017   0.2041376  )
        21           Fe  tau(  21) = (   0.6683641   0.1185162   0.4071021  )
        22           Fe  tau(  22) = (   0.5013290   0.0059643   0.6052473  )
        23           Fe  tau(  23) = (   0.9987814   0.3520415   0.4068958  )
        24           Fe  tau(  24) = (   0.8423826   0.2229311   0.6027454  )
        25           Fe  tau(  25) = (   0.7499989   0.3535526   0.0000000  )
        26           Fe  tau(  26) = (   0.9166663   0.1178509   0.0000000  )
        27           Fe  tau(  27) = (   0.5833326   0.2357017   0.2041376  )
        28           Fe  tau(  28) = (   0.7500000   0.0000000   0.2041376  )
        29           Fe  tau(  29) = (   0.7499533   0.3535195   0.4029363  )
        30           Fe  tau(  30) = (   0.9185318   0.1150330   0.4041368  )
        31           Fe  tau(  31) = (   0.5929562   0.2425249   0.6092769  )
        32           Fe  tau(  32) = (   1.0846732   0.9389673   0.6042056  )
        33           Fe  tau(  33) = (   0.3333315   0.5892543   0.0000000  )
        34           Fe  tau(  34) = (   0.1666652   0.4714034   0.2041376  )
        35           Fe  tau(  35) = (   0.6666640   0.8249560   0.0000000  )
        36           Fe  tau(  36) = (   0.4999978   0.7071052   0.2041376  )
        37           Fe  tau(  37) = (   0.3312474   0.5893196   0.4056041  )
        38           Fe  tau(  38) = (   1.1607619   0.4712958   0.6048464  )
        39           Fe  tau(  39) = (   0.6673404   0.8270470   0.4052951  )
        40           Fe  tau(  40) = (   0.4998136   0.7084095   0.6043768  )
        41           Fe  tau(  41) = (   0.4166640   0.8249560   0.0000000  )
        42           Fe  tau(  42) = (   0.5833315   0.5892543   0.0000000  )
        43           Fe  tau(  43) = (   1.2499978   0.7071052   0.2041376  )
        44           Fe  tau(  44) = (   0.4166652   0.4714034   0.2041376  )
        45           Fe  tau(  45) = (   0.4165509   0.8249174   0.4043934  )
        46           Fe  tau(  46) = (   0.5812933   0.5919710   0.4041428  )
        47           Fe  tau(  47) = (   1.2474419   0.7053339   0.6055846  )
        48           Fe  tau(  48) = (   0.4134635   0.4740362   0.6042760  )
        49           Fe  tau(  49) = (   0.8333315   0.5892543   0.0000000  )
        50           Fe  tau(  50) = (   0.6666652   0.4714034   0.2041376  )
        51           Fe  tau(  51) = (   1.1666640   0.8249560   0.0000000  )
        52           Fe  tau(  52) = (   0.9999978   0.7071052   0.2041376  )
        53           Fe  tau(  53) = (   0.8314826   0.5886479   0.4069229  )
        54           Fe  tau(  54) = (   0.6576307   0.4842356   0.6027414  )
        55           Fe  tau(  55) = (   1.1660132   0.8229918   0.4055945  )
        56           Fe  tau(  56) = (   0.9979139   0.7015941   0.6048479  )
        57           Fe  tau(  57) = (   0.9166640   0.8249560   0.0000000  )
        58           Fe  tau(  58) = (   1.0833315   0.5892543   0.0000000  )
        59           Fe  tau(  59) = (   0.7499978   0.7071052   0.2041376  )
        60           Fe  tau(  60) = (   0.9166652   0.4714034   0.2041376  )
        61           Fe  tau(  61) = (   0.9166070   0.8250817   0.4069852  )
        62           Fe  tau(  62) = (   1.0808238   0.5875173   0.4059910  )
        63           Fe  tau(  63) = (   0.7493857   0.7112379   0.6042543  )
        64           Fe  tau(  64) = (   0.9072822   0.4647726   0.6091991  )
        65           N   tau(  65) = (   0.7500993   0.3536537   0.7047098  )
        66           H   tau(  66) = (   0.7502543   0.3537852   0.8083741  )
        67           H   tau(  67) = (   0.4593526   0.8551840   0.6988751  )

     number of k points=    10  Methfessel-Paxton smearing, width (Ry)=  0.0100
                       cart. coord. in units 2pi/alat
        k(    1) = (   0.0000000   0.0000000   0.0000000), wk =   0.0625000
        k(    2) = (   0.0000000   0.2651656   0.0000000), wk =   0.1250000
        k(    3) = (   0.0000000  -0.5303313   0.0000000), wk =   0.0625000
        k(    4) = (   0.2500000  -0.0883878   0.0000000), wk =   0.1250000
        k(    5) = (   0.2500000   0.1767779   0.0000000), wk =   0.1250000
        k(    6) = (   0.2500000  -0.6187190   0.0000000), wk =   0.1250000
        k(    7) = (   0.2500000  -0.3535534   0.0000000), wk =   0.1250000
        k(    8) = (  -0.5000000   0.1767755   0.0000000), wk =   0.0625000
        k(    9) = (  -0.5000000   0.4419412   0.0000000), wk =   0.1250000
        k(   10) = (  -0.5000000  -0.3535558   0.0000000), wk =   0.0625000

     Dense  grid:  2905599 G-vectors     FFT dimensions: ( 135, 135, 360)

     Smooth grid:  1027285 G-vectors     FFT dimensions: (  96,  96, 243)

     Estimated max dynamical RAM per process >       1.01 GB

     Estimated total dynamical RAM >     162.06 GB
     Generating pointlists ...
     new r_m :   0.0739 (alat units)  1.3869 (a.u.) for type    1
     new r_m :   0.0428 (alat units)  0.8024 (a.u.) for type    2
     new r_m :   0.0428 (alat units)  0.8024 (a.u.) for type    3

     Check: negative core charge=   -0.000039

     Initial potential from superposition of free atoms

     starting charge 1030.97192, renormalised to 1031.00000

     negative rho (up, down):  2.445E-02 2.515E-03
     Starting wfcs are  838 randomized atomic wfcs
     Checking if some PAW data can be deallocated... 

     total cpu time spent up to now is       91.5 secs

     Self-consistent Calculation

     iteration #  1     ecut=    60.00 Ry     beta= 0.20
     Davidson diagonalization with overlap
     c_bands:  1 eigenvalues not converged
     ethr =  1.00E-04,  avg # of iterations = 18.5

     negative rho (up, down):  1.502E-02 3.104E-03

     total cpu time spent up to now is     1137.3 secs

     total energy              =  -21079.78862264 Ry
     Harris-Foulkes estimate   =  -21101.73509787 Ry
     estimated scf accuracy    <    1138.96367366 Ry

     total magnetization       =    69.04 Bohr mag/cell
     absolute magnetization    =    70.94 Bohr mag/cell

     iteration #  2     ecut=    60.00 Ry     beta= 0.20
     Davidson diagonalization with overlap
     ethr =  1.00E-02,  avg # of iterations =  1.0

     negative rho (up, down):  1.252E-02 2.887E-02

     total cpu time spent up to now is     1286.0 secs

     total energy              =  -21092.13019667 Ry
     Harris-Foulkes estimate   =  -21098.96424755 Ry
     estimated scf accuracy    <     360.05467889 Ry

     total magnetization       =    82.16 Bohr mag/cell
     absolute magnetization    =    84.13 Bohr mag/cell

     iteration #  3     ecut=    60.00 Ry     beta= 0.20
     Davidson diagonalization with overlap
     ethr =  1.00E-02,  avg # of iterations =  1.0

     negative rho (up, down):  9.985E-03 6.016E-02

     total cpu time spent up to now is     1425.5 secs

     total energy              =  -21094.92095402 Ry
     Harris-Foulkes estimate   =  -21095.16843685 Ry
     estimated scf accuracy    <      15.30623741 Ry

     total magnetization       =   120.14 Bohr mag/cell
     absolute magnetization    =   120.79 Bohr mag/cell

     iteration #  4     ecut=    60.00 Ry     beta= 0.20
     Davidson diagonalization with overlap
     ethr =  1.48E-03,  avg # of iterations =  1.0

     negative rho (up, down):  7.409E-03 6.839E-02

     total cpu time spent up to now is     1560.8 secs

     total energy              =  -21095.00723588 Ry
     Harris-Foulkes estimate   =  -21095.05514040 Ry
     estimated scf accuracy    <      17.98660423 Ry

     total magnetization       =   127.22 Bohr mag/cell
     absolute magnetization    =   127.82 Bohr mag/cell

     iteration #  5     ecut=    60.00 Ry     beta= 0.20
     Davidson diagonalization with overlap
     ethr =  1.48E-03,  avg # of iterations =  1.0

     negative rho (up, down):  2.072E-02 2.162E-01

     total cpu time spent up to now is     1690.4 secs

     total energy              =  -21093.57573512 Ry
     Harris-Foulkes estimate   =  -21095.04694810 Ry
     estimated scf accuracy    <      20.65237653 Ry

     total magnetization       =   131.33 Bohr mag/cell
     absolute magnetization    =   131.96 Bohr mag/cell

     iteration #  6     ecut=    60.00 Ry     beta= 0.20
     Davidson diagonalization with overlap
     ethr =  1.48E-03,  avg # of iterations =  1.9

     negative rho (up, down):  1.794E-02 2.013E-01

     total cpu time spent up to now is     1839.9 secs

     total energy              =  -21093.97702168 Ry
     Harris-Foulkes estimate   =  -21094.36690541 Ry
     estimated scf accuracy    <       8.79396275 Ry

     total magnetization       =   152.87 Bohr mag/cell
     absolute magnetization    =   154.20 Bohr mag/cell

     iteration #  7     ecut=    60.00 Ry     beta= 0.20
     Davidson diagonalization with overlap
     ethr =  8.53E-04,  avg # of iterations =  4.8

     negative rho (up, down):  6.846E-03 1.142E-01

     total cpu time spent up to now is     2028.9 secs

     total energy              =  -21094.11393468 Ry
     Harris-Foulkes estimate   =  -21094.20210349 Ry
     estimated scf accuracy    <       2.98702459 Ry

     total magnetization       =   154.57 Bohr mag/cell
     absolute magnetization    =   156.37 Bohr mag/cell

     iteration #  8     ecut=    60.00 Ry     beta= 0.20
     Davidson diagonalization with overlap
     ethr =  2.90E-04,  avg # of iterations = 12.8

     negative rho (up, down):  9.353E-04 4.739E-02

     total cpu time spent up to now is     2647.6 secs

     total energy              =  -21094.78841009 Ry
     Harris-Foulkes estimate   =  -21095.37457941 Ry
     estimated scf accuracy    <       4.62652322 Ry

     total magnetization       =   154.06 Bohr mag/cell
     absolute magnetization    =   159.52 Bohr mag/cell

     iteration #  9     ecut=    60.00 Ry     beta= 0.20
     Davidson diagonalization with overlap
     ethr =  2.90E-04,  avg # of iterations =  2.6

     negative rho (up, down):  5.601E-04 2.607E-02

     total cpu time spent up to now is     2805.4 secs

     total energy              =  -21094.99526483 Ry
     Harris-Foulkes estimate   =  -21095.02214204 Ry
     estimated scf accuracy    <       0.72852459 Ry

     total magnetization       =   147.94 Bohr mag/cell
     absolute magnetization    =   153.02 Bohr mag/cell

     iteration # 10     ecut=    60.00 Ry     beta= 0.20
     Davidson diagonalization with overlap
     ethr =  7.07E-05,  avg # of iterations =  6.9

     negative rho (up, down):  3.166E-04 1.740E-02

     total cpu time spent up to now is     3011.4 secs

     total energy              =  -21095.06598679 Ry
     Harris-Foulkes estimate   =  -21095.06972950 Ry
     estimated scf accuracy    <       0.67256159 Ry

     total magnetization       =   147.82 Bohr mag/cell
     absolute magnetization    =   152.58 Bohr mag/cell

     iteration # 11     ecut=    60.00 Ry     beta= 0.20
     Davidson diagonalization with overlap
     ethr =  6.52E-05,  avg # of iterations =  1.0

     negative rho (up, down):  8.062E-04 4.491E-02

     total cpu time spent up to now is     3146.8 secs

     total energy              =  -21095.05489902 Ry
     Harris-Foulkes estimate   =  -21095.09484414 Ry
     estimated scf accuracy    <       0.35323823 Ry

     total magnetization       =   151.81 Bohr mag/cell
     absolute magnetization    =   156.46 Bohr mag/cell

     iteration # 12     ecut=    60.00 Ry     beta= 0.20
     Davidson diagonalization with overlap
     ethr =  3.43E-05,  avg # of iterations =  9.0

     negative rho (up, down):  6.453E-04 3.423E-02

     total cpu time spent up to now is     3516.1 secs

     total energy              =  -21095.13865083 Ry
     Harris-Foulkes estimate   =  -21095.15327085 Ry
     estimated scf accuracy    <       0.36164944 Ry

     total magnetization       =   157.21 Bohr mag/cell
     absolute magnetization    =   162.68 Bohr mag/cell

     iteration # 13     ecut=    60.00 Ry     beta= 0.20
     Davidson diagonalization with overlap
     ethr =  3.43E-05,  avg # of iterations =  3.0

     negative rho (up, down):  1.784E-03 4.570E-02

     total cpu time spent up to now is     3688.0 secs

     total energy              =  -21095.17359756 Ry
     Harris-Foulkes estimate   =  -21095.15447337 Ry
     estimated scf accuracy    <       0.35632248 Ry

     total magnetization       =   160.06 Bohr mag/cell
     absolute magnetization    =   165.57 Bohr mag/cell

     iteration # 14     ecut=    60.00 Ry     beta= 0.20
     Davidson diagonalization with overlap
     ethr =  3.43E-05,  avg # of iterations =  3.9

     negative rho (up, down):  2.738E-03 4.201E-02

     total cpu time spent up to now is     3861.5 secs

     total energy              =  -21095.15952798 Ry
     Harris-Foulkes estimate   =  -21095.19581774 Ry
     estimated scf accuracy    <       1.02673311 Ry

     total magnetization       =   160.95 Bohr mag/cell
     absolute magnetization    =   166.56 Bohr mag/cell

     iteration # 15     ecut=    60.00 Ry     beta= 0.20
     Davidson diagonalization with overlap
     ethr =  3.43E-05,  avg # of iterations =  3.2

     negative rho (up, down):  1.266E-02 4.890E-02

     total cpu time spent up to now is     4016.8 secs

     total energy              =  -21095.12659248 Ry
     Harris-Foulkes estimate   =  -21095.16979136 Ry
     estimated scf accuracy    <       0.57440055 Ry

     total magnetization       =   161.57 Bohr mag/cell
     absolute magnetization    =   167.23 Bohr mag/cell

     iteration # 16     ecut=    60.00 Ry     beta= 0.20
     Davidson diagonalization with overlap
     ethr =  3.43E-05,  avg # of iterations =  5.0

     negative rho (up, down):  9.537E-03 4.347E-02

     total cpu time spent up to now is     4183.7 secs

     total energy              =  -21095.13569004 Ry
     Harris-Foulkes estimate   =  -21095.13993672 Ry
     estimated scf accuracy    <       0.28091107 Ry

     total magnetization       =   162.25 Bohr mag/cell
     absolute magnetization    =   167.96 Bohr mag/cell

     iteration # 17     ecut=    60.00 Ry     beta= 0.20
     Davidson diagonalization with overlap
     ethr =  2.72E-05,  avg # of iterations =  1.0

     negative rho (up, down):  4.172E-03 3.630E-02

     total cpu time spent up to now is     4316.4 secs

     total energy              =  -21095.12025354 Ry
     Harris-Foulkes estimate   =  -21095.13918229 Ry
     estimated scf accuracy    <       0.24626372 Ry

     total magnetization       =   162.23 Bohr mag/cell
     absolute magnetization    =   168.00 Bohr mag/cell

     iteration # 18     ecut=    60.00 Ry     beta= 0.20
     Davidson diagonalization with overlap
     ethr =  2.39E-05,  avg # of iterations =  3.6

     negative rho (up, down):  3.590E-03 2.378E-02

     total cpu time spent up to now is     4493.9 secs

     total energy              =  -21095.12158521 Ry
     Harris-Foulkes estimate   =  -21095.12884885 Ry
     estimated scf accuracy    <       0.11720809 Ry

     total magnetization       =   162.16 Bohr mag/cell
     absolute magnetization    =   168.06 Bohr mag/cell

     iteration # 19     ecut=    60.00 Ry     beta= 0.20
     Davidson diagonalization with overlap
     ethr =  1.14E-05,  avg # of iterations = 41.2

     negative rho (up, down):  9.901E-04 2.654E-02

     total cpu time spent up to now is     6481.2 secs

     total energy              =  -21095.17309426 Ry
     Harris-Foulkes estimate   =  -21095.18488801 Ry
     estimated scf accuracy    <       0.42324781 Ry

     total magnetization       =   160.63 Bohr mag/cell
     absolute magnetization    =   169.71 Bohr mag/cell

     iteration # 20     ecut=    60.00 Ry     beta= 0.20
     Davidson diagonalization with overlap
     ethr =  1.14E-05,  avg # of iterations = 11.4

     negative rho (up, down):  9.189E-04 3.061E-02

     total cpu time spent up to now is     7153.8 secs

     total energy              =  -21095.18354700 Ry
     Harris-Foulkes estimate   =  -21095.18056949 Ry
     estimated scf accuracy    <       0.26668251 Ry

     total magnetization       =   160.15 Bohr mag/cell
     absolute magnetization    =   169.01 Bohr mag/cell

     iteration # 21     ecut=    60.00 Ry     beta= 0.20
     Davidson diagonalization with overlap
     ethr =  1.14E-05,  avg # of iterations =  3.5

     negative rho (up, down):  1.122E-03 1.316E-02

     total cpu time spent up to now is     7372.5 secs

     total energy              =  -21095.16212254 Ry
     Harris-Foulkes estimate   =  -21095.18505383 Ry
     estimated scf accuracy    <       0.31198753 Ry

     total magnetization       =   160.07 Bohr mag/cell
     absolute magnetization    =   169.12 Bohr mag/cell

     iteration # 22     ecut=    60.00 Ry     beta= 0.20
     Davidson diagonalization with overlap
     ethr =  1.14E-05,  avg # of iterations =  3.6

     negative rho (up, down):  2.060E-02 1.045E-01

     total cpu time spent up to now is     7585.0 secs

     total energy              =  -21095.16079562 Ry
     Harris-Foulkes estimate   =  -21095.16749833 Ry
     estimated scf accuracy    <       0.12851495 Ry

     total magnetization       =   160.40 Bohr mag/cell
     absolute magnetization    =   168.73 Bohr mag/cell

     iteration # 23     ecut=    60.00 Ry     beta= 0.20
     Davidson diagonalization with overlap
     ethr =  1.14E-05,  avg # of iterations =  9.4

     negative rho (up, down):  3.127E-02 1.096E-01

     total cpu time spent up to now is     7895.0 secs

     total energy              =  -21095.17567605 Ry
     Harris-Foulkes estimate   =  -21095.16437138 Ry
     estimated scf accuracy    <       0.10713514 Ry

     total magnetization       =   160.32 Bohr mag/cell
     absolute magnetization    =   168.46 Bohr mag/cell

     iteration # 24     ecut=    60.00 Ry     beta= 0.20
     Davidson diagonalization with overlap
     ethr =  1.04E-05,  avg # of iterations =  7.0

     negative rho (up, down):  1.434E-02 1.030E-01

     total cpu time spent up to now is     8161.4 secs

     total energy              =  -21095.16042986 Ry
     Harris-Foulkes estimate   =  -21095.17978545 Ry
     estimated scf accuracy    <       0.28614433 Ry

     total magnetization       =   159.98 Bohr mag/cell
     absolute magnetization    =   168.81 Bohr mag/cell

     iteration # 25     ecut=    60.00 Ry     beta= 0.20
     Davidson diagonalization with overlap
     ethr =  1.04E-05,  avg # of iterations =  2.8

     negative rho (up, down):  3.132E-03 6.568E-02

     total cpu time spent up to now is     8342.8 secs

     total energy              =  -21095.16105134 Ry
     Harris-Foulkes estimate   =  -21095.16499681 Ry
     estimated scf accuracy    <       0.10590380 Ry

     total magnetization       =   160.45 Bohr mag/cell
     absolute magnetization    =   168.59 Bohr mag/cell

     iteration # 26     ecut=    60.00 Ry     beta= 0.20
     Davidson diagonalization with overlap
     ethr =  1.03E-05,  avg # of iterations =  6.8

     negative rho (up, down):  2.829E-03 6.235E-02

     total cpu time spent up to now is     8607.4 secs

     total energy              =  -21095.18739811 Ry
     Harris-Foulkes estimate   =  -21095.16328586 Ry
     estimated scf accuracy    <       0.07425656 Ry

     total magnetization       =   160.46 Bohr mag/cell
     absolute magnetization    =   168.47 Bohr mag/cell

     iteration # 27     ecut=    60.00 Ry     beta= 0.20
     Davidson diagonalization with overlap
     ethr =  7.20E-06,  avg # of iterations =  8.8

     negative rho (up, down):  3.776E-03 6.682E-02

     total cpu time spent up to now is     8927.2 secs

     total energy              =  -21095.19911065 Ry
     Harris-Foulkes estimate   =  -21095.20526385 Ry
     estimated scf accuracy    <       0.57814674 Ry

     total magnetization       =   159.07 Bohr mag/cell
     absolute magnetization    =   168.84 Bohr mag/cell

     iteration # 28     ecut=    60.00 Ry     beta= 0.20
     Davidson diagonalization with overlap
     ethr =  7.20E-06,  avg # of iterations =  4.0

     negative rho (up, down):  2.814E-03 5.263E-02

     total cpu time spent up to now is     9140.4 secs

     total energy              =  -21095.21022396 Ry
     Harris-Foulkes estimate   =  -21095.20011480 Ry
     estimated scf accuracy    <       0.44256043 Ry

     total magnetization       =   159.27 Bohr mag/cell
     absolute magnetization    =   168.71 Bohr mag/cell

     iteration # 29     ecut=    60.00 Ry     beta= 0.20
     Davidson diagonalization with overlap
     ethr =  7.20E-06,  avg # of iterations =  3.4

     negative rho (up, down):  1.374E-02 1.505E-01

     total cpu time spent up to now is     9331.8 secs

     total energy              =  -21095.21915885 Ry
     Harris-Foulkes estimate   =  -21095.21211156 Ry
     estimated scf accuracy    <       0.71735901 Ry

     total magnetization       =   159.00 Bohr mag/cell
     absolute magnetization    =   169.07 Bohr mag/cell

     iteration # 30     ecut=    60.00 Ry     beta= 0.20
     Davidson diagonalization with overlap
     ethr =  7.20E-06,  avg # of iterations =  8.4

     negative rho (up, down):  1.077E-01 2.220E-01

     total cpu time spent up to now is     9629.4 secs

     total energy              =  -21095.12807693 Ry
     Harris-Foulkes estimate   =  -21095.22702352 Ry
     estimated scf accuracy    <       0.94474245 Ry

     total magnetization       =   158.43 Bohr mag/cell
     absolute magnetization    =   169.05 Bohr mag/cell

     iteration # 31     ecut=    60.00 Ry     beta= 0.20
     Davidson diagonalization with overlap
     ethr =  7.20E-06,  avg # of iterations =  7.8

     negative rho (up, down):  1.412E-01 2.346E-01

     total cpu time spent up to now is     9910.3 secs

     total energy              =  -21095.16281734 Ry
     Harris-Foulkes estimate   =  -21095.16103209 Ry
     estimated scf accuracy    <       0.06058463 Ry

     total magnetization       =   159.63 Bohr mag/cell
     absolute magnetization    =   167.95 Bohr mag/cell

     iteration # 32     ecut=    60.00 Ry     beta= 0.20
     Davidson diagonalization with overlap
     ethr =  5.88E-06,  avg # of iterations =  8.4

     negative rho (up, down):  1.651E-01 2.311E-01

     total cpu time spent up to now is    10189.0 secs

     total energy              =  -21095.18210430 Ry
     Harris-Foulkes estimate   =  -21095.16710915 Ry
     estimated scf accuracy    <       0.01503370 Ry

     total magnetization       =   160.34 Bohr mag/cell
     absolute magnetization    =   167.67 Bohr mag/cell

     iteration # 33     ecut=    60.00 Ry     beta= 0.20
     Davidson diagonalization with overlap
     c_bands:  3 eigenvalues not converged
     c_bands:  4 eigenvalues not converged
     ethr =  1.46E-06,  avg # of iterations = 20.2

     negative rho (up, down):  1.624E-01 2.320E-01

     total cpu time spent up to now is    10934.5 secs

     total energy              =  -21095.18617652 Ry
     Harris-Foulkes estimate   =  -21095.18647851 Ry
     estimated scf accuracy    <       0.04417841 Ry

     total magnetization       =   160.58 Bohr mag/cell
     absolute magnetization    =   167.69 Bohr mag/cell

     iteration # 34     ecut=    60.00 Ry     beta= 0.20
     Davidson diagonalization with overlap
     c_bands:  5 eigenvalues not converged
     c_bands:  2 eigenvalues not converged
     ethr =  1.46E-06,  avg # of iterations = 17.8

     negative rho (up, down):  1.836E-01 2.366E-01

     total cpu time spent up to now is    11484.9 secs

     total energy              =  -21095.18378898 Ry
     Harris-Foulkes estimate   =  -21095.18648914 Ry
     estimated scf accuracy    <       0.03841425 Ry

     total magnetization       =   160.55 Bohr mag/cell
     absolute magnetization    =   167.71 Bohr mag/cell

     iteration # 35     ecut=    60.00 Ry     beta= 0.20
     Davidson diagonalization with overlap
     c_bands:  1 eigenvalues not converged
     c_bands:  1 eigenvalues not converged
     ethr =  1.46E-06,  avg # of iterations = 10.6

     negative rho (up, down):  1.411E-01 2.208E-01

     total cpu time spent up to now is    11842.8 secs

     total energy              =  -21095.18099472 Ry
     Harris-Foulkes estimate   =  -21095.18456477 Ry
     estimated scf accuracy    <       0.08693785 Ry

     total magnetization       =   160.72 Bohr mag/cell
     absolute magnetization    =   167.55 Bohr mag/cell

     iteration # 36     ecut=    60.00 Ry     beta= 0.20
     Davidson diagonalization with overlap
     ethr =  1.46E-06,  avg # of iterations = 10.2

     negative rho (up, down):  1.155E-01 1.681E-01

     total cpu time spent up to now is    12116.6 secs

     total energy              =  -21095.18239571 Ry
     Harris-Foulkes estimate   =  -21095.18517575 Ry
     estimated scf accuracy    <       0.01017961 Ry

     total magnetization       =   160.33 Bohr mag/cell
     absolute magnetization    =   167.94 Bohr mag/cell

     iteration # 37     ecut=    60.00 Ry     beta= 0.20
     Davidson diagonalization with overlap
     ethr =  9.87E-07,  avg # of iterations = 13.0

     negative rho (up, down):  9.618E-02 2.024E-01

     total cpu time spent up to now is    12398.7 secs

     total energy              =  -21095.17655533 Ry
     Harris-Foulkes estimate   =  -21095.18458578 Ry
     estimated scf accuracy    <       0.04856172 Ry

     total magnetization       =   159.77 Bohr mag/cell
     absolute magnetization    =   168.08 Bohr mag/cell

     iteration # 38     ecut=    60.00 Ry     beta= 0.20
     Davidson diagonalization with overlap
     ethr =  9.87E-07,  avg # of iterations = 12.0

     negative rho (up, down):  1.730E-01 1.856E-01

     total cpu time spent up to now is    12754.5 secs

     total energy              =  -21095.18168818 Ry
     Harris-Foulkes estimate   =  -21095.17686908 Ry
     estimated scf accuracy    <       0.04191276 Ry

     total magnetization       =   160.03 Bohr mag/cell
     absolute magnetization    =   168.30 Bohr mag/cell

     iteration # 39     ecut=    60.00 Ry     beta= 0.20
     Davidson diagonalization with overlap
     c_bands:  1 eigenvalues not converged
     c_bands:  1 eigenvalues not converged
     ethr =  9.87E-07,  avg # of iterations = 15.1

     negative rho (up, down):  2.262E-01 1.886E-01

     total cpu time spent up to now is    13071.7 secs

     total energy              =  -21095.23186215 Ry
     Harris-Foulkes estimate   =  -21095.20050285 Ry
     estimated scf accuracy    <       0.12583413 Ry

     total magnetization       =   160.68 Bohr mag/cell
     absolute magnetization    =   167.29 Bohr mag/cell

     iteration # 40     ecut=    60.00 Ry     beta= 0.20
     Davidson diagonalization with overlap
     ethr =  9.87E-07,  avg # of iterations = 15.4

     negative rho (up, down):  1.867E-01 1.804E-01

     total cpu time spent up to now is    13381.7 secs

     total energy              =  -21095.22395465 Ry
     Harris-Foulkes estimate   =  -21095.23208982 Ry
     estimated scf accuracy    <       0.15272258 Ry

     total magnetization       =   160.71 Bohr mag/cell
     absolute magnetization    =   167.31 Bohr mag/cell

     iteration # 41     ecut=    60.00 Ry     beta= 0.20
     Davidson diagonalization with overlap
     ethr =  9.87E-07,  avg # of iterations =  7.4

     negative rho (up, down):  8.055E-03 1.378E-01

     total cpu time spent up to now is    13662.6 secs

     total energy              =  -21095.11654257 Ry
     Harris-Foulkes estimate   =  -21095.22405839 Ry
     estimated scf accuracy    <       0.13835014 Ry

     total magnetization       =   160.77 Bohr mag/cell
     absolute magnetization    =   167.37 Bohr mag/cell

     iteration # 42     ecut=    60.00 Ry     beta= 0.20
     Davidson diagonalization with overlap
     c_bands:  2 eigenvalues not converged
     c_bands:  1 eigenvalues not converged
     ethr =  9.87E-07,  avg # of iterations = 28.8

     negative rho (up, down):  9.033E-03 1.358E-01

     total cpu time spent up to now is    14584.4 secs

     total energy              =  -21095.24088342 Ry
     Harris-Foulkes estimate   =  -21095.24941067 Ry
     estimated scf accuracy    <       1.83839911 Ry

     total magnetization       =   158.78 Bohr mag/cell
     absolute magnetization    =   169.84 Bohr mag/cell

     iteration # 43     ecut=    60.00 Ry     beta= 0.20
     Davidson diagonalization with overlap
     c_bands:  1 eigenvalues not converged
     ethr =  9.87E-07,  avg # of iterations = 11.9

     negative rho (up, down):  1.566E-02 1.125E-01

     total cpu time spent up to now is    14868.3 secs

     total energy              =  -21095.20779057 Ry
     Harris-Foulkes estimate   =  -21095.24122608 Ry
     estimated scf accuracy    <       1.65220409 Ry

     total magnetization       =   158.80 Bohr mag/cell
     absolute magnetization    =   169.76 Bohr mag/cell

     iteration # 44     ecut=    60.00 Ry     beta= 0.20
     Davidson diagonalization with overlap
     c_bands:  1 eigenvalues not converged
     ethr =  9.87E-07,  avg # of iterations = 13.8

     negative rho (up, down):  1.482E-02 1.377E-01

     total cpu time spent up to now is    15192.9 secs

     total energy              =  -21095.22032566 Ry
     Harris-Foulkes estimate   =  -21095.21367497 Ry
     estimated scf accuracy    <       0.98307356 Ry

     total magnetization       =   159.16 Bohr mag/cell
     absolute magnetization    =   169.62 Bohr mag/cell

     iteration # 45     ecut=    60.00 Ry     beta= 0.20
     Davidson diagonalization with overlap
     c_bands:  1 eigenvalues not converged
     ethr =  9.87E-07,  avg # of iterations = 12.2

     negative rho (up, down):  6.161E-03 1.302E-01

     total cpu time spent up to now is    15555.3 secs

     total energy              =  -21095.21745440 Ry
     Harris-Foulkes estimate   =  -21095.22138612 Ry
     estimated scf accuracy    <       1.18018631 Ry

     total magnetization       =   158.94 Bohr mag/cell
     absolute magnetization    =   169.71 Bohr mag/cell

     iteration # 46     ecut=    60.00 Ry     beta= 0.20
     Davidson diagonalization with overlap
     c_bands:  1 eigenvalues not converged
     ethr =  9.87E-07,  avg # of iterations = 13.3

     negative rho (up, down):  7.578E-03 1.021E-01

     total cpu time spent up to now is    15977.0 secs

     total energy              =  -21095.21668266 Ry
     Harris-Foulkes estimate   =  -21095.21984637 Ry
     estimated scf accuracy    <       1.41123888 Ry

     total magnetization       =   158.83 Bohr mag/cell
     absolute magnetization    =   169.70 Bohr mag/cell

     iteration # 47     ecut=    60.00 Ry     beta= 0.20
     Davidson diagonalization with overlap
     ethr =  9.87E-07,  avg # of iterations = 12.1

     negative rho (up, down):  4.060E-03 1.187E-01

     total cpu time spent up to now is    16289.0 secs

     total energy              =  -21095.25782722 Ry
     Harris-Foulkes estimate   =  -21095.21910608 Ry
     estimated scf accuracy    <       1.16567504 Ry

     total magnetization       =   158.94 Bohr mag/cell
     absolute magnetization    =   169.58 Bohr mag/cell

     iteration # 48     ecut=    60.00 Ry     beta= 0.20
     Davidson diagonalization with overlap
     ethr =  9.87E-07,  avg # of iterations = 13.1

     negative rho (up, down):  7.054E-03 1.160E-01

     total cpu time spent up to now is    16748.7 secs

     total energy              =  -21095.22849293 Ry
     Harris-Foulkes estimate   =  -21095.26213546 Ry
     estimated scf accuracy    <       1.87222681 Ry

     total magnetization       =   158.56 Bohr mag/cell
     absolute magnetization    =   169.85 Bohr mag/cell

     iteration # 49     ecut=    60.00 Ry     beta= 0.20
     Davidson diagonalization with overlap
     ethr =  9.87E-07,  avg # of iterations = 11.1

     negative rho (up, down):  5.383E-03 8.881E-02

     total cpu time spent up to now is    17200.9 secs

     total energy              =  -21095.25952401 Ry
     Harris-Foulkes estimate   =  -21095.23124215 Ry
     estimated scf accuracy    <       1.28652745 Ry

     total magnetization       =   158.89 Bohr mag/cell
     absolute magnetization    =   169.73 Bohr mag/cell

     iteration # 50     ecut=    60.00 Ry     beta= 0.20
     Davidson diagonalization with overlap
     ethr =  9.87E-07,  avg # of iterations = 11.6

     negative rho (up, down):  1.903E-02 1.580E-01

     total cpu time spent up to now is    17686.9 secs

     total energy              =  -21095.20953711 Ry
     Harris-Foulkes estimate   =  -21095.26319351 Ry
     estimated scf accuracy    <       1.96963722 Ry

     total magnetization       =   158.52 Bohr mag/cell
     absolute magnetization    =   169.75 Bohr mag/cell

     iteration # 51     ecut=    60.00 Ry     beta= 0.20
     Davidson diagonalization with overlap
     c_bands:  1 eigenvalues not converged
     ethr =  9.87E-07,  avg # of iterations = 13.6

     negative rho (up, down):  8.653E-02 2.040E-01

     total cpu time spent up to now is    17996.1 secs

     total energy              =  -21095.10695989 Ry
     Harris-Foulkes estimate   =  -21095.21886999 Ry
     estimated scf accuracy    <       0.96694115 Ry

     total magnetization       =   159.00 Bohr mag/cell
     absolute magnetization    =   169.64 Bohr mag/cell

     iteration # 52     ecut=    60.00 Ry     beta= 0.20
     Davidson diagonalization with overlap
     ethr =  9.87E-07,  avg # of iterations = 14.8

     negative rho (up, down):  9.151E-02 2.069E-01

     total cpu time spent up to now is    18349.0 secs

     total energy              =  -21095.15709584 Ry
     Harris-Foulkes estimate   =  -21095.14681280 Ry
     estimated scf accuracy    <       0.01490362 Ry

     total magnetization       =   160.27 Bohr mag/cell
     absolute magnetization    =   168.38 Bohr mag/cell

     iteration # 53     ecut=    60.00 Ry     beta= 0.20
     Davidson diagonalization with overlap
     ethr =  9.87E-07,  avg # of iterations =  6.7

     negative rho (up, down):  7.596E-02 2.003E-01

     total cpu time spent up to now is    18592.1 secs

     total energy              =  -21095.13411841 Ry
     Harris-Foulkes estimate   =  -21095.15723262 Ry
     estimated scf accuracy    <       0.00928347 Ry

     total magnetization       =   160.24 Bohr mag/cell
     absolute magnetization    =   168.23 Bohr mag/cell

     iteration # 54     ecut=    60.00 Ry     beta= 0.20
     Davidson diagonalization with overlap
     ethr =  9.00E-07,  avg # of iterations =  7.1

     negative rho (up, down):  5.205E-02 1.937E-01

     total cpu time spent up to now is    18837.2 secs

     total energy              =  -21095.13088198 Ry
     Harris-Foulkes estimate   =  -21095.13444202 Ry
     estimated scf accuracy    <       0.01793845 Ry

     total magnetization       =   160.46 Bohr mag/cell
     absolute magnetization    =   168.62 Bohr mag/cell

     iteration # 55     ecut=    60.00 Ry     beta= 0.20
     Davidson diagonalization with overlap
     ethr =  9.00E-07,  avg # of iterations =  8.6

     negative rho (up, down):  3.460E-02 1.747E-01

     total cpu time spent up to now is    19095.0 secs

     total energy              =  -21095.14046938 Ry
     Harris-Foulkes estimate   =  -21095.13110399 Ry
     estimated scf accuracy    <       0.03092368 Ry

     total magnetization       =   160.21 Bohr mag/cell
     absolute magnetization    =   168.54 Bohr mag/cell

     iteration # 56     ecut=    60.00 Ry     beta= 0.20
     Davidson diagonalization with overlap
     ethr =  9.00E-07,  avg # of iterations =  9.9

     negative rho (up, down):  4.956E-02 1.910E-01

     total cpu time spent up to now is    19390.3 secs

     total energy              =  -21095.12208129 Ry
     Harris-Foulkes estimate   =  -21095.14131047 Ry
     estimated scf accuracy    <       0.07990429 Ry

     total magnetization       =   160.09 Bohr mag/cell
     absolute magnetization    =   168.80 Bohr mag/cell

     iteration # 57     ecut=    60.00 Ry     beta= 0.20
     Davidson diagonalization with overlap
     ethr =  9.00E-07,  avg # of iterations = 10.3

     negative rho (up, down):  2.687E-02 1.661E-01

     total cpu time spent up to now is    19660.2 secs

     total energy              =  -21095.17446184 Ry
     Harris-Foulkes estimate   =  -21095.12265834 Ry
     estimated scf accuracy    <       0.12170360 Ry

     total magnetization       =   159.89 Bohr mag/cell
     absolute magnetization    =   168.83 Bohr mag/cell

     iteration # 58     ecut=    60.00 Ry     beta= 0.20
     Davidson diagonalization with overlap
     ethr =  9.00E-07,  avg # of iterations = 11.1

     negative rho (up, down):  2.966E-02 1.561E-01

     total cpu time spent up to now is    19955.5 secs

     total energy              =  -21095.17052344 Ry
     Harris-Foulkes estimate   =  -21095.17501826 Ry
     estimated scf accuracy    <       0.15096054 Ry

     total magnetization       =   159.72 Bohr mag/cell
     absolute magnetization    =   168.77 Bohr mag/cell

     iteration # 59     ecut=    60.00 Ry     beta= 0.20
     Davidson diagonalization with overlap
     ethr =  9.00E-07,  avg # of iterations =  4.5

     negative rho (up, down):  4.019E-02 1.436E-01

     total cpu time spent up to now is    20188.0 secs

     total energy              =  -21095.15930525 Ry
     Harris-Foulkes estimate   =  -21095.17075400 Ry
     estimated scf accuracy    <       0.11720658 Ry

     total magnetization       =   159.80 Bohr mag/cell
     absolute magnetization    =   168.70 Bohr mag/cell

     iteration # 60     ecut=    60.00 Ry     beta= 0.20
     Davidson diagonalization with overlap
     c_bands:  1 eigenvalues not converged
     ethr =  9.00E-07,  avg # of iterations = 11.4

     negative rho (up, down):  3.502E-02 4.547E-02

     total cpu time spent up to now is    20447.8 secs

     total energy              =  -21095.13755346 Ry
     Harris-Foulkes estimate   =  -21095.16541767 Ry
     estimated scf accuracy    <       0.00361718 Ry

     total magnetization       =   160.42 Bohr mag/cell
     absolute magnetization    =   168.15 Bohr mag/cell

     iteration # 61     ecut=    60.00 Ry     beta= 0.20
     Davidson diagonalization with overlap
     c_bands:  1 eigenvalues not converged
     ethr =  3.51E-07,  avg # of iterations = 16.8

     negative rho (up, down):  2.902E-02 5.491E-02

     total cpu time spent up to now is    20882.0 secs

     total energy              =  -21095.14314772 Ry
     Harris-Foulkes estimate   =  -21095.13859432 Ry
     estimated scf accuracy    <       0.00879895 Ry

     total magnetization       =   160.61 Bohr mag/cell
     absolute magnetization    =   168.12 Bohr mag/cell

     iteration # 62     ecut=    60.00 Ry     beta= 0.20
     Davidson diagonalization with overlap
     c_bands:  1 eigenvalues not converged
     ethr =  3.51E-07,  avg # of iterations = 13.2

     negative rho (up, down):  2.535E-02 4.389E-02

     total cpu time spent up to now is    21205.3 secs

     total energy              =  -21095.15368398 Ry
     Harris-Foulkes estimate   =  -21095.14920285 Ry
     estimated scf accuracy    <       0.07999890 Ry

     total magnetization       =   159.94 Bohr mag/cell
     absolute magnetization    =   168.68 Bohr mag/cell

     iteration # 63     ecut=    60.00 Ry     beta= 0.20
     Davidson diagonalization with overlap
     c_bands:  1 eigenvalues not converged
     ethr =  3.51E-07,  avg # of iterations = 10.6

     negative rho (up, down):  2.666E-02 5.666E-02

     total cpu time spent up to now is    21488.9 secs

     total energy              =  -21095.14898780 Ry
     Harris-Foulkes estimate   =  -21095.15395025 Ry
     estimated scf accuracy    <       0.09520819 Ry

     total magnetization       =   159.95 Bohr mag/cell
     absolute magnetization    =   168.76 Bohr mag/cell

     iteration # 64     ecut=    60.00 Ry     beta= 0.20
     Davidson diagonalization with overlap
     c_bands:  1 eigenvalues not converged
     ethr =  3.51E-07,  avg # of iterations = 10.5

     negative rho (up, down):  2.801E-02 4.077E-02

     total cpu time spent up to now is    21767.0 secs

     total energy              =  -21095.14783735 Ry
     Harris-Foulkes estimate   =  -21095.14943093 Ry
     estimated scf accuracy    <       0.06550909 Ry

     total magnetization       =   159.94 Bohr mag/cell
     absolute magnetization    =   168.59 Bohr mag/cell

     iteration # 65     ecut=    60.00 Ry     beta= 0.20
     Davidson diagonalization with overlap
     c_bands:  2 eigenvalues not converged
     ethr =  3.51E-07,  avg # of iterations =  9.4

     negative rho (up, down):  2.657E-02 4.762E-02

     total cpu time spent up to now is    22031.2 secs

     total energy              =  -21095.14762843 Ry
     Harris-Foulkes estimate   =  -21095.14827514 Ry
     estimated scf accuracy    <       0.03234976 Ry

     total magnetization       =   160.08 Bohr mag/cell
     absolute magnetization    =   168.43 Bohr mag/cell

     iteration # 66     ecut=    60.00 Ry     beta= 0.20
     Davidson diagonalization with overlap
     c_bands:  1 eigenvalues not converged
     ethr =  3.51E-07,  avg # of iterations =  9.1

     negative rho (up, down):  2.710E-02 4.376E-02

     total cpu time spent up to now is    22296.3 secs

     total energy              =  -21095.15234394 Ry
     Harris-Foulkes estimate   =  -21095.14777755 Ry
     estimated scf accuracy    <       0.02140475 Ry

     total magnetization       =   160.04 Bohr mag/cell
     absolute magnetization    =   168.31 Bohr mag/cell

     iteration # 67     ecut=    60.00 Ry     beta= 0.20
     Davidson diagonalization with overlap
     c_bands:  1 eigenvalues not converged
     ethr =  3.51E-07,  avg # of iterations =  9.8

     negative rho (up, down):  2.561E-02 6.071E-02

     total cpu time spent up to now is    22572.2 secs

     total energy              =  -21095.14600810 Ry
     Harris-Foulkes estimate   =  -21095.15273177 Ry
     estimated scf accuracy    <       0.04961464 Ry

     total magnetization       =   159.93 Bohr mag/cell
     absolute magnetization    =   168.47 Bohr mag/cell

     iteration # 68     ecut=    60.00 Ry     beta= 0.20
     Davidson diagonalization with overlap
     c_bands:  1 eigenvalues not converged
     ethr =  3.51E-07,  avg # of iterations = 10.9

     negative rho (up, down):  2.501E-02 6.894E-02

     total cpu time spent up to now is    22865.1 secs

     total energy              =  -21095.14898718 Ry
     Harris-Foulkes estimate   =  -21095.14680267 Ry
     estimated scf accuracy    <       0.01144993 Ry

     total magnetization       =   160.19 Bohr mag/cell
     absolute magnetization    =   168.33 Bohr mag/cell

     iteration # 69     ecut=    60.00 Ry     beta= 0.20
     Davidson diagonalization with overlap
     c_bands:  1 eigenvalues not converged
     ethr =  3.51E-07,  avg # of iterations = 10.9

     negative rho (up, down):  1.923E-02 6.431E-02

     total cpu time spent up to now is    23131.4 secs

     total energy              =  -21095.15634177 Ry
     Harris-Foulkes estimate   =  -21095.14911095 Ry
     estimated scf accuracy    <       0.00762012 Ry

     total magnetization       =   160.22 Bohr mag/cell
     absolute magnetization    =   168.30 Bohr mag/cell

     iteration # 70     ecut=    60.00 Ry     beta= 0.20
     Davidson diagonalization with overlap
     c_bands:  1 eigenvalues not converged
     ethr =  3.51E-07,  avg # of iterations = 14.0

     negative rho (up, down):  1.395E-02 3.682E-02

     total cpu time spent up to now is    23434.0 secs

     total energy              =  -21095.15978653 Ry
     Harris-Foulkes estimate   =  -21095.15671624 Ry
     estimated scf accuracy    <       0.02310515 Ry

     total magnetization       =   160.05 Bohr mag/cell
     absolute magnetization    =   168.36 Bohr mag/cell

     iteration # 71     ecut=    60.00 Ry     beta= 0.20
     Davidson diagonalization with overlap
     c_bands:  1 eigenvalues not converged
     ethr =  3.51E-07,  avg # of iterations = 10.0

     negative rho (up, down):  1.500E-02 3.711E-02

     total cpu time spent up to now is    23698.6 secs

     total energy              =  -21095.15802570 Ry
     Harris-Foulkes estimate   =  -21095.15986362 Ry
     estimated scf accuracy    <       0.03007186 Ry

     total magnetization       =   159.92 Bohr mag/cell
     absolute magnetization    =   168.31 Bohr mag/cell

     iteration # 72     ecut=    60.00 Ry     beta= 0.20
     Davidson diagonalization with overlap
     c_bands:  2 eigenvalues not converged
     ethr =  3.51E-07,  avg # of iterations =  6.8

     negative rho (up, down):  2.038E-02 4.684E-02

     total cpu time spent up to now is    23932.9 secs

     total energy              =  -21095.15022930 Ry
     Harris-Foulkes estimate   =  -21095.15804788 Ry
     estimated scf accuracy    <       0.03286714 Ry

     total magnetization       =   159.90 Bohr mag/cell
     absolute magnetization    =   168.32 Bohr mag/cell

     iteration # 73     ecut=    60.00 Ry     beta= 0.20
     Davidson diagonalization with overlap
     c_bands:  1 eigenvalues not converged
     ethr =  3.51E-07,  avg # of iterations =  9.9

     negative rho (up, down):  2.003E-02 4.884E-02

     total cpu time spent up to now is    24208.0 secs

     total energy              =  -21095.15073006 Ry
     Harris-Foulkes estimate   =  -21095.15107651 Ry
     estimated scf accuracy    <       0.00279740 Ry

     total magnetization       =   160.07 Bohr mag/cell
     absolute magnetization    =   168.04 Bohr mag/cell

     iteration # 74     ecut=    60.00 Ry     beta= 0.20
     Davidson diagonalization with overlap
     c_bands:  1 eigenvalues not converged
     ethr =  2.71E-07,  avg # of iterations =  6.3

     negative rho (up, down):  2.456E-02 4.837E-02

     total cpu time spent up to now is    24426.4 secs

     total energy              =  -21095.15625668 Ry
     Harris-Foulkes estimate   =  -21095.15074026 Ry
     estimated scf accuracy    <       0.00266279 Ry

     total magnetization       =   160.06 Bohr mag/cell
     absolute magnetization    =   168.03 Bohr mag/cell

     iteration # 75     ecut=    60.00 Ry     beta= 0.20
     Davidson diagonalization with overlap
     c_bands:  1 eigenvalues not converged
     ethr =  2.58E-07,  avg # of iterations =  9.6

     negative rho (up, down):  1.966E-02 4.449E-02

     total cpu time spent up to now is    24701.9 secs

     total energy              =  -21095.15544454 Ry
     Harris-Foulkes estimate   =  -21095.15646819 Ry
     estimated scf accuracy    <       0.01040539 Ry

     total magnetization       =   159.99 Bohr mag/cell
     absolute magnetization    =   168.13 Bohr mag/cell

     iteration # 76     ecut=    60.00 Ry     beta= 0.20
     Davidson diagonalization with overlap
     c_bands:  1 eigenvalues not converged
     ethr =  2.58E-07,  avg # of iterations =  6.1

     negative rho (up, down):  1.876E-02 3.671E-02

     total cpu time spent up to now is    24938.1 secs

     total energy              =  -21095.15695061 Ry
     Harris-Foulkes estimate   =  -21095.15546010 Ry
     estimated scf accuracy    <       0.01056320 Ry

     total magnetization       =   160.00 Bohr mag/cell
     absolute magnetization    =   168.14 Bohr mag/cell

     iteration # 77     ecut=    60.00 Ry     beta= 0.20
     Davidson diagonalization with overlap
     c_bands:  1 eigenvalues not converged
     c_bands:  4 eigenvalues not converged
     ethr =  2.58E-07,  avg # of iterations = 12.7

     negative rho (up, down):  1.946E-02 3.702E-02

     total cpu time spent up to now is    25212.2 secs

     total energy              =  -21095.15704277 Ry
     Harris-Foulkes estimate   =  -21095.15705039 Ry
     estimated scf accuracy    <       0.00532500 Ry

     total magnetization       =   160.09 Bohr mag/cell
     absolute magnetization    =   168.13 Bohr mag/cell

     iteration # 78     ecut=    60.00 Ry     beta= 0.20
     Davidson diagonalization with overlap
     c_bands:  1 eigenvalues not converged
     c_bands:  2 eigenvalues not converged
     ethr =  2.58E-07,  avg # of iterations =  4.2

     negative rho (up, down):  2.086E-02 4.293E-02

     total cpu time spent up to now is    25446.6 secs

     total energy              =  -21095.15460512 Ry
     Harris-Foulkes estimate   =  -21095.15705205 Ry
     estimated scf accuracy    <       0.00529648 Ry

     total magnetization       =   160.11 Bohr mag/cell
     absolute magnetization    =   168.15 Bohr mag/cell

     iteration # 79     ecut=    60.00 Ry     beta= 0.20
     Davidson diagonalization with overlap
     c_bands:  1 eigenvalues not converged
     c_bands:  1 eigenvalues not converged
     ethr =  2.58E-07,  avg # of iterations =  8.2

     negative rho (up, down):  2.432E-02 4.931E-02

     total cpu time spent up to now is    25703.9 secs

     total energy              =  -21095.15465810 Ry
     Harris-Foulkes estimate   =  -21095.15465689 Ry
     estimated scf accuracy    <       0.00935837 Ry

     total magnetization       =   160.10 Bohr mag/cell
     absolute magnetization    =   168.22 Bohr mag/cell

     iteration # 80     ecut=    60.00 Ry     beta= 0.20
     Davidson diagonalization with overlap
     c_bands:  1 eigenvalues not converged
     ethr =  2.58E-07,  avg # of iterations =  9.5

     negative rho (up, down):  2.040E-02 4.679E-02

     total cpu time spent up to now is    25958.4 secs

     total energy              =  -21095.15398297 Ry
     Harris-Foulkes estimate   =  -21095.15474458 Ry
     estimated scf accuracy    <       0.00718942 Ry

     total magnetization       =   160.15 Bohr mag/cell
     absolute magnetization    =   168.23 Bohr mag/cell

     iteration # 81     ecut=    60.00 Ry     beta= 0.20
     Davidson diagonalization with overlap
     ethr =  2.58E-07,  avg # of iterations =  8.6

     negative rho (up, down):  2.062E-02 4.807E-02

     total cpu time spent up to now is    26219.8 secs

     total energy              =  -21095.15452387 Ry
     Harris-Foulkes estimate   =  -21095.15409635 Ry
     estimated scf accuracy    <       0.00660872 Ry

     total magnetization       =   160.16 Bohr mag/cell
     absolute magnetization    =   168.22 Bohr mag/cell

     iteration # 82     ecut=    60.00 Ry     beta= 0.20
     Davidson diagonalization with overlap
     ethr =  2.58E-07,  avg # of iterations =  4.1

     negative rho (up, down):  2.096E-02 4.915E-02

     total cpu time spent up to now is    26406.7 secs

     total energy              =  -21095.15344576 Ry
     Harris-Foulkes estimate   =  -21095.15455032 Ry
     estimated scf accuracy    <       0.00892401 Ry

     total magnetization       =   160.13 Bohr mag/cell
     absolute magnetization    =   168.24 Bohr mag/cell

     iteration # 83     ecut=    60.00 Ry     beta= 0.20
     Davidson diagonalization with overlap
     ethr =  2.58E-07,  avg # of iterations =  5.8

     negative rho (up, down):  2.046E-02 4.551E-02

     total cpu time spent up to now is    26614.8 secs

     total energy              =  -21095.15442472 Ry
     Harris-Foulkes estimate   =  -21095.15350681 Ry
     estimated scf accuracy    <       0.00432149 Ry

     total magnetization       =   160.19 Bohr mag/cell
     absolute magnetization    =   168.21 Bohr mag/cell

     iteration # 84     ecut=    60.00 Ry     beta= 0.20
     Davidson diagonalization with overlap
     ethr =  2.58E-07,  avg # of iterations =  5.1

     negative rho (up, down):  2.097E-02 4.473E-02

     total cpu time spent up to now is    26821.5 secs

     total energy              =  -21095.15480618 Ry
     Harris-Foulkes estimate   =  -21095.15444165 Ry
     estimated scf accuracy    <       0.00487618 Ry

     total magnetization       =   160.18 Bohr mag/cell
     absolute magnetization    =   168.21 Bohr mag/cell

     iteration # 85     ecut=    60.00 Ry     beta= 0.20
     Davidson diagonalization with overlap
     ethr =  2.58E-07,  avg # of iterations =  3.6

     negative rho (up, down):  2.071E-02 4.201E-02

     total cpu time spent up to now is    26999.2 secs

     total energy              =  -21095.15636464 Ry
     Harris-Foulkes estimate   =  -21095.15482878 Ry
     estimated scf accuracy    <       0.00340923 Ry

     total magnetization       =   160.23 Bohr mag/cell
     absolute magnetization    =   168.22 Bohr mag/cell

     iteration # 86     ecut=    60.00 Ry     beta= 0.20
     Davidson diagonalization with overlap
     ethr =  2.58E-07,  avg # of iterations =  5.0

     negative rho (up, down):  2.132E-02 4.285E-02

     total cpu time spent up to now is    27200.4 secs

     total energy              =  -21095.15651410 Ry
     Harris-Foulkes estimate   =  -21095.15638524 Ry
     estimated scf accuracy    <       0.00360064 Ry

     total magnetization       =   160.17 Bohr mag/cell
     absolute magnetization    =   168.17 Bohr mag/cell

     iteration # 87     ecut=    60.00 Ry     beta= 0.20
     Davidson diagonalization with overlap
     ethr =  2.58E-07,  avg # of iterations =  1.9

     negative rho (up, down):  2.086E-02 4.682E-02

     total cpu time spent up to now is    27371.3 secs

     total energy              =  -21095.15559373 Ry
     Harris-Foulkes estimate   =  -21095.15652162 Ry
     estimated scf accuracy    <       0.00325690 Ry

     total magnetization       =   160.17 Bohr mag/cell
     absolute magnetization    =   168.16 Bohr mag/cell

     iteration # 88     ecut=    60.00 Ry     beta= 0.20
     Davidson diagonalization with overlap
     ethr =  2.58E-07,  avg # of iterations =  9.4

     negative rho (up, down):  1.916E-02 5.056E-02

     total cpu time spent up to now is    27663.4 secs

     total energy              =  -21095.15427026 Ry
     Harris-Foulkes estimate   =  -21095.15570343 Ry
     estimated scf accuracy    <       0.00173065 Ry

     total magnetization       =   160.18 Bohr mag/cell
     absolute magnetization    =   168.11 Bohr mag/cell

     iteration # 89     ecut=    60.00 Ry     beta= 0.20
     Davidson diagonalization with overlap
     ethr =  1.68E-07,  avg # of iterations =  8.9

     negative rho (up, down):  1.918E-02 5.254E-02

     total cpu time spent up to now is    27935.7 secs

     total energy              =  -21095.15416467 Ry
     Harris-Foulkes estimate   =  -21095.15434024 Ry
     estimated scf accuracy    <       0.00178693 Ry

     total magnetization       =   160.14 Bohr mag/cell
     absolute magnetization    =   168.07 Bohr mag/cell

     iteration # 90     ecut=    60.00 Ry     beta= 0.20
     Davidson diagonalization with overlap
     ethr =  1.68E-07,  avg # of iterations =  7.0

     negative rho (up, down):  1.998E-02 6.046E-02

     total cpu time spent up to now is    28192.9 secs

     total energy              =  -21095.15480691 Ry
     Harris-Foulkes estimate   =  -21095.15418272 Ry
     estimated scf accuracy    <       0.00161591 Ry

     total magnetization       =   160.12 Bohr mag/cell
     absolute magnetization    =   168.05 Bohr mag/cell

     iteration # 91     ecut=    60.00 Ry     beta= 0.20
     Davidson diagonalization with overlap
     c_bands:  1 eigenvalues not converged
     ethr =  1.57E-07,  avg # of iterations = 11.4

     negative rho (up, down):  2.062E-02 6.666E-02

     total cpu time spent up to now is    28499.1 secs

     total energy              =  -21095.15512152 Ry
     Harris-Foulkes estimate   =  -21095.15489514 Ry
     estimated scf accuracy    <       0.00203301 Ry

     total magnetization       =   160.11 Bohr mag/cell
     absolute magnetization    =   168.05 Bohr mag/cell

     iteration # 92     ecut=    60.00 Ry     beta= 0.20
     Davidson diagonalization with overlap
     c_bands:  1 eigenvalues not converged
     ethr =  1.57E-07,  avg # of iterations = 10.8

     negative rho (up, down):  2.184E-02 6.294E-02

     total cpu time spent up to now is    28796.9 secs

     total energy              =  -21095.15598151 Ry
     Harris-Foulkes estimate   =  -21095.15515110 Ry
     estimated scf accuracy    <       0.00292331 Ry

     total magnetization       =   160.11 Bohr mag/cell
     absolute magnetization    =   168.07 Bohr mag/cell

     iteration # 93     ecut=    60.00 Ry     beta= 0.20
     Davidson diagonalization with overlap
     ethr =  1.57E-07,  avg # of iterations =  9.2

     negative rho (up, down):  2.388E-02 6.884E-02

     total cpu time spent up to now is    29077.9 secs

     total energy              =  -21095.15542107 Ry
     Harris-Foulkes estimate   =  -21095.15601932 Ry
     estimated scf accuracy    <       0.00326313 Ry

     total magnetization       =   160.08 Bohr mag/cell
     absolute magnetization    =   168.07 Bohr mag/cell

     iteration # 94     ecut=    60.00 Ry     beta= 0.20
     Davidson diagonalization with overlap
     ethr =  1.57E-07,  avg # of iterations =  7.2

     negative rho (up, down):  2.344E-02 6.566E-02

     total cpu time spent up to now is    29348.8 secs

     total energy              =  -21095.15597686 Ry
     Harris-Foulkes estimate   =  -21095.15545299 Ry
     estimated scf accuracy    <       0.00608259 Ry

     total magnetization       =   160.04 Bohr mag/cell
     absolute magnetization    =   168.09 Bohr mag/cell

     iteration # 95     ecut=    60.00 Ry     beta= 0.20
     Davidson diagonalization with overlap
     ethr =  1.57E-07,  avg # of iterations =  6.2

     negative rho (up, down):  2.492E-02 7.216E-02

     total cpu time spent up to now is    29618.7 secs

     total energy              =  -21095.15599916 Ry
     Harris-Foulkes estimate   =  -21095.15598582 Ry
     estimated scf accuracy    <       0.00602389 Ry

     total magnetization       =   160.05 Bohr mag/cell
     absolute magnetization    =   168.10 Bohr mag/cell

     iteration # 96     ecut=    60.00 Ry     beta= 0.20
     Davidson diagonalization with overlap
     ethr =  1.57E-07,  avg # of iterations =  9.8

     negative rho (up, down):  2.594E-02 7.785E-02

     total cpu time spent up to now is    29892.9 secs

     total energy              =  -21095.15408212 Ry
     Harris-Foulkes estimate   =  -21095.15609453 Ry
     estimated scf accuracy    <       0.00251356 Ry

     total magnetization       =   160.06 Bohr mag/cell
     absolute magnetization    =   168.03 Bohr mag/cell

     iteration # 97     ecut=    60.00 Ry     beta= 0.20
     Davidson diagonalization with overlap
     ethr =  1.57E-07,  avg # of iterations =  7.0

     negative rho (up, down):  2.386E-02 6.966E-02

     total cpu time spent up to now is    30160.0 secs

     total energy              =  -21095.15684476 Ry
     Harris-Foulkes estimate   =  -21095.15409718 Ry
     estimated scf accuracy    <       0.00151954 Ry

     total magnetization       =   160.12 Bohr mag/cell
     absolute magnetization    =   168.05 Bohr mag/cell

     iteration # 98     ecut=    60.00 Ry     beta= 0.20
     Davidson diagonalization with overlap
     ethr =  1.47E-07,  avg # of iterations =  5.7

     negative rho (up, down):  1.850E-02 6.156E-02

     total cpu time spent up to now is    30399.8 secs

     total energy              =  -21095.15757124 Ry
     Harris-Foulkes estimate   =  -21095.15685497 Ry
     estimated scf accuracy    <       0.00197116 Ry

     total magnetization       =   160.06 Bohr mag/cell
     absolute magnetization    =   168.01 Bohr mag/cell

     iteration # 99     ecut=    60.00 Ry     beta= 0.20
     Davidson diagonalization with overlap
     ethr =  1.47E-07,  avg # of iterations = 12.2

     negative rho (up, down):  1.904E-02 6.110E-02

     total cpu time spent up to now is    30683.2 secs

     total energy              =  -21095.15780349 Ry
     Harris-Foulkes estimate   =  -21095.15773080 Ry
     estimated scf accuracy    <       0.00047687 Ry

     total magnetization       =   160.13 Bohr mag/cell
     absolute magnetization    =   168.00 Bohr mag/cell

     iteration #100     ecut=    60.00 Ry     beta= 0.20
     Davidson diagonalization with overlap
     ethr =  4.63E-08,  avg # of iterations =  6.5

     negative rho (up, down):  1.939E-02 5.932E-02

     Magnetic moment per site:
     atom:    1    charge:   12.6044    magn:    2.3519    constr:    0.0000
     atom:    2    charge:   12.5953    magn:    2.1961    constr:    0.0000
     atom:    3    charge:   12.6043    magn:    2.3553    constr:    0.0000
     atom:    4    charge:   12.5930    magn:    2.1938    constr:    0.0000
     atom:    5    charge:   12.5970    magn:    2.1883    constr:    0.0000
     atom:    6    charge:   12.6059    magn:    2.2090    constr:    0.0000
     atom:    7    charge:   12.5937    magn:    2.1709    constr:    0.0000
     atom:    8    charge:   12.6039    magn:    2.3765    constr:    0.0000
     atom:    9    charge:   12.6049    magn:    2.3466    constr:    0.0000
     atom:   10    charge:   12.6041    magn:    2.3567    constr:    0.0000
     atom:   11    charge:   12.5932    magn:    2.2048    constr:    0.0000
     atom:   12    charge:   12.5945    magn:    2.1931    constr:    0.0000
     atom:   13    charge:   12.5939    magn:    2.1844    constr:    0.0000
     atom:   14    charge:   12.5972    magn:    2.1234    constr:    0.0000
     atom:   15    charge:   12.6093    magn:    2.3321    constr:    0.0000
     atom:   16    charge:   12.6050    magn:    2.2535    constr:    0.0000
     atom:   17    charge:   12.6042    magn:    2.3552    constr:    0.0000
     atom:   18    charge:   12.5929    magn:    2.1939    constr:    0.0000
     atom:   19    charge:   12.6043    magn:    2.3561    constr:    0.0000
     atom:   20    charge:   12.5941    magn:    2.1993    constr:    0.0000
     atom:   21    charge:   12.5937    magn:    2.1705    constr:    0.0000
     atom:   22    charge:   12.6037    magn:    2.3765    constr:    0.0000
     atom:   23    charge:   12.5938    magn:    2.1705    constr:    0.0000
     atom:   24    charge:   12.6013    magn:    1.8688    constr:    0.0000
     atom:   25    charge:   12.6045    magn:    2.3695    constr:    0.0000
     atom:   26    charge:   12.6044    magn:    2.3466    constr:    0.0000
     atom:   27    charge:   12.5922    magn:    2.1965    constr:    0.0000
     atom:   28    charge:   12.5930    magn:    2.2028    constr:    0.0000
     atom:   29    charge:   12.5987    magn:    2.2215    constr:    0.0000
     atom:   30    charge:   12.5966    magn:    2.1179    constr:    0.0000
     atom:   31    charge:   12.5987    magn:    2.2370    constr:    0.0000
     atom:   32    charge:   12.6089    magn:    2.3307    constr:    0.0000
     atom:   33    charge:   12.6043    magn:    2.3530    constr:    0.0000
     atom:   34    charge:   12.5929    magn:    2.1889    constr:    0.0000
     atom:   35    charge:   12.6043    magn:    2.3519    constr:    0.0000
     atom:   36    charge:   12.5957    magn:    2.1963    constr:    0.0000
     atom:   37    charge:   12.5970    magn:    2.1734    constr:    0.0000
     atom:   38    charge:   12.6053    magn:    2.3589    constr:    0.0000
     atom:   39    charge:   12.5967    magn:    2.1886    constr:    0.0000
     atom:   40    charge:   12.6058    magn:    2.2089    constr:    0.0000
     atom:   41    charge:   12.6040    magn:    2.3614    constr:    0.0000
     atom:   42    charge:   12.6049    magn:    2.3467    constr:    0.0000
     atom:   43    charge:   12.5941    magn:    2.1958    constr:    0.0000
     atom:   44    charge:   12.5930    magn:    2.2029    constr:    0.0000
     atom:   45    charge:   12.5972    magn:    2.1815    constr:    0.0000
     atom:   46    charge:   12.5966    magn:    2.1177    constr:    0.0000
     atom:   47    charge:   12.6081    magn:    2.3816    constr:    0.0000
     atom:   48    charge:   12.6088    magn:    2.3312    constr:    0.0000
     atom:   49    charge:   12.6044    magn:    2.3560    constr:    0.0000
     atom:   50    charge:   12.5946    magn:    2.1995    constr:    0.0000
     atom:   51    charge:   12.6044    magn:    2.3529    constr:    0.0000
     atom:   52    charge:   12.5929    magn:    2.1889    constr:    0.0000
     atom:   53    charge:   12.5939    magn:    2.1708    constr:    0.0000
     atom:   54    charge:   12.6008    magn:    1.8691    constr:    0.0000
     atom:   55    charge:   12.5974    magn:    2.1731    constr:    0.0000
     atom:   56    charge:   12.6053    magn:    2.3589    constr:    0.0000
     atom:   57    charge:   12.6049    magn:    2.3465    constr:    0.0000
     atom:   58    charge:   12.6040    magn:    2.3569    constr:    0.0000
     atom:   59    charge:   12.5932    magn:    2.2049    constr:    0.0000
     atom:   60    charge:   12.5923    magn:    2.1978    constr:    0.0000
     atom:   61    charge:   12.5939    magn:    2.1846    constr:    0.0000
     atom:   62    charge:   12.5971    magn:    2.1324    constr:    0.0000
     atom:   63    charge:   12.6091    magn:    2.3325    constr:    0.0000
     atom:   64    charge:   12.5982    magn:    2.2436    constr:    0.0000
     atom:   65    charge:    1.3338    magn:   -0.0343    constr:    0.0000
     atom:   66    charge:    0.4300    magn:    0.0072    constr:    0.0000
     atom:   67    charge:    0.3550    magn:   -0.0205    constr:    0.0000

     total cpu time spent up to now is    30913.8 secs

     total energy              =  -21095.15727478 Ry
     Harris-Foulkes estimate   =  -21095.15780803 Ry
     estimated scf accuracy    <       0.00045113 Ry

     total magnetization       =   160.13 Bohr mag/cell
     absolute magnetization    =   168.01 Bohr mag/cell

     iteration #101     ecut=    60.00 Ry     beta= 0.20
     Davidson diagonalization with overlap
     ethr =  4.38E-08,  avg # of iterations =  7.9

     negative rho (up, down):  2.043E-02 5.805E-02

     total cpu time spent up to now is    31169.8 secs

     total energy              =  -21095.15764195 Ry
     Harris-Foulkes estimate   =  -21095.15728293 Ry
     estimated scf accuracy    <       0.00048354 Ry

     total magnetization       =   160.15 Bohr mag/cell
     absolute magnetization    =   168.02 Bohr mag/cell

     iteration #102     ecut=    60.00 Ry     beta= 0.20
     Davidson diagonalization with overlap
     ethr =  4.38E-08,  avg # of iterations =  8.2

     negative rho (up, down):  1.860E-02 6.447E-02

     total cpu time spent up to now is    31430.5 secs

     total energy              =  -21095.15753544 Ry
     Harris-Foulkes estimate   =  -21095.15766043 Ry
     estimated scf accuracy    <       0.00055862 Ry

     total magnetization       =   160.15 Bohr mag/cell
     absolute magnetization    =   168.03 Bohr mag/cell

     iteration #103     ecut=    60.00 Ry     beta= 0.20
     Davidson diagonalization with overlap
     ethr =  4.38E-08,  avg # of iterations =  9.5

     negative rho (up, down):  1.920E-02 6.425E-02

     total cpu time spent up to now is    31708.4 secs

     total energy              =  -21095.15773899 Ry
     Harris-Foulkes estimate   =  -21095.15759930 Ry
     estimated scf accuracy    <       0.00040189 Ry

     total magnetization       =   160.14 Bohr mag/cell
     absolute magnetization    =   168.01 Bohr mag/cell

     iteration #104     ecut=    60.00 Ry     beta= 0.20
     Davidson diagonalization with overlap
     ethr =  3.90E-08,  avg # of iterations =  5.5

     negative rho (up, down):  1.886E-02 6.910E-02

     total cpu time spent up to now is    31927.7 secs

     total energy              =  -21095.15867663 Ry
     Harris-Foulkes estimate   =  -21095.15774372 Ry
     estimated scf accuracy    <       0.00041826 Ry

     total magnetization       =   160.14 Bohr mag/cell
     absolute magnetization    =   168.01 Bohr mag/cell

     iteration #105     ecut=    60.00 Ry     beta= 0.20
     Davidson diagonalization with overlap
     ethr =  3.90E-08,  avg # of iterations =  7.2

     negative rho (up, down):  1.785E-02 5.952E-02

     total cpu time spent up to now is    32172.3 secs

     total energy              =  -21095.15881881 Ry
     Harris-Foulkes estimate   =  -21095.15868163 Ry
     estimated scf accuracy    <       0.00045088 Ry

     total magnetization       =   160.15 Bohr mag/cell
     absolute magnetization    =   168.02 Bohr mag/cell

     iteration #106     ecut=    60.00 Ry     beta= 0.20
     Davidson diagonalization with overlap
     ethr =  3.90E-08,  avg # of iterations =  7.0

     negative rho (up, down):  1.581E-02 5.596E-02

     total cpu time spent up to now is    32403.3 secs

     total energy              =  -21095.16028136 Ry
     Harris-Foulkes estimate   =  -21095.15882506 Ry
     estimated scf accuracy    <       0.00059275 Ry

     total magnetization       =   160.14 Bohr mag/cell
     absolute magnetization    =   168.03 Bohr mag/cell

     iteration #107     ecut=    60.00 Ry     beta= 0.20
     Davidson diagonalization with overlap
     ethr =  3.90E-08,  avg # of iterations =  8.4

     negative rho (up, down):  1.549E-02 6.210E-02

     total cpu time spent up to now is    32657.4 secs

     total energy              =  -21095.15761991 Ry
     Harris-Foulkes estimate   =  -21095.16029701 Ry
     estimated scf accuracy    <       0.00071601 Ry

     total magnetization       =   160.17 Bohr mag/cell
     absolute magnetization    =   168.06 Bohr mag/cell

     iteration #108     ecut=    60.00 Ry     beta= 0.20
     Davidson diagonalization with overlap
     ethr =  3.90E-08,  avg # of iterations =  8.6

     negative rho (up, down):  1.501E-02 5.645E-02

     total cpu time spent up to now is    32917.8 secs

     total energy              =  -21095.15919687 Ry
     Harris-Foulkes estimate   =  -21095.15763913 Ry
     estimated scf accuracy    <       0.00050449 Ry

     total magnetization       =   160.20 Bohr mag/cell
     absolute magnetization    =   168.07 Bohr mag/cell

     iteration #109     ecut=    60.00 Ry     beta= 0.20
     Davidson diagonalization with overlap
     ethr =  3.90E-08,  avg # of iterations =  6.9

     negative rho (up, down):  1.922E-02 6.801E-02

     total cpu time spent up to now is    33147.5 secs

     total energy              =  -21095.15731591 Ry
     Harris-Foulkes estimate   =  -21095.15920676 Ry
     estimated scf accuracy    <       0.00060176 Ry

     total magnetization       =   160.15 Bohr mag/cell
     absolute magnetization    =   168.04 Bohr mag/cell

     iteration #110     ecut=    60.00 Ry     beta= 0.20
     Davidson diagonalization with overlap
     ethr =  3.90E-08,  avg # of iterations = 11.1

     negative rho (up, down):  1.059E-02 6.962E-02

     total cpu time spent up to now is    33431.1 secs

     total energy              =  -21095.15712938 Ry
     Harris-Foulkes estimate   =  -21095.15740469 Ry
     estimated scf accuracy    <       0.00067241 Ry

     total magnetization       =   160.15 Bohr mag/cell
     absolute magnetization    =   168.03 Bohr mag/cell

     iteration #111     ecut=    60.00 Ry     beta= 0.20
     Davidson diagonalization with overlap
     ethr =  3.90E-08,  avg # of iterations = 13.4

     negative rho (up, down):  1.443E-02 6.297E-02

     total cpu time spent up to now is    33744.9 secs

     total energy              =  -21095.15802718 Ry
     Harris-Foulkes estimate   =  -21095.15774791 Ry
     estimated scf accuracy    <       0.00106949 Ry

     total magnetization       =   160.16 Bohr mag/cell
     absolute magnetization    =   168.08 Bohr mag/cell

     iteration #112     ecut=    60.00 Ry     beta= 0.20
     Davidson diagonalization with overlap
     ethr =  3.90E-08,  avg # of iterations = 12.1

     negative rho (up, down):  1.493E-02 6.125E-02

     total cpu time spent up to now is    34041.3 secs

     total energy              =  -21095.15793469 Ry
     Harris-Foulkes estimate   =  -21095.15840393 Ry
     estimated scf accuracy    <       0.00094123 Ry

     total magnetization       =   160.18 Bohr mag/cell
     absolute magnetization    =   168.08 Bohr mag/cell

     iteration #113     ecut=    60.00 Ry     beta= 0.20
     Davidson diagonalization with overlap
     ethr =  3.90E-08,  avg # of iterations =  6.5

     negative rho (up, down):  1.665E-02 5.971E-02

     total cpu time spent up to now is    34265.0 secs

     total energy              =  -21095.15811723 Ry
     Harris-Foulkes estimate   =  -21095.15794016 Ry
     estimated scf accuracy    <       0.00088389 Ry

     total magnetization       =   160.18 Bohr mag/cell
     absolute magnetization    =   168.08 Bohr mag/cell

     iteration #114     ecut=    60.00 Ry     beta= 0.20
[...]
   -10.9179 -10.9137 -10.8892 -10.8659 -10.8398 -10.8254 -10.7905 -10.7870
   -10.7628 -10.7535 -10.7357 -10.7217 -10.7126 -10.7071 -10.6953 -10.6803
   -10.6597 -10.6572 -10.6464 -10.6452 -10.6370 -10.6210 -10.6099 -10.5926
   -10.5894 -10.5816 -10.5664 -10.5587 -10.5453 -10.5428 -10.5211 -10.5097
   -10.5038 -10.4766 -10.4714 -10.4590 -10.4552 -10.4402 -10.4360 -10.4330
   -10.4272 -10.4196 -10.4143 -10.3992 -10.3912 -10.3711 -10.3686 -10.3650
   -10.3587 -10.3443 -10.3369 -10.3267 -10.3217 -10.3121 -10.2988 -10.2896
   -10.2831 -10.2612 -10.2491 -10.2398 -10.2343 -10.2217 -10.2189 -10.2148
   -10.2098 -10.2026 -10.1948 -10.1891 -10.1821 -10.1754 -10.1689 -10.1578
   -10.1432 -10.1388 -10.1341 -10.1229 -10.1059 -10.1006 -10.0913 -10.0859
   -10.0851 -10.0809 -10.0715 -10.0709 -10.0650 -10.0617 -10.0499 -10.0402
   -10.0345 -10.0315 -10.0237 -10.0138 -10.0029  -9.9980  -9.9939  -9.9789
    -9.9688  -9.9612  -9.9434  -9.9181  -9.9067  -9.9034  -9.8898  -9.8780
    -9.8742  -9.8667  -9.8607  -9.8522  -9.8400  -9.8281  -9.8195  -9.7991
    -9.7792  -9.7702  -9.7610  -9.7452  -9.7361  -9.7249  -9.7203  -9.6978
    -9.6384  -9.5915  -9.5481  -9.5111  -9.4701  -9.4425  -9.3689  -9.3370
    -9.2667  -9.2435  -9.2102

          k =-0.5000-0.3536 0.0000 (128560 PWs)   bands (ev):

   -97.7721 -97.7704 -97.4194 -97.4171 -97.3658 -97.3603 -97.3435 -97.3401
   -97.3165 -97.3107 -97.2970 -97.2924 -97.2862 -97.2857 -97.2847 -97.2803
   -97.2759 -97.2732 -97.2730 -97.2671 -97.2646 -97.2635 -97.2613 -97.2612
   -97.2535 -97.2527 -97.2523 -97.2497 -97.2495 -97.2475 -97.2469 -97.2455
   -97.2437 -97.2433 -97.2429 -97.2286 -97.2250 -97.2239 -97.2234 -97.2220
   -97.2202 -97.2108 -97.2098 -97.2089 -97.2088 -97.2082 -97.2071 -97.2062
   -97.2032 -97.1952 -97.1907 -97.1869 -97.1866 -97.1864 -97.1861 -97.1851
   -97.1851 -97.1847 -97.1827 -97.1825 -97.1641 -97.1640 -97.1637 -97.1612
   -64.2106 -64.1946 -63.8667 -63.8613 -63.7078 -63.6896 -63.6504 -63.6485
   -63.6362 -63.6099 -63.5822 -63.5756 -63.5754 -63.5680 -63.5656 -63.5649
   -63.5645 -63.5621 -63.5579 -63.5551 -63.5520 -63.5507 -63.5480 -63.5459
   -63.5429 -63.5413 -63.5385 -63.5345 -63.5337 -63.5297 -63.5253 -63.5240
   -63.5227 -63.5218 -63.5176 -63.5160 -63.5103 -63.5100 -63.5068 -63.5047
   -63.5015 -63.5012 -63.4989 -63.4940 -63.4929 -63.4863 -63.4855 -63.4835
   -63.4772 -63.4723 -63.4703 -63.4663 -63.4650 -63.4647 -63.4638 -63.4606
   -63.4603 -63.4593 -63.4590 -63.4564 -63.4537 -63.4534 -63.4515 -63.4511
   -63.4493 -63.4474 -63.4429 -63.4385 -63.4362 -63.4331 -63.4285 -63.4258
   -63.4208 -63.4143 -63.4112 -63.4082 -63.4012 -63.3992 -63.3935 -63.3913
   -63.3905 -63.3888 -63.3816 -63.3798 -63.3765 -63.3691 -63.3677 -63.3660
   -63.3618 -63.3605 -63.3596 -63.3569 -63.3569 -63.3513 -63.3493 -63.3485
   -63.3481 -63.3467 -63.3412 -63.3410 -63.3395 -63.3376 -63.3314 -63.3304
   -63.3254 -63.3240 -63.3232 -63.3206 -63.3136 -63.3129 -63.3113 -63.3102
   -63.3085 -63.3078 -63.3051 -63.3043 -63.3021 -63.3020 -63.3007 -63.2988
   -63.2955 -63.2944 -63.2925 -63.2897 -63.2841 -63.2828 -63.2827 -63.2819
   -63.2796 -63.2774 -63.2754 -63.2717 -63.2703 -63.2695 -63.2671 -63.2643
   -63.2630 -63.2617 -63.2604 -63.2592 -63.2577 -63.2552 -63.2538 -63.2529
   -63.2513 -63.2503 -63.2483 -63.2470 -63.2464 -63.2463 -63.2452 -63.2447
   -63.2430 -63.2400 -63.2363 -63.2358 -63.2327 -63.2282 -63.2281 -63.2272
   -63.2259 -63.2234 -63.2215 -63.2212 -63.2202 -63.2197 -63.2193 -63.2183
   -63.2182 -63.2182 -63.2165 -63.2157 -63.2147 -63.2141 -63.2111 -63.2106
   -63.2088 -63.2059 -63.2053 -63.2049 -63.2044 -63.1993 -63.1991 -63.1982
   -63.1971 -63.1947 -63.1943 -63.1936 -63.1900 -63.1890 -63.1868 -63.1856
   -28.2558 -19.7828 -19.2635 -19.2211 -18.7162 -18.6965 -18.2875 -18.0050
   -17.5706 -17.4935 -17.1501 -17.0610 -17.0075 -16.6685 -16.6225 -16.5869
   -16.5408 -16.2027 -16.0059 -15.8339 -15.8171 -15.8112 -15.7884 -15.7789
   -15.7401 -15.7050 -15.6822 -15.6805 -15.6397 -15.6354 -15.4181 -15.2862
   -15.2611 -15.2531 -15.2505 -15.2097 -15.1570 -15.0642 -14.9624 -14.8032
   -14.7828 -14.7810 -14.7495 -14.7465 -14.7161 -14.6946 -14.6541 -14.6444
   -14.6383 -14.5791 -14.5397 -14.5031 -14.4962 -14.4767 -14.4507 -14.4217
   -14.3855 -14.2365 -14.2300 -14.2166 -14.2047 -14.1928 -14.1533 -13.9859
   -13.9566 -13.9306 -13.9147 -13.8988 -13.8871 -13.8065 -13.7846 -13.7648
   -13.7313 -13.7132 -13.6973 -13.6845 -13.6825 -13.6698 -13.6590 -13.6570
   -13.6396 -13.6315 -13.6223 -13.5831 -13.5788 -13.5736 -13.5667 -13.5546
   -13.5493 -13.5332 -13.5185 -13.4735 -13.4506 -13.4332 -13.3569 -13.3401
   -13.3327 -13.2779 -13.2307 -13.2167 -13.2094 -13.2090 -13.2040 -13.1915
   -13.1832 -13.1793 -13.1654 -13.1644 -13.1426 -13.1404 -13.1333 -13.1297
   -13.1185 -13.1069 -13.1054 -13.0959 -13.0914 -13.0857 -13.0790 -13.0713
   -13.0676 -13.0634 -13.0594 -13.0478 -13.0402 -13.0335 -13.0311 -13.0198
   -13.0027 -12.9844 -12.9814 -12.9774 -12.9763 -12.9630 -12.9572 -12.9502
   -12.9462 -12.9443 -12.9206 -12.9143 -12.9140 -12.8610 -12.8397 -12.7941
   -12.7465 -12.7197 -12.7066 -12.6926 -12.6890 -12.6856 -12.6758 -12.6510
   -12.6419 -12.6296 -12.5784 -12.5578 -12.5394 -12.5262 -12.5150 -12.4955
   -12.4850 -12.4820 -12.4726 -12.4619 -12.4420 -12.4357 -12.4164 -12.3910
   -12.2997 -12.2748 -12.2449 -12.2350 -12.2021 -12.2020 -12.1858 -12.1822
   -12.1695 -12.1624 -12.1443 -12.1207 -12.0993 -12.0896 -12.0729 -12.0669
   -12.0652 -12.0403 -12.0378 -12.0175 -12.0044 -11.9095 -11.9077 -11.8221
   -11.7787 -11.7740 -11.7550 -11.6751 -11.6737 -11.6233 -11.5095 -11.4571
   -11.4152 -11.3985 -11.3792 -11.3391 -11.3383 -11.3340 -11.3170 -11.3067
   -11.2802 -11.2704 -11.2702 -11.2341 -11.2232 -11.2214 -11.2158 -11.1754
   -11.1375 -11.1112 -11.1051 -11.0976 -11.0923 -11.0791 -11.0526 -11.0384
   -11.0192 -11.0156 -10.9908 -10.9434 -10.9394 -10.9250 -10.9177 -10.9155
   -10.9077 -10.9007 -10.8993 -10.8804 -10.8763 -10.8761 -10.8278 -10.8157
   -10.8106 -10.7946 -10.7519 -10.7496 -10.7298 -10.7188 -10.7154 -10.7141
   -10.6953 -10.6739 -10.6201 -10.6043 -10.5964 -10.5907 -10.5518 -10.5434
   -10.5170 -10.5025 -10.4910 -10.4775 -10.4762 -10.4734 -10.4686 -10.4600
   -10.4481 -10.4398 -10.4233 -10.4194 -10.4132 -10.4089 -10.4028 -10.3977
   -10.3899 -10.3870 -10.3789 -10.3664 -10.3542 -10.3537 -10.3497 -10.3376
   -10.3249 -10.3196 -10.3117 -10.3061 -10.3047 -10.3023 -10.2929 -10.2890
   -10.2875 -10.2762 -10.2656 -10.2642 -10.2494 -10.2385 -10.2309 -10.2277
   -10.2272 -10.2165 -10.2065 -10.2060 -10.1969 -10.1766 -10.1750 -10.1654
   -10.1352 -10.1189 -10.1145 -10.1044 -10.1025 -10.0929 -10.0890 -10.0754
   -10.0700 -10.0693 -10.0502 -10.0405 -10.0393 -10.0328 -10.0307 -10.0242
   -10.0199 -10.0143 -10.0127 -10.0069 -10.0037 -10.0005  -9.9973  -9.9778
    -9.9714  -9.9691  -9.9650  -9.9603  -9.9515  -9.9471  -9.9352  -9.9349
    -9.9336  -9.9262  -9.9176  -9.9019  -9.8696  -9.8548  -9.8484  -9.8346
    -9.8333  -9.8098  -9.7490  -9.7330  -9.6245  -9.6229  -9.6165  -9.5922
    -9.5356  -9.5287  -9.4651  -9.4096  -9.3988  -9.3916  -9.3803  -9.3397
    -9.3246  -9.3145  -9.3124

     the Fermi energy is   -12.1541 ev

!    total energy              =  -21095.16175876 Ry
     Harris-Foulkes estimate   =  -21095.16175923 Ry
     estimated scf accuracy    <          3.4E-11 Ry

     The total energy is the sum of the following terms:

     one-electron contribution = -744337.28840622 Ry
     hartree contribution      =  371703.48629686 Ry
     xc contribution           =   -2234.85223612 Ry
     ewald contribution        =  358648.32841464 Ry
     Dispersion Correction     =      -1.39785884 Ry
     one-center paw contrib.   =   -4873.44006389 Ry
     smearing contrib. (-TS)   =       0.00209481 Ry

     total magnetization       =   160.63 Bohr mag/cell
     absolute magnetization    =   168.56 Bohr mag/cell

     convergence has been achieved in  39 iterations

     negative rho (up, down):  1.126E-02 1.224E-01

     Forces acting on atoms (cartesian axes, Ry/au):

     atom    1 type  1   force =     0.00064421   -0.00034780    0.00873935
     atom    2 type  1   force =     0.00148478   -0.00230804   -0.01294239
     atom    3 type  1   force =    -0.00063130   -0.00043244    0.00877010
     atom    4 type  1   force =     0.00078559    0.00079282   -0.00626139
     atom    5 type  1   force =     0.00000761   -0.00002003    0.00006795
     atom    6 type  1   force =     0.00002268   -0.00004303    0.00005513
     atom    7 type  1   force =     0.00000822    0.00001461    0.00000671
     atom    8 type  1   force =     0.00001781    0.00003088   -0.00004460
     atom    9 type  1   force =    -0.00000348   -0.00002191    0.00925989
     atom   10 type  1   force =    -0.00012905   -0.00010272    0.00837848
     atom   11 type  1   force =    -0.00044985    0.00167486   -0.00582742
     atom   12 type  1   force =     0.00084585    0.00070526   -0.01022535
     atom   13 type  1   force =    -0.00001545   -0.00001001    0.00008484
     atom   14 type  1   force =     0.00001098    0.00000217    0.00002507
     atom   15 type  1   force =     0.00001995   -0.00004291   -0.00004106
     atom   16 type  1   force =    -0.00000651   -0.00000999    0.00006037
     atom   17 type  1   force =    -0.00058862   -0.00041647    0.00879438
     atom   18 type  1   force =     0.00105411    0.00052104   -0.00630309
     atom   19 type  1   force =     0.00056203    0.00046738    0.00892855
     atom   20 type  1   force =     0.00036695   -0.00076198   -0.01039200
     atom   21 type  1   force =     0.00001915    0.00000298    0.00001426
     atom   22 type  1   force =     0.00004211   -0.00000212   -0.00003540
     atom   23 type  1   force =    -0.00002207   -0.00000938    0.00001155
     atom   24 type  1   force =    -0.00007519    0.00009920    0.00010230
     atom   25 type  1   force =    -0.00002129   -0.00001157    0.00701284
     atom   26 type  1   force =    -0.00059498    0.00073729    0.01018707
     atom   27 type  1   force =    -0.00001705   -0.00008229   -0.00486734
     atom   28 type  1   force =    -0.00119022    0.00081280   -0.00496001
     atom   29 type  1   force =     0.00000286   -0.00000043   -0.00001758
     atom   30 type  1   force =     0.00003494   -0.00003759   -0.00003121
     atom   31 type  1   force =     0.00005503    0.00002906   -0.00000108
     atom   32 type  1   force =     0.00003272   -0.00004169    0.00000395
     atom   33 type  1   force =    -0.00040619    0.00024958    0.00850829
     atom   34 type  1   force =    -0.00060538   -0.00070056   -0.00639957
     atom   35 type  1   force =    -0.00012130    0.00070111    0.00875784
     atom   36 type  1   force =    -0.00177652    0.00229259   -0.01285801
     atom   37 type  1   force =     0.00001429   -0.00000626    0.00004802
     atom   38 type  1   force =    -0.00002153   -0.00003050   -0.00003763
     atom   39 type  1   force =    -0.00001310    0.00000845    0.00006839
     atom   40 type  1   force =    -0.00004132    0.00003923    0.00006762
     atom   41 type  1   force =     0.00009867    0.00003066    0.00810646
     atom   42 type  1   force =     0.00052371   -0.00080704    0.01029858
     atom   43 type  1   force =    -0.00119174   -0.00072525   -0.00936982
     atom   44 type  1   force =     0.00034640   -0.00139914   -0.00492804
     atom   45 type  1   force =    -0.00000378   -0.00000487    0.00010294
     atom   46 type  1   force =    -0.00002836    0.00004721   -0.00003014
     atom   47 type  1   force =     0.00002521    0.00002177   -0.00011408
     atom   48 type  1   force =    -0.00002097    0.00004241   -0.00001965
     atom   49 type  1   force =     0.00064348    0.00037908    0.00895050
     atom   50 type  1   force =    -0.00050774    0.00044568   -0.01040731
     atom   51 type  1   force =     0.00013466   -0.00049183    0.00852291
     atom   52 type  1   force =    -0.00084302   -0.00031644   -0.00639509
     atom   53 type  1   force =    -0.00002142   -0.00001483    0.00000591
     atom   54 type  1   force =     0.00006876   -0.00011062    0.00009792
     atom   55 type  1   force =    -0.00000105    0.00001725    0.00004639
     atom   56 type  1   force =    -0.00004087   -0.00001112   -0.00003989
     atom   57 type  1   force =    -0.00004550   -0.00000654    0.00928776
     atom   58 type  1   force =     0.00001673    0.00003215    0.00862157
     atom   59 type  1   force =     0.00143801   -0.00098323   -0.00580923
     atom   60 type  1   force =     0.00029094    0.00015840   -0.00464310
     atom   61 type  1   force =    -0.00001467   -0.00000373    0.00008688
     atom   62 type  1   force =    -0.00000625   -0.00000188    0.00004599
     atom   63 type  1   force =    -0.00004196    0.00002368   -0.00005095
     atom   64 type  1   force =    -0.00005494   -0.00003661    0.00001540
     atom   65 type  2   force =    -0.00000182   -0.00000436    0.00015262
     atom   66 type  3   force =    -0.00001956   -0.00000968   -0.00020815
     atom   67 type  3   force =    -0.00004438   -0.00001269    0.00014956

     Total force =     0.000514     Total SCF correction =     0.000022

     bfgs converged in  18 scf cycles and  17 bfgs steps
     (criteria: energy <  7.3E-07 Ry, force <  3.9E-04 Ry/Bohr)

     End of BFGS Geometry Optimization

     Final energy   =  -21095.1617587573 Ry
Begin final coordinates

ATOMIC_POSITIONS (angstrom)
Fe       1.654912953   1.170200133   0.000000000    0   0   0
Fe       0.000000000   0.000000000   2.026984232    0   0   0
Fe       4.964738858   3.510600399   0.000000000    0   0   0
Fe       3.309825906   2.340400266   2.026984232    0   0   0
Fe       1.675024650   1.171273832   4.030449097
Fe       3.319629610   9.357556096   6.010984014
Fe       4.975764887   3.524225039   4.049877628
Fe       3.368728231   2.330020653   6.030218398
Fe       2.482363858   3.510600399   0.000000000    0   0   0
Fe       4.137287953   1.170200133   0.000000000    0   0   0
Fe       0.827450906   2.340400266   2.026984232    0   0   0
Fe       2.482375000   0.000000000   2.026984232    0   0   0
Fe       2.483131444   3.510201843   4.052287427
Fe       4.161063188   1.187386213   4.042202127
Fe       0.858483289   2.321049236   6.019620767
Fe       2.494328872   0.008692662   6.018347083
Fe       6.619662953   1.170200133   0.000000000    0   0   0
Fe       4.964750000   0.000000000   2.026984232    0   0   0
Fe       9.929488858   3.510600399   0.000000000    0   0   0
Fe       8.274575906   2.340400266   2.026984232    0   0   0
Fe       6.636087439   1.176196794   4.049891168
Fe       4.974474364   0.059450868   6.030208391
Fe       9.918556175   3.495445481   4.048321638
Fe       8.360927713   2.219069144   5.993118322
Fe       7.447113858   3.510600399   0.000000000    0   0   0
Fe       9.102037953   1.170200133   0.000000000    0   0   0
Fe       5.792200906   2.340400266   2.026984232    0   0   0
Fe       7.447125000   0.000000000   2.026984232    0   0   0
Fe       7.446793682   3.510307430   4.004299896
Fe       9.119996576   1.142836930   4.017359603
Fe       5.888138700   2.408526416   6.063677249
Fe      10.770532347   9.329133770   6.016753083
Fe       3.309814764   5.851000664   0.000000000    0   0   0
Fe       1.654901811   4.680800531   2.026984232    0   0   0
Fe       6.619640670   8.191400930   0.000000000    0   0   0
Fe       4.964727717   7.021200797   2.026984232    0   0   0
Fe       3.289468741   5.851638606   4.036007770
Fe      11.525972676   4.682453710   6.026218213
Fe       6.627239850   8.210267879   4.030256629
Fe       4.964152642   7.032012968   6.010094581
Fe       4.137265670   8.191400930   0.000000000    0   0   0
Fe       5.792189764   5.851000664   0.000000000    0   0   0
Fe      12.411852717   7.021200797   2.026984232    0   0   0
Fe       4.137276811   4.680800531   2.026984232    0   0   0
Fe       4.136128298   8.190950270   4.019185466
Fe       5.772482830   5.876971314   4.017195279
Fe      12.389247390   7.005413980   6.033030035
Fe       4.111202468   4.705027209   6.016720343
Fe       8.274564764   5.851000664   0.000000000    0   0   0
Fe       6.619651811   4.680800531   2.026984232    0   0   0
Fe      11.584390670   8.191400930   0.000000000    0   0   0
Fe       9.929477717   7.021200797   2.026984232    0   0   0
Fe       8.256747659   5.845837076   4.048434681
Fe       6.533953743   4.803117062   5.993225407
Fe      11.578062395   8.172274323   4.036050013
Fe       9.911438163   6.965735682   6.025664598
Fe       9.102015670   8.191400930   0.000000000    0   0   0
Fe      10.756939764   5.851000664   0.000000000    0   0   0
Fe       7.447102717   7.021200797   2.026984232    0   0   0
Fe       9.102026811   4.680800531   2.026984232    0   0   0
Fe       9.101682817   8.192506764   4.052174166
Fe      10.732624527   5.833925722   4.040455148
Fe       7.438906529   7.057437129   6.019662312
Fe       9.008411246   4.614543733   6.062017651
N        7.447170565   3.510835495   7.010450393
H        7.448881710   3.511861882   8.044445457
H        4.558831742   8.489042047   6.940833121
End final coordinates



     Writing output data file Fe_NH_H_paper_480c_ESM_pn5.save/

     init_run     :     88.12s CPU     89.80s WALL (       1 calls)
     electrons    : 218222.10s CPU 220108.54s WALL (      18 calls)
     update_pot   :    316.94s CPU    318.32s WALL (      17 calls)
     forces       :    805.76s CPU    813.64s WALL (      18 calls)

     Called by init_run:
     wfcinit      :     60.76s CPU     62.23s WALL (       1 calls)
     potinit      :      9.04s CPU      9.09s WALL (       1 calls)
     hinit0       :     15.05s CPU     15.10s WALL (       1 calls)

     Called by electrons:
     c_bands      : 198432.97s CPU 200047.89s WALL (     711 calls)
     sum_band     :  11348.51s CPU  11531.32s WALL (     711 calls)
     v_of_rho     :   1163.45s CPU   1169.39s WALL (     715 calls)
     newd         :    207.55s CPU    220.20s WALL (     715 calls)
     PAW_pot      :    330.47s CPU    331.72s WALL (     732 calls)
     mix_rho      :   6392.67s CPU   6453.76s WALL (     711 calls)

     Called by c_bands:
     init_us_2    :    328.45s CPU    331.20s WALL (    4374 calls)
     cegterg      : 120206.55s CPU 121329.54s WALL (    2140 calls)

     Called by sum_band:
     sum_band:bec :     21.10s CPU     21.21s WALL (    2184 calls)
     addusdens    :    250.25s CPU    269.45s WALL (     711 calls)

     Called by *egterg:
     h_psi        :  44821.15s CPU  45197.85s WALL (   11072 calls)
     s_psi        :   9260.77s CPU   9274.52s WALL (   11072 calls)
     g_psi        :    114.96s CPU    115.53s WALL (    8929 calls)
     cdiaghg      :  34562.56s CPU  34728.15s WALL (   10976 calls)

     Called by h_psi:
     h_psi:pot    :  44718.39s CPU  44960.92s WALL (   11072 calls)
     h_psi:calbec :   9355.54s CPU   9371.33s WALL (   11072 calls)
     vloc_psi     :  26100.81s CPU  26311.47s WALL (   11072 calls)
     add_vuspsi   :   9261.91s CPU   9278.04s WALL (   11072 calls)

     General routines
     calbec       :  13677.71s CPU  13700.23s WALL (   13472 calls)
     fft          :    720.65s CPU    724.91s WALL (   18154 calls)
     ffts         :   3238.97s CPU   3260.05s WALL (  392453 calls)
     fftw         :  25746.19s CPU  25956.53s WALL ( 7578115 calls)
     interpolate  :     71.81s CPU     72.20s WALL (    1430 calls)
     davcio       :      4.00s CPU    404.90s WALL (   20790 calls)

     Parallel routines
     fft_scatt_xy :   5298.72s CPU   5324.65s WALL ( 7988722 calls)
     fft_scatt_yz :   7951.27s CPU   8059.82s WALL ( 7988722 calls)

     PWSCF        :   2d13h 0m CPU   2d13h32m WALL


   This run was terminated on:   4:40:47  18Jun2022            

=------------------------------------------------------------------------------=
   JOB DONE.
=------------------------------------------------------------------------------=
