
     Program PHONON v.6.7MaX starts on 29Sep2022 at  0:51: 9 

     This program is part of the open-source Quantum ESPRESSO suite
     for quantum simulation of materials; please cite
         "P. Giannozzi et al., J. Phys.:Condens. Matter 21 395502 (2009);
         "P. Giannozzi et al., J. Phys.:Condens. Matter 29 465901 (2017);
          URL http://www.quantum-espresso.org", 
     in publications or presentations arising from this work. More details at
     http://www.quantum-espresso.org/quote

     Parallel version (MPI), running on   120 processors

     MPI processes distributed on     1 nodes
     K-points division:     npool     =       8
     R & G space division:  proc/nbgrp/npool/nimage =      15
     Waiting for input...
     Reading input from standard input

     Reading xml data from directory:

     ./H2_ESM_VA12.save/

     IMPORTANT: XC functional enforced from input :
     Exchange-correlation= PBE
                           (   1   4   3   4   0   0   0)
     Any further DFT definition will be discarded
     Please, verify this is what you really want


     Parallelization info
     --------------------
     sticks:   dense  smooth     PW     G-vecs:    dense   smooth      PW
     Min        3636    1818    468               639190   225950   29545
     Max        3637    1819    470               639197   225953   29547
     Sum       54553   27281   7033              9587919  3389267  443191


     Adding external electric field
        E field amplitude [Ha a.u.]: -2.3644E-02
        Potential amp.       -1.6085 Ry
        Total length         34.0151 bohr


     negative rho (up, down):  6.328E-05 6.328E-05
     Reading collected, re-writing distributed wavefunctions

     Calculation of q =    0.0000000   0.0000000   0.0000000

     phonons (vibrational modes) for H2                                         

     bravais-lattice index     =            0
     lattice parameter (alat)  =      37.7945  a.u.
     unit-cell volume          =   53986.6760 (a.u.)^3
     number of atoms/cell      =            2
     number of atomic types    =            1
     kinetic-energy cut-off    =      60.0000  Ry
     charge density cut-off    =     480.0000  Ry
     convergence threshold     =      1.0E-12
     beta                      =       0.7000
     number of iterations used =            4
     Exchange-correlation= PBE
                           (   1   4   3   4   0   0   0)


     celldm(1)=   37.79452  celldm(2)=    0.00000  celldm(3)=    0.00000
     celldm(4)=    0.00000  celldm(5)=    0.00000  celldm(6)=    0.00000

     crystal axes: (cart. coord. in units of alat)
               a(1) = (  1.0000  0.0000  0.0000 )  
               a(2) = (  0.0000  1.0000  0.0000 )  
               a(3) = (  0.0000  0.0000  1.0000 )  

     reciprocal axes: (cart. coord. in units 2 pi/alat)
               b(1) = (  1.0000  0.0000  0.0000 )  
               b(2) = (  0.0000  1.0000  0.0000 )  
               b(3) = (  0.0000  0.0000  1.0000 )  


     Atoms inside the unit cell: 

     Cartesian axes

     site n.  atom      mass           positions (alat units)
        1     H    1.0078   tau(    1) = (    0.50000    0.50000    0.00000  )
        2     H    1.0078   tau(    2) = (    0.50000    0.50000   -0.03765  )

     Computing dynamical matrix for 
                    q = (   0.0000000   0.0000000   0.0000000 )

      2 Sym.Ops. (with q -> -q+G )


     G cutoff =17367.5767  ( 639197 G-vectors)     FFT grid: (270,270,270)
     G cutoff = 8683.7884  ( 225950 G-vectors)  smooth grid: (192,192,192)

     number of k points=    20  Methfessel-Paxton smearing, width (Ry)=  0.0100
                       cart. coord. in units 2pi/alat
        k(    1) = (   0.0000000   0.0000000   0.0000000), wk =   0.0625000
        k(    2) = (   0.0000000   0.2500000   0.0000000), wk =   0.1250000
        k(    3) = (   0.0000000  -0.5000000   0.0000000), wk =   0.0625000
        k(    4) = (   0.2500000   0.0000000   0.0000000), wk =   0.1250000
        k(    5) = (   0.2500000   0.2500000   0.0000000), wk =   0.1250000
        k(    6) = (   0.2500000  -0.5000000   0.0000000), wk =   0.1250000
        k(    7) = (   0.2500000  -0.2500000   0.0000000), wk =   0.1250000
        k(    8) = (  -0.5000000   0.0000000   0.0000000), wk =   0.0625000
        k(    9) = (  -0.5000000   0.2500000   0.0000000), wk =   0.1250000
        k(   10) = (  -0.5000000  -0.5000000   0.0000000), wk =   0.0625000
        k(   11) = (   0.0000000   0.0000000   0.0000000), wk =   0.0625000
        k(   12) = (   0.0000000   0.2500000   0.0000000), wk =   0.1250000
        k(   13) = (   0.0000000  -0.5000000   0.0000000), wk =   0.0625000
        k(   14) = (   0.2500000   0.0000000   0.0000000), wk =   0.1250000
        k(   15) = (   0.2500000   0.2500000   0.0000000), wk =   0.1250000
        k(   16) = (   0.2500000  -0.5000000   0.0000000), wk =   0.1250000
        k(   17) = (   0.2500000  -0.2500000   0.0000000), wk =   0.1250000
        k(   18) = (  -0.5000000   0.0000000   0.0000000), wk =   0.0625000
        k(   19) = (  -0.5000000   0.2500000   0.0000000), wk =   0.1250000
        k(   20) = (  -0.5000000  -0.5000000   0.0000000), wk =   0.0625000

     PseudoPot. # 1 for H  read from file:
     ../../SSSP/H.pbe-rrkjus_psl.1.0.0.UPF
     MD5 check sum: f52b6d4d1c606e5624b1dc7b2218f220
     Pseudo is Ultrasoft, Zval =  1.0
     Generated using "atomic" code by A. Dal Corso  v.5.1
     Using radial grid of  929 points,  2 beta functions with: 
                l(1) =   0
                l(2) =   0
     Q(r) pseudized with 0 coefficients 


     Mode symmetry, C_1 (1)     point group:


     Atomic displacements:
     There are    6 irreducible representations

     Representation     1      1 modes -  To be done

     Representation     2      1 modes -  To be done

     Representation     3      1 modes -  To be done

     Representation     4      1 modes -  To be done

     Representation     5      1 modes -  To be done

     Representation     6      1 modes -  To be done



     Alpha used in Ewald sum =   2.8000

     -------------------------------------------------
     Parameters for Dispersion (Grimme-D2) Correction:
     -------------------------------------------------
       atom      VdW radius       C_6     

        H          1.892          4.857

     Calculating the D2 contribution to the dynamical matrix.
     D2 energy =       -0.00000169 Ry
     Done.

     PHONON       :     56.19s CPU   1m 2.08s WALL



     Representation #   1 mode #   1

     Self-consistent Calculation

     Pert. #  1: Fermi energy shift (Ry) =     0.0000E+00     0.0000E+00

      iter #   1 total cpu time :    89.0 secs   av.it.:   5.0
      thresh= 1.000E-02 alpha_mix =  0.700 |ddv_scf|^2 =  1.361E-07

     Pert. #  1: Fermi energy shift (Ry) =     0.0000E+00     0.0000E+00

      iter #   2 total cpu time :   111.9 secs   av.it.:   9.0
      thresh= 3.690E-05 alpha_mix =  0.700 |ddv_scf|^2 =  1.227E-08

     Pert. #  1: Fermi energy shift (Ry) =     0.0000E+00     0.0000E+00

      iter #   3 total cpu time :   137.3 secs   av.it.:   8.0
      thresh= 1.108E-05 alpha_mix =  0.700 |ddv_scf|^2 =  2.687E-15

     End of self-consistent calculation

     Convergence has been achieved 


     Representation #   2 mode #   2

     Self-consistent Calculation

     Pert. #  1: Fermi energy shift (Ry) =     0.0000E+00     0.0000E+00

      iter #   1 total cpu time :   166.5 secs   av.it.:   5.0
      thresh= 1.000E-02 alpha_mix =  0.700 |ddv_scf|^2 =  1.361E-07

     Pert. #  1: Fermi energy shift (Ry) =     0.0000E+00     0.0000E+00

      iter #   2 total cpu time :   192.1 secs   av.it.:   9.0
      thresh= 3.690E-05 alpha_mix =  0.700 |ddv_scf|^2 =  1.227E-08

     Pert. #  1: Fermi energy shift (Ry) =     0.0000E+00     0.0000E+00

      iter #   3 total cpu time :   220.2 secs   av.it.:   8.0
      thresh= 1.108E-05 alpha_mix =  0.700 |ddv_scf|^2 =  2.687E-15

     End of self-consistent calculation

     Convergence has been achieved 


     Representation #   3 mode #   3

     Self-consistent Calculation

     Pert. #  1: Fermi energy shift (Ry) =     0.0000E+00     0.0000E+00

      iter #   1 total cpu time :   249.3 secs   av.it.:   7.0
      thresh= 1.000E-02 alpha_mix =  0.700 |ddv_scf|^2 =  7.565E-08

     Pert. #  1: Fermi energy shift (Ry) =     0.0000E+00     0.0000E+00

      iter #   2 total cpu time :   273.8 secs   av.it.:  12.0
      thresh= 2.750E-05 alpha_mix =  0.700 |ddv_scf|^2 =  5.646E-09

     Pert. #  1: Fermi energy shift (Ry) =     0.0000E+00     0.0000E+00

      iter #   3 total cpu time :   300.4 secs   av.it.:  12.0
      thresh= 7.514E-06 alpha_mix =  0.700 |ddv_scf|^2 =  1.843E-11

     Pert. #  1: Fermi energy shift (Ry) =     0.0000E+00     0.0000E+00

      iter #   4 total cpu time :   324.7 secs   av.it.:  14.0
      thresh= 4.292E-07 alpha_mix =  0.700 |ddv_scf|^2 =  1.382E-13

     End of self-consistent calculation

     Convergence has been achieved 


     Representation #   4 mode #   4

     Self-consistent Calculation

     Pert. #  1: Fermi energy shift (Ry) =     0.0000E+00     0.0000E+00

      iter #   1 total cpu time :   353.9 secs   av.it.:   5.0
      thresh= 1.000E-02 alpha_mix =  0.700 |ddv_scf|^2 =  1.162E-07

     Pert. #  1: Fermi energy shift (Ry) =     0.0000E+00     0.0000E+00

      iter #   2 total cpu time :   378.2 secs   av.it.:   9.0
      thresh= 3.408E-05 alpha_mix =  0.700 |ddv_scf|^2 =  1.047E-08

     Pert. #  1: Fermi energy shift (Ry) =     0.0000E+00     0.0000E+00

      iter #   3 total cpu time :   405.1 secs   av.it.:   8.0
      thresh= 1.023E-05 alpha_mix =  0.700 |ddv_scf|^2 =  2.527E-15

     End of self-consistent calculation

     Convergence has been achieved 


     Representation #   5 mode #   5

     Self-consistent Calculation

     Pert. #  1: Fermi energy shift (Ry) =     0.0000E+00     0.0000E+00

      iter #   1 total cpu time :   434.3 secs   av.it.:   5.0
      thresh= 1.000E-02 alpha_mix =  0.700 |ddv_scf|^2 =  1.162E-07

     Pert. #  1: Fermi energy shift (Ry) =     0.0000E+00     0.0000E+00

      iter #   2 total cpu time :   459.4 secs   av.it.:   9.0
      thresh= 3.408E-05 alpha_mix =  0.700 |ddv_scf|^2 =  1.047E-08

     Pert. #  1: Fermi energy shift (Ry) =     0.0000E+00     0.0000E+00

      iter #   3 total cpu time :   484.1 secs   av.it.:   8.0
      thresh= 1.023E-05 alpha_mix =  0.700 |ddv_scf|^2 =  2.527E-15

     End of self-consistent calculation

     Convergence has been achieved 


     Representation #   6 mode #   6

     Self-consistent Calculation

     Pert. #  1: Fermi energy shift (Ry) =     0.0000E+00     0.0000E+00

      iter #   1 total cpu time :   514.3 secs   av.it.:   7.0
      thresh= 1.000E-02 alpha_mix =  0.700 |ddv_scf|^2 =  8.039E-08

     Pert. #  1: Fermi energy shift (Ry) =     0.0000E+00     0.0000E+00

      iter #   2 total cpu time :   542.8 secs   av.it.:  12.0
      thresh= 2.835E-05 alpha_mix =  0.700 |ddv_scf|^2 =  6.484E-09

     Pert. #  1: Fermi energy shift (Ry) =     0.0000E+00     0.0000E+00

      iter #   3 total cpu time :   571.5 secs   av.it.:  11.0
      thresh= 8.053E-06 alpha_mix =  0.700 |ddv_scf|^2 =  7.140E-12

     Pert. #  1: Fermi energy shift (Ry) =     0.0000E+00     0.0000E+00

      iter #   4 total cpu time :   603.6 secs   av.it.:  13.0
      thresh= 2.672E-07 alpha_mix =  0.700 |ddv_scf|^2 =  4.386E-15

     End of self-consistent calculation

     Convergence has been achieved 

     Number of q in the star =    1
     List of q in the star:
          1   0.000000000   0.000000000   0.000000000

     Diagonalizing the dynamical matrix

     q = (    0.000000000   0.000000000   0.000000000 ) 

 **************************************************************************
     freq (    1) =       5.179137 [THz] =     172.757424 [cm-1]
     freq (    2) =       5.179137 [THz] =     172.757424 [cm-1]
     freq (    3) =       5.638279 [THz] =     188.072738 [cm-1]
     freq (    4) =      12.928133 [THz] =     431.236099 [cm-1]
     freq (    5) =      12.928133 [THz] =     431.236099 [cm-1]
     freq (    6) =     128.152862 [THz] =    4274.719329 [cm-1]
 **************************************************************************

     Mode symmetry, C_1 (1)     point group:

     freq (   1-   1) =        172.8  [cm-1]   --> A               I+R
     freq (   2-   2) =        172.8  [cm-1]   --> A               I+R
     freq (   3-   3) =        188.1  [cm-1]   --> A               I+R
     freq (   4-   4) =        431.2  [cm-1]   --> A               I+R
     freq (   5-   5) =        431.2  [cm-1]   --> A               I+R
     freq (   6-   6) =       4274.7  [cm-1]   --> A               I+R

     PHONON       :   8m26.05s CPU  10m14.63s WALL

     INITIALIZATION: 
     phq_setup    :     12.81s CPU     14.37s WALL (       1 calls)
     phq_init     :     26.48s CPU     28.18s WALL (       1 calls)

     phq_init     :     26.48s CPU     28.18s WALL (       1 calls)
     init_vloc    :      0.14s CPU      0.14s WALL (       1 calls)
     init_us_1    :      0.03s CPU      0.04s WALL (       1 calls)
     newd         :      1.03s CPU      1.06s WALL (       1 calls)
     dvanqq       :      6.91s CPU      7.06s WALL (       1 calls)
     drho         :     11.86s CPU     13.31s WALL (       1 calls)

     DYNAMICAL MATRIX:
     dynmat0      :      0.96s CPU      1.03s WALL (       1 calls)
     phqscf       :    449.86s CPU    547.14s WALL (       1 calls)
     dynmatrix    :      0.00s CPU      0.07s WALL (       1 calls)

     phqscf       :    449.86s CPU    547.14s WALL (       1 calls)
     solve_linter :    445.94s CPU    533.27s WALL (       6 calls)
     drhodv       :      3.92s CPU      4.19s WALL (       6 calls)

     dynmat0      :      0.96s CPU      1.03s WALL (       1 calls)
     dynmat_us    :      0.76s CPU      0.79s WALL (       1 calls)
     d2ionq       :      0.20s CPU      0.20s WALL (       1 calls)

     dynmat_us    :      0.76s CPU      0.79s WALL (       1 calls)
     addusdynmat  :      0.00s CPU      0.00s WALL (       1 calls)

     phqscf       :    449.86s CPU    547.14s WALL (       1 calls)
     solve_linter :    445.94s CPU    533.27s WALL (       6 calls)

     solve_linter :    445.94s CPU    533.27s WALL (       6 calls)
     dvqpsi_us    :      8.21s CPU      8.39s WALL (      18 calls)
     ortho        :      0.84s CPU      0.86s WALL (      60 calls)
     cgsolve      :     39.69s CPU     40.25s WALL (      60 calls)
     incdrhoscf   :      4.59s CPU      4.70s WALL (      60 calls)
     addusddens   :     15.17s CPU     17.21s WALL (      26 calls)
     vpsifft      :      3.15s CPU      3.26s WALL (      42 calls)
     dv_of_drho   :    166.46s CPU    171.60s WALL (      20 calls)
     mix_pot      :      4.34s CPU     23.45s WALL (      20 calls)
     ef_shift     :     19.16s CPU     19.80s WALL (      26 calls)
     localdos     :     12.37s CPU     13.21s WALL (       6 calls)
     psymdvscf    :    105.61s CPU    133.41s WALL (      20 calls)
     newdq        :     16.41s CPU     17.81s WALL (      20 calls)
     adddvscf     :      0.08s CPU      0.08s WALL (      42 calls)
     drhodvus     :      2.22s CPU     13.10s WALL (       6 calls)

     dvqpsi_us    :      8.21s CPU      8.39s WALL (      18 calls)
     dvqpsi_us_on :      0.08s CPU      0.09s WALL (      18 calls)

     cgsolve      :     39.69s CPU     40.25s WALL (      60 calls)
     ch_psi       :     38.92s CPU     39.46s WALL (     528 calls)

     ch_psi       :     38.92s CPU     39.46s WALL (     528 calls)
     h_psi        :     37.86s CPU     38.39s WALL (     528 calls)
     last         :      0.87s CPU      0.88s WALL (     528 calls)

     h_psi        :     37.86s CPU     38.39s WALL (     528 calls)
     add_vuspsi   :      0.47s CPU      0.48s WALL (     528 calls)

     incdrhoscf   :      4.59s CPU      4.70s WALL (      60 calls)
     addusdbec    :      0.35s CPU      0.35s WALL (      78 calls)

     drhodvus     :      2.22s CPU     13.10s WALL (       6 calls)

      General routines
     calbec       :      1.94s CPU      2.06s WALL (    1314 calls)
     fft          :    214.36s CPU    218.71s WALL (     739 calls)
     ffts         :     14.86s CPU     15.44s WALL (     184 calls)
     fftw         :     42.13s CPU     42.74s WALL (    1473 calls)
     davcio       :      0.09s CPU     21.41s WALL (     450 calls)
     write_rec    :      0.00s CPU     23.65s WALL (      26 calls)


     PHONON       :   8m26.05s CPU  10m14.63s WALL


   This run was terminated on:   1: 1:24  29Sep2022            

=------------------------------------------------------------------------------=
   JOB DONE.
=------------------------------------------------------------------------------=
