     Message from routine get_command_line:
     unexpected argument # 4     :-in

     Program PWSCF v.6.7MaX starts on 28Sep2022 at 20:48: 3 

     This program is part of the open-source Quantum ESPRESSO suite
     for quantum simulation of materials; please cite
         "P. Giannozzi et al., J. Phys.:Condens. Matter 21 395502 (2009);
         "P. Giannozzi et al., J. Phys.:Condens. Matter 29 465901 (2017);
          URL http://www.quantum-espresso.org", 
     in publications or presentations arising from this work. More details at
     http://www.quantum-espresso.org/quote

     Parallel version (MPI), running on   120 processors

     MPI processes distributed on     1 nodes
     K-points division:     npool     =       8
     R & G space division:  proc/nbgrp/npool/nimage =      15
     Waiting for input...
     Reading input from standard input
Warning: card &CELL ignored
Warning: card / ignored

     Current dimensions of program PWSCF are:
     Max number of different atomic species (ntypx) = 10
     Max number of k-points (npk) =  40000
     Max angular momentum in pseudopotentials (lmaxx) =  3

     IMPORTANT: XC functional enforced from input :
     Exchange-correlation= PBE
                           (   1   4   3   4   0   0   0)
     Any further DFT definition will be discarded
     Please, verify this is what you really want


     -------------------------------------------------
     Parameters for Dispersion (Grimme-D2) Correction:
     -------------------------------------------------
       atom      VdW radius       C_6     

        N          2.640         42.670
        H          1.892          4.857

     Subspace diagonalization in iterative solution of the eigenvalue problem:
     one sub-group per band group will be used
     scalapack distributed-memory algorithm (size of sub-group:  3*  3 procs)


     Parallelization info
     --------------------
     sticks:   dense  smooth     PW     G-vecs:    dense   smooth      PW
     Min        3636    1818    468               639190   225950   29545
     Max        3637    1819    470               639197   225953   29547
     Sum       54553   27281   7033              9587919  3389267  443191



     bravais-lattice index     =            0
     lattice parameter (alat)  =      37.7945  a.u.
     unit-cell volume          =   53986.6760 (a.u.)^3
     number of atoms/cell      =            2
     number of atomic types    =            2
     number of electrons       =         6.00
     number of Kohn-Sham states=            7
     kinetic-energy cutoff     =      60.0000  Ry
     charge density cutoff     =     480.0000  Ry
     scf convergence threshold =      1.0E-08
     mixing beta               =       0.7000
     number of iterations used =           10  plain     mixing
     energy convergence thresh.=      7.3E-07
     force convergence thresh. =      3.9E-04
     Exchange-correlation= PBE
                           (   1   4   3   4   0   0   0)
     nstep                     =           50


     celldm(1)=  37.794522  celldm(2)=   0.000000  celldm(3)=   0.000000
     celldm(4)=   0.000000  celldm(5)=   0.000000  celldm(6)=   0.000000

     crystal axes: (cart. coord. in units of alat)
               a(1) = (   1.000000   0.000000   0.000000 )  
               a(2) = (   0.000000   1.000000   0.000000 )  
               a(3) = (   0.000000   0.000000   1.000000 )  

     reciprocal axes: (cart. coord. in units 2 pi/alat)
               b(1) = (  1.000000  0.000000  0.000000 )  
               b(2) = (  0.000000  1.000000  0.000000 )  
               b(3) = (  0.000000  0.000000  1.000000 )  


     PseudoPot. # 1 for N  read from file:
     ../../SSSP/N.pbe-n-radius_5.UPF
     MD5 check sum: 16739722b17309cd8fe442a2ace49922
     Pseudo is Ultrasoft + core correction, Zval =  5.0
     Generated using "atomic" code by A. Dal Corso  v.5.1
     Using radial grid of 1085 points,  4 beta functions with: 
                l(1) =   0
                l(2) =   0
                l(3) =   1
                l(4) =   1
     Q(r) pseudized with 0 coefficients 


     PseudoPot. # 2 for H  read from file:
     ../../SSSP/H.pbe-rrkjus_psl.1.0.0.UPF
     MD5 check sum: f52b6d4d1c606e5624b1dc7b2218f220
     Pseudo is Ultrasoft, Zval =  1.0
     Generated using "atomic" code by A. Dal Corso  v.5.1
     Using radial grid of  929 points,  2 beta functions with: 
                l(1) =   0
                l(2) =   0
     Q(r) pseudized with 0 coefficients 


     atomic species   valence    mass     pseudopotential
        N              5.00    14.00700     N ( 1.00)
        H              1.00     1.00800     H ( 1.00)

     Starting magnetic structure 
     atomic species   magnetization
        N            0.100
        H            0.100

     No symmetry found



   Cartesian axes

     site n.     atom                  positions (alat units)
         1           N   tau(   1) = (   0.5000000   0.5000000   0.0000000  )
         2           H   tau(   2) = (   0.5001513   0.4999379  -0.0524424  )

     number of k points=    10  Methfessel-Paxton smearing, width (Ry)=  0.0100
                       cart. coord. in units 2pi/alat
        k(    1) = (   0.0000000   0.0000000   0.0000000), wk =   0.0625000
        k(    2) = (   0.0000000   0.2500000   0.0000000), wk =   0.1250000
        k(    3) = (   0.0000000  -0.5000000   0.0000000), wk =   0.0625000
        k(    4) = (   0.2500000   0.0000000   0.0000000), wk =   0.1250000
        k(    5) = (   0.2500000   0.2500000   0.0000000), wk =   0.1250000
        k(    6) = (   0.2500000  -0.5000000   0.0000000), wk =   0.1250000
        k(    7) = (   0.2500000  -0.2500000   0.0000000), wk =   0.1250000
        k(    8) = (  -0.5000000   0.0000000   0.0000000), wk =   0.0625000
        k(    9) = (  -0.5000000   0.2500000   0.0000000), wk =   0.1250000
        k(   10) = (  -0.5000000  -0.5000000   0.0000000), wk =   0.0625000

     Dense  grid:  9587919 G-vectors     FFT dimensions: ( 270, 270, 270)

     Smooth grid:  3389267 G-vectors     FFT dimensions: ( 192, 192, 192)

     Estimated max dynamical RAM per process >     385.51 MB

     Estimated total dynamical RAM >      45.18 GB

     Adding external electric field
        E field amplitude [Ha a.u.]: -7.8812E-03
        Potential amp.       -0.5362 Ry
        Total length         34.0151 bohr

     Generating pointlists ...
     new r_m :   0.0216 (alat units)  0.8176 (a.u.) for type    1
     new r_m :   0.0216 (alat units)  0.8176 (a.u.) for type    2

     Initial potential from superposition of free atoms

     starting charge    5.99998, renormalised to    6.00000

     negative rho (up, down):  9.688E-05 7.927E-05
     Starting wfcs are    5 randomized atomic wfcs +    2 random wfcs

     total cpu time spent up to now is       21.5 secs

     Self-consistent Calculation

     iteration #  1     ecut=    60.00 Ry     beta= 0.70
     CG style diagonalization
     c_bands:  1 eigenvalues not converged
     c_bands:  1 eigenvalues not converged
     c_bands:  1 eigenvalues not converged
     ethr =  1.00E-04,  avg # of iterations = 10.0

     negative rho (up, down):  2.348E-04 9.379E-05

     total cpu time spent up to now is       49.7 secs

     total energy              =     -21.06816056 Ry
     estimated scf accuracy    <       0.14544814 Ry

     total magnetization       =     2.00 Bohr mag/cell
     absolute magnetization    =     2.00 Bohr mag/cell

     iteration #  2     ecut=    60.00 Ry     beta= 0.70
     CG style diagonalization
     ethr =  2.42E-03,  avg # of iterations =  3.2

     negative rho (up, down):  2.337E-04 1.179E-04

     total cpu time spent up to now is       66.7 secs

     total energy              =     -21.09388210 Ry
     estimated scf accuracy    <       0.01483659 Ry

     total magnetization       =     2.00 Bohr mag/cell
     absolute magnetization    =     2.02 Bohr mag/cell

     iteration #  3     ecut=    60.00 Ry     beta= 0.70
     CG style diagonalization
     ethr =  2.47E-04,  avg # of iterations =  3.7

     negative rho (up, down):  2.680E-04 1.243E-04

     total cpu time spent up to now is       84.7 secs

     total energy              =     -21.10422243 Ry
     estimated scf accuracy    <       0.00126438 Ry

     total magnetization       =     2.00 Bohr mag/cell
     absolute magnetization    =     2.03 Bohr mag/cell

     iteration #  4     ecut=    60.00 Ry     beta= 0.70
     CG style diagonalization
     ethr =  2.11E-05,  avg # of iterations =  6.0

     negative rho (up, down):  2.784E-04 1.261E-04

     total cpu time spent up to now is      106.6 secs

     total energy              =     -21.10420341 Ry
     estimated scf accuracy    <       0.00005493 Ry

     total magnetization       =     2.00 Bohr mag/cell
     absolute magnetization    =     2.04 Bohr mag/cell

     iteration #  5     ecut=    60.00 Ry     beta= 0.70
     CG style diagonalization
     ethr =  9.15E-07,  avg # of iterations =  7.5

     negative rho (up, down):  2.819E-04 1.259E-04

     total cpu time spent up to now is      130.8 secs

     total energy              =     -21.10428805 Ry
     estimated scf accuracy    <       0.00000587 Ry

     total magnetization       =     2.00 Bohr mag/cell
     absolute magnetization    =     2.04 Bohr mag/cell

     iteration #  6     ecut=    60.00 Ry     beta= 0.70
     CG style diagonalization
     ethr =  9.79E-08,  avg # of iterations =  5.2

     negative rho (up, down):  2.819E-04 1.257E-04

     total cpu time spent up to now is      151.4 secs

     total energy              =     -21.10429634 Ry
     estimated scf accuracy    <       0.00000061 Ry

     total magnetization       =     2.00 Bohr mag/cell
     absolute magnetization    =     2.05 Bohr mag/cell

     iteration #  7     ecut=    60.00 Ry     beta= 0.70
     CG style diagonalization
     ethr =  1.02E-08,  avg # of iterations =  4.2

     negative rho (up, down):  2.821E-04 1.256E-04

     total cpu time spent up to now is      170.6 secs

     total energy              =     -21.10429721 Ry
     estimated scf accuracy    <       0.00000018 Ry

     total magnetization       =     2.00 Bohr mag/cell
     absolute magnetization    =     2.05 Bohr mag/cell

     iteration #  8     ecut=    60.00 Ry     beta= 0.70
     CG style diagonalization
     ethr =  3.01E-09,  avg # of iterations =  3.8

     negative rho (up, down):  2.822E-04 1.256E-04

     total cpu time spent up to now is      189.3 secs

     total energy              =     -21.10429738 Ry
     estimated scf accuracy    <       0.00000004 Ry

     total magnetization       =     2.00 Bohr mag/cell
     absolute magnetization    =     2.05 Bohr mag/cell

     iteration #  9     ecut=    60.00 Ry     beta= 0.70
     CG style diagonalization
     ethr =  6.52E-10,  avg # of iterations =  3.6

     negative rho (up, down):  2.822E-04 1.256E-04

     total cpu time spent up to now is      207.5 secs

     total energy              =     -21.10429737 Ry
     estimated scf accuracy    <       0.00000009 Ry

     total magnetization       =     2.00 Bohr mag/cell
     absolute magnetization    =     2.05 Bohr mag/cell

     iteration # 10     ecut=    60.00 Ry     beta= 0.70
     CG style diagonalization
     ethr =  6.52E-10,  avg # of iterations =  3.1

     negative rho (up, down):  2.822E-04 1.256E-04

     total cpu time spent up to now is      225.2 secs

     total energy              =     -21.10429740 Ry
     estimated scf accuracy    <       0.00000002 Ry

     total magnetization       =     2.00 Bohr mag/cell
     absolute magnetization    =     2.05 Bohr mag/cell

     iteration # 11     ecut=    60.00 Ry     beta= 0.70
     CG style diagonalization
     ethr =  2.54E-10,  avg # of iterations =  3.3

     negative rho (up, down):  2.822E-04 1.256E-04

     Magnetic moment per site:
     atom:    1    charge:    1.3460    magn:    0.5548    constr:    0.0000
     atom:    2    charge:    0.4576    magn:   -0.0090    constr:    0.0000

     total cpu time spent up to now is      240.8 secs

     End of self-consistent calculation

 ------ SPIN UP ------------


          k = 0.0000 0.0000 0.0000 (423701 PWs)   bands (ev):

   -23.5890 -12.4563 -10.7100 -10.7100  -3.0548  -2.2773  -2.1268

          k = 0.0000 0.2500 0.0000 (423725 PWs)   bands (ev):

   -23.5890 -12.4563 -10.7100 -10.7100  -3.0542  -2.2932  -2.1379

          k = 0.0000-0.5000 0.0000 (423542 PWs)   bands (ev):

   -23.5890 -12.4563 -10.7100 -10.7100  -3.0534  -2.3102  -2.1107

          k = 0.2500 0.0000 0.0000 (423725 PWs)   bands (ev):

   -23.5890 -12.4563 -10.7100 -10.7100  -3.0542  -2.2941  -2.1359

          k = 0.2500 0.2500 0.0000 (423766 PWs)   bands (ev):

   -23.5890 -12.4563 -10.7100 -10.7100  -3.0534  -2.2872  -2.2096

          k = 0.2500-0.5000 0.0000 (423782 PWs)   bands (ev):

   -23.5890 -12.4563 -10.7100 -10.7100  -3.0530  -2.2896  -2.2166

          k = 0.2500-0.2500 0.0000 (423766 PWs)   bands (ev):

   -23.5890 -12.4563 -10.7100 -10.7100  -3.0535  -2.2873  -2.2088

          k =-0.5000 0.0000 0.0000 (423542 PWs)   bands (ev):

   -23.5890 -12.4563 -10.7100 -10.7100  -3.0536  -2.3104  -2.1374

          k =-0.5000 0.2500 0.0000 (423782 PWs)   bands (ev):

   -23.5890 -12.4563 -10.7100 -10.7100  -3.0529  -2.2889  -2.2177

          k =-0.5000-0.5000 0.0000 (423708 PWs)   bands (ev):

   -23.5890 -12.4563 -10.7100 -10.7100  -3.0524  -2.2511  -2.1738

 ------ SPIN DOWN ----------


          k = 0.0000 0.0000 0.0000 (423701 PWs)   bands (ev):

   -20.8870 -11.3748  -6.8575  -6.8575  -2.6239  -2.2233  -1.9974

          k = 0.0000 0.2500 0.0000 (423725 PWs)   bands (ev):

   -20.8870 -11.3748  -6.8575  -6.8575  -2.6191  -2.2427  -2.0731

          k = 0.0000-0.5000 0.0000 (423542 PWs)   bands (ev):

   -20.8870 -11.3748  -6.8575  -6.8575  -2.6142  -2.2640  -2.0832

          k = 0.2500 0.0000 0.0000 (423725 PWs)   bands (ev):

   -20.8870 -11.3748  -6.8575  -6.8575  -2.6192  -2.2423  -2.0757

          k = 0.2500 0.2500 0.0000 (423766 PWs)   bands (ev):

   -20.8870 -11.3748  -6.8575  -6.8575  -2.6148  -2.2361  -2.1349

          k = 0.2500-0.5000 0.0000 (423782 PWs)   bands (ev):

   -20.8870 -11.3748  -6.8575  -6.8575  -2.6104  -2.2408  -2.1444

          k = 0.2500-0.2500 0.0000 (423766 PWs)   bands (ev):

   -20.8870 -11.3748  -6.8575  -6.8575  -2.6150  -2.2380  -2.1335

          k =-0.5000 0.0000 0.0000 (423542 PWs)   bands (ev):

   -20.8870 -11.3748  -6.8575  -6.8575  -2.6142  -2.2649  -2.0834

          k =-0.5000 0.2500 0.0000 (423782 PWs)   bands (ev):

   -20.8870 -11.3748  -6.8575  -6.8575  -2.6105  -2.2418  -2.1439

          k =-0.5000-0.5000 0.0000 (423708 PWs)   bands (ev):

   -20.8870 -11.3748  -6.8575  -6.8575  -2.6067  -2.1817  -2.1693

     the Fermi energy is    -6.9720 ev

!    total energy              =     -21.10429741 Ry
     estimated scf accuracy    <          5.8E-10 Ry
     smearing contrib. (-TS)   =       0.00057979 Ry
     internal energy E=F+TS    =     -21.10487720 Ry

     The total energy is F=E-TS. E is the sum of the following terms:
     one-electron contribution =     -38.20258030 Ry
     hartree contribution      =      19.43521881 Ry
     xc contribution           =      -5.90155352 Ry
     ewald contribution        =       2.34424492 Ry
     Dispersion Correction     =      -0.00000239 Ry
     electric field correction =       1.21979528 Ry

     total magnetization       =     2.00 Bohr mag/cell
     absolute magnetization    =     2.05 Bohr mag/cell

     convergence has been achieved in  11 iterations

     negative rho (up, down):  2.822E-04 1.256E-04

     Forces acting on atoms (cartesian axes, Ry/au):

     atom    1 type  1   force =     0.00001421   -0.00000585   -0.00046172
     atom    2 type  2   force =    -0.00001421    0.00000585    0.00046172

     Total force =     0.000462     Total SCF correction =     0.000001

     BFGS Geometry Optimization
     Energy error            =      0.0E+00
     Gradient error          =      4.6E-04

     number of scf cycles    =   1
     number of bfgs steps    =   0

     energy   new            =     -21.1042974117 Ry

     new trust radius        =       0.0004619784 bohr
     new conv_thr            =       0.0000000100 Ry


ATOMIC_POSITIONS (angstrom)
N            10.0000000000       10.0000000000        0.0000000000    0   0   0
H            10.0030191415        9.9987604230       -1.0486035638



     Writing output data file ./NH_ESM_VA4.save/
     NEW-OLD atomic charge density approx. for the potential

     negative rho (up, down):  1.577E-04 2.042E-04

     Adding external electric field
        E field amplitude [Ha a.u.]: -7.8812E-03
        Potential amp.       -0.5362 Ry
        Total length         34.0151 bohr

     Generating pointlists ...

     total cpu time spent up to now is      262.3 secs

     Self-consistent Calculation

     iteration #  1     ecut=    60.00 Ry     beta= 0.70
     CG style diagonalization
     ethr =  1.00E-06,  avg # of iterations =  2.0

     Threshold (ethr) on eigenvalues was too large:
     Diagonalizing with lowered threshold

     CG style diagonalization
     ethr =  2.13E-10,  avg # of iterations =  3.0

     negative rho (up, down):  2.520E-04 1.415E-04

     total cpu time spent up to now is      287.4 secs

     total energy              =     -21.10429738 Ry
     estimated scf accuracy    <       0.00000003 Ry

     total magnetization       =     2.00 Bohr mag/cell
     absolute magnetization    =     2.05 Bohr mag/cell

     iteration #  2     ecut=    60.00 Ry     beta= 0.70
     CG style diagonalization
     ethr =  4.17E-10,  avg # of iterations =  3.4

     negative rho (up, down):  2.822E-04 1.256E-04

     Magnetic moment per site:
     atom:    1    charge:    1.3460    magn:    0.5548    constr:    0.0000
     atom:    2    charge:    0.4578    magn:   -0.0090    constr:    0.0000

     total cpu time spent up to now is      303.2 secs

     End of self-consistent calculation

 ------ SPIN UP ------------


          k = 0.0000 0.0000 0.0000 (423701 PWs)   bands (ev):

   -23.5902 -12.4565 -10.7098 -10.7097  -3.0545  -2.2781  -2.1276

          k = 0.0000 0.2500 0.0000 (423725 PWs)   bands (ev):

   -23.5902 -12.4565 -10.7098 -10.7097  -3.0539  -2.2940  -2.1386

          k = 0.0000-0.5000 0.0000 (423542 PWs)   bands (ev):

   -23.5902 -12.4565 -10.7098 -10.7097  -3.0531  -2.3110  -2.1120

          k = 0.2500 0.0000 0.0000 (423725 PWs)   bands (ev):

   -23.5902 -12.4565 -10.7098 -10.7097  -3.0539  -2.2948  -2.1367

          k = 0.2500 0.2500 0.0000 (423766 PWs)   bands (ev):

   -23.5902 -12.4565 -10.7098 -10.7097  -3.0532  -2.2880  -2.2103

          k = 0.2500-0.5000 0.0000 (423782 PWs)   bands (ev):

   -23.5902 -12.4565 -10.7098 -10.7097  -3.0527  -2.2904  -2.2174

          k = 0.2500-0.2500 0.0000 (423766 PWs)   bands (ev):

   -23.5902 -12.4565 -10.7098 -10.7097  -3.0532  -2.2882  -2.2096

          k =-0.5000 0.0000 0.0000 (423542 PWs)   bands (ev):

   -23.5902 -12.4565 -10.7098 -10.7097  -3.0533  -2.3111  -2.1382

          k =-0.5000 0.2500 0.0000 (423782 PWs)   bands (ev):

   -23.5902 -12.4565 -10.7098 -10.7097  -3.0526  -2.2897  -2.2185

          k =-0.5000-0.5000 0.0000 (423708 PWs)   bands (ev):

   -23.5902 -12.4565 -10.7098 -10.7097  -3.0520  -2.2519  -2.1746

 ------ SPIN DOWN ----------


          k = 0.0000 0.0000 0.0000 (423701 PWs)   bands (ev):

   -20.8885 -11.3746  -6.8574  -6.8573  -2.6233  -2.2225  -1.9965

          k = 0.0000 0.2500 0.0000 (423725 PWs)   bands (ev):

   -20.8885 -11.3746  -6.8574  -6.8573  -2.6186  -2.2418  -2.0723

          k = 0.0000-0.5000 0.0000 (423542 PWs)   bands (ev):

   -20.8885 -11.3746  -6.8574  -6.8573  -2.6136  -2.2632  -2.0823

          k = 0.2500 0.0000 0.0000 (423725 PWs)   bands (ev):

   -20.8885 -11.3746  -6.8574  -6.8573  -2.6187  -2.2415  -2.0747

          k = 0.2500 0.2500 0.0000 (423766 PWs)   bands (ev):

   -20.8885 -11.3746  -6.8574  -6.8573  -2.6143  -2.2354  -2.1340

          k = 0.2500-0.5000 0.0000 (423782 PWs)   bands (ev):

   -20.8885 -11.3746  -6.8574  -6.8573  -2.6099  -2.2400  -2.1434

          k = 0.2500-0.2500 0.0000 (423766 PWs)   bands (ev):

   -20.8885 -11.3746  -6.8574  -6.8573  -2.6144  -2.2371  -2.1327

          k =-0.5000 0.0000 0.0000 (423542 PWs)   bands (ev):

   -20.8885 -11.3746  -6.8574  -6.8573  -2.6136  -2.2640  -2.0825

          k =-0.5000 0.2500 0.0000 (423782 PWs)   bands (ev):

   -20.8885 -11.3746  -6.8574  -6.8573  -2.6100  -2.2409  -2.1431

          k =-0.5000-0.5000 0.0000 (423708 PWs)   bands (ev):

   -20.8885 -11.3746  -6.8574  -6.8573  -2.6061  -2.1807  -2.1685

     the Fermi energy is    -6.9719 ev

!    total energy              =     -21.10429739 Ry
     estimated scf accuracy    <          3.5E-09 Ry
     smearing contrib. (-TS)   =       0.00057979 Ry
     internal energy E=F+TS    =     -21.10487718 Ry

     The total energy is F=E-TS. E is the sum of the following terms:
     one-electron contribution =     -38.20440253 Ry
     hartree contribution      =      19.43602035 Ry
     xc contribution           =      -5.90171508 Ry
     ewald contribution        =       2.34541991 Ry
     Dispersion Correction     =      -0.00000239 Ry
     electric field correction =       1.21980256 Ry

     total magnetization       =     2.00 Bohr mag/cell
     absolute magnetization    =     2.05 Bohr mag/cell

     convergence has been achieved in   2 iterations

     negative rho (up, down):  2.822E-04 1.256E-04

     Forces acting on atoms (cartesian axes, Ry/au):

     atom    1 type  1   force =     0.00001303   -0.00000536   -0.00012932
     atom    2 type  2   force =    -0.00001303    0.00000536    0.00012932

     Total force =     0.000130     Total SCF correction =     0.000013
     Energy error            =      2.1E-08
     Gradient error          =      1.3E-04

     bfgs converged in   2 scf cycles and   1 bfgs steps
     (criteria: energy <  7.3E-07 Ry, force <  3.9E-04 Ry/Bohr)

     End of BFGS Geometry Optimization

     Final energy   =     -21.1042973909 Ry

     File ./NH_ESM_VA4.bfgs deleted, as requested
Begin final coordinates

ATOMIC_POSITIONS (angstrom)
N            10.0000000000       10.0000000000        0.0000000000    0   0   0
H            10.0030191415        9.9987604230       -1.0486035638
End final coordinates



     Writing output data file ./NH_ESM_VA4.save/

     init_run     :     19.87s CPU     21.06s WALL (       1 calls)
     electrons    :    246.92s CPU    264.08s WALL (       2 calls)
     update_pot   :      7.96s CPU      8.42s WALL (       1 calls)
     forces       :     15.91s CPU     17.06s WALL (       2 calls)

     Called by init_run:
     wfcinit      :      1.43s CPU      1.64s WALL (       1 calls)
     potinit      :      7.58s CPU      8.23s WALL (       1 calls)
     hinit0       :      0.90s CPU      0.99s WALL (       1 calls)

     Called by electrons:
     c_bands      :     99.35s CPU    100.80s WALL (      14 calls)
     sum_band     :     30.11s CPU     31.15s WALL (      14 calls)
     v_of_rho     :     85.29s CPU     92.69s WALL (      15 calls)
     newd         :     10.91s CPU     11.48s WALL (      15 calls)
     mix_rho      :     16.43s CPU     20.03s WALL (      14 calls)

     Called by c_bands:
     init_us_2    :      0.52s CPU      0.54s WALL (      93 calls)
     ccgdiagg     :     75.74s CPU     76.62s WALL (      42 calls)
     wfcrot       :     17.02s CPU     17.22s WALL (      36 calls)

     Called by *cgdiagg:
     h_psi        :     82.48s CPU     83.44s WALL (    1075 calls)
     s_psi        :      3.27s CPU      3.30s WALL (    2114 calls)

     Called by h_psi:
     h_psi:calbec :      2.88s CPU      2.92s WALL (    1075 calls)
     vloc_psi     :     76.04s CPU     76.92s WALL (    1075 calls)
     add_vuspsi   :      3.17s CPU      3.20s WALL (    1075 calls)
     hs_1psi      :     68.39s CPU     69.18s WALL (    1039 calls)
     s_1psi       :      3.80s CPU      3.84s WALL (    1039 calls)

     General routines
     calbec       :      5.36s CPU      5.44s WALL (    2180 calls)
     fft          :     93.41s CPU     95.88s WALL (     404 calls)
     ffts         :      5.18s CPU      5.22s WALL (      58 calls)
     fftw         :     70.42s CPU     71.21s WALL (    2876 calls)
     interpolate  :     10.65s CPU     11.34s WALL (      30 calls)
     davcio       :      0.04s CPU      2.21s WALL (     268 calls)

     Parallel routines
     fft_scatt_xy :     26.15s CPU     26.46s WALL (    3338 calls)
     fft_scatt_yz :     62.02s CPU     62.70s WALL (    3338 calls)

     PWSCF        :   4m53.32s CPU   5m14.57s WALL


   This run was terminated on:  20:53:18  28Sep2022            

=------------------------------------------------------------------------------=
   JOB DONE.
=------------------------------------------------------------------------------=
