
     Program PHONON v.6.7MaX starts on 29Sep2022 at  0:54:57 

     This program is part of the open-source Quantum ESPRESSO suite
     for quantum simulation of materials; please cite
         "P. Giannozzi et al., J. Phys.:Condens. Matter 21 395502 (2009);
         "P. Giannozzi et al., J. Phys.:Condens. Matter 29 465901 (2017);
          URL http://www.quantum-espresso.org", 
     in publications or presentations arising from this work. More details at
     http://www.quantum-espresso.org/quote

     Parallel version (MPI), running on   120 processors

     MPI processes distributed on     1 nodes
     K-points division:     npool     =       8
     R & G space division:  proc/nbgrp/npool/nimage =      15
     Waiting for input...
     Reading input from standard input

     Reading xml data from directory:

     ./NH_ESM_VA4.save/

     IMPORTANT: XC functional enforced from input :
     Exchange-correlation= PBE
                           (   1   4   3   4   0   0   0)
     Any further DFT definition will be discarded
     Please, verify this is what you really want


     Parallelization info
     --------------------
     sticks:   dense  smooth     PW     G-vecs:    dense   smooth      PW
     Min        3636    1818    468               639190   225950   29545
     Max        3637    1819    470               639197   225953   29547
     Sum       54553   27281   7033              9587919  3389267  443191


     Adding external electric field
        E field amplitude [Ha a.u.]: -7.8812E-03
        Potential amp.       -0.5362 Ry
        Total length         34.0151 bohr


     negative rho (up, down):  2.822E-04 1.256E-04
     Reading collected, re-writing distributed wavefunctions

     Calculation of q =    0.0000000   0.0000000   0.0000000

     phonons (vibrational modes) for NH                                         

     bravais-lattice index     =            0
     lattice parameter (alat)  =      37.7945  a.u.
     unit-cell volume          =   53986.6760 (a.u.)^3
     number of atoms/cell      =            2
     number of atomic types    =            2
     kinetic-energy cut-off    =      60.0000  Ry
     charge density cut-off    =     480.0000  Ry
     convergence threshold     =      1.0E-12
     beta                      =       0.7000
     number of iterations used =            4
     Exchange-correlation= PBE
                           (   1   4   3   4   0   0   0)


     celldm(1)=   37.79452  celldm(2)=    0.00000  celldm(3)=    0.00000
     celldm(4)=    0.00000  celldm(5)=    0.00000  celldm(6)=    0.00000

     crystal axes: (cart. coord. in units of alat)
               a(1) = (  1.0000  0.0000  0.0000 )  
               a(2) = (  0.0000  1.0000  0.0000 )  
               a(3) = (  0.0000  0.0000  1.0000 )  

     reciprocal axes: (cart. coord. in units 2 pi/alat)
               b(1) = (  1.0000  0.0000  0.0000 )  
               b(2) = (  0.0000  1.0000  0.0000 )  
               b(3) = (  0.0000  0.0000  1.0000 )  


     Atoms inside the unit cell: 

     Cartesian axes

     site n.  atom      mass           positions (alat units)
        1     N   14.0067   tau(    1) = (    0.50000    0.50000    0.00000  )
        2     H    1.0078   tau(    2) = (    0.50015    0.49994   -0.05243  )

     Computing dynamical matrix for 
                    q = (   0.0000000   0.0000000   0.0000000 )

      2 Sym.Ops. (with q -> -q+G )


     G cutoff =17367.5767  ( 639197 G-vectors)     FFT grid: (270,270,270)
     G cutoff = 8683.7884  ( 225950 G-vectors)  smooth grid: (192,192,192)

     number of k points=    20  Methfessel-Paxton smearing, width (Ry)=  0.0100
                       cart. coord. in units 2pi/alat
        k(    1) = (   0.0000000   0.0000000   0.0000000), wk =   0.0625000
        k(    2) = (   0.0000000   0.2500000   0.0000000), wk =   0.1250000
        k(    3) = (   0.0000000  -0.5000000   0.0000000), wk =   0.0625000
        k(    4) = (   0.2500000   0.0000000   0.0000000), wk =   0.1250000
        k(    5) = (   0.2500000   0.2500000   0.0000000), wk =   0.1250000
        k(    6) = (   0.2500000  -0.5000000   0.0000000), wk =   0.1250000
        k(    7) = (   0.2500000  -0.2500000   0.0000000), wk =   0.1250000
        k(    8) = (  -0.5000000   0.0000000   0.0000000), wk =   0.0625000
        k(    9) = (  -0.5000000   0.2500000   0.0000000), wk =   0.1250000
        k(   10) = (  -0.5000000  -0.5000000   0.0000000), wk =   0.0625000
        k(   11) = (   0.0000000   0.0000000   0.0000000), wk =   0.0625000
        k(   12) = (   0.0000000   0.2500000   0.0000000), wk =   0.1250000
        k(   13) = (   0.0000000  -0.5000000   0.0000000), wk =   0.0625000
        k(   14) = (   0.2500000   0.0000000   0.0000000), wk =   0.1250000
        k(   15) = (   0.2500000   0.2500000   0.0000000), wk =   0.1250000
        k(   16) = (   0.2500000  -0.5000000   0.0000000), wk =   0.1250000
        k(   17) = (   0.2500000  -0.2500000   0.0000000), wk =   0.1250000
        k(   18) = (  -0.5000000   0.0000000   0.0000000), wk =   0.0625000
        k(   19) = (  -0.5000000   0.2500000   0.0000000), wk =   0.1250000
        k(   20) = (  -0.5000000  -0.5000000   0.0000000), wk =   0.0625000

     PseudoPot. # 1 for N  read from file:
     ../../SSSP/N.pbe-n-radius_5.UPF
     MD5 check sum: 16739722b17309cd8fe442a2ace49922
     Pseudo is Ultrasoft + core correction, Zval =  5.0
     Generated using "atomic" code by A. Dal Corso  v.5.1
     Using radial grid of 1085 points,  4 beta functions with: 
                l(1) =   0
                l(2) =   0
                l(3) =   1
                l(4) =   1
     Q(r) pseudized with 0 coefficients 


     PseudoPot. # 2 for H  read from file:
     ../../SSSP/H.pbe-rrkjus_psl.1.0.0.UPF
     MD5 check sum: f52b6d4d1c606e5624b1dc7b2218f220
     Pseudo is Ultrasoft, Zval =  1.0
     Generated using "atomic" code by A. Dal Corso  v.5.1
     Using radial grid of  929 points,  2 beta functions with: 
                l(1) =   0
                l(2) =   0
     Q(r) pseudized with 0 coefficients 


     Mode symmetry, C_1 (1)     point group:


     Atomic displacements:
     There are    6 irreducible representations

     Representation     1      1 modes -  To be done

     Representation     2      1 modes -  To be done

     Representation     3      1 modes -  To be done

     Representation     4      1 modes -  To be done

     Representation     5      1 modes -  To be done

     Representation     6      1 modes -  To be done



     Alpha used in Ewald sum =   2.8000

     -------------------------------------------------
     Parameters for Dispersion (Grimme-D2) Correction:
     -------------------------------------------------
       atom      VdW radius       C_6     

        N          2.640         42.670
        H          1.892          4.857

     Calculating the D2 contribution to the dynamical matrix.
     D2 energy =       -0.00000239 Ry
     Done.


     negative rho (up, down):  2.822E-04 1.256E-04
     PHONON       :   2m29.83s CPU   2m37.35s WALL



     Representation #   1 mode #   1

     Self-consistent Calculation

     Pert. #  1: Fermi energy shift (Ry) =    -1.2233E-06     0.0000E+00

      iter #   1 total cpu time :   199.5 secs   av.it.:   6.0
      thresh= 1.000E-02 alpha_mix =  0.700 |ddv_scf|^2 =  2.365E-09

     Pert. #  1: Fermi energy shift (Ry) =    -4.6403E-04     0.0000E+00

      iter #   2 total cpu time :   242.2 secs   av.it.:  15.0
      thresh= 4.863E-06 alpha_mix =  0.700 |ddv_scf|^2 =  6.504E-10

     Pert. #  1: Fermi energy shift (Ry) =     4.3310E-04     0.0000E+00

      iter #   3 total cpu time :   284.0 secs   av.it.:  15.0
      thresh= 2.550E-06 alpha_mix =  0.700 |ddv_scf|^2 =  2.039E-11

     Pert. #  1: Fermi energy shift (Ry) =    -4.8553E-04     0.0000E+00

      iter #   4 total cpu time :   332.5 secs   av.it.:  16.5
      thresh= 4.515E-07 alpha_mix =  0.700 |ddv_scf|^2 =  9.592E-13

     End of self-consistent calculation

     Convergence has been achieved 


     Representation #   2 mode #   2

     Self-consistent Calculation

     Pert. #  1: Fermi energy shift (Ry) =    -1.3333E-07     0.0000E+00

      iter #   1 total cpu time :   386.5 secs   av.it.:   6.0
      thresh= 1.000E-02 alpha_mix =  0.700 |ddv_scf|^2 =  2.364E-09

     Pert. #  1: Fermi energy shift (Ry) =     2.0374E-04     0.0000E+00

      iter #   2 total cpu time :   427.9 secs   av.it.:  14.6
      thresh= 4.862E-06 alpha_mix =  0.700 |ddv_scf|^2 =  6.665E-10

     Pert. #  1: Fermi energy shift (Ry) =    -1.7287E-04     0.0000E+00

      iter #   3 total cpu time :   471.6 secs   av.it.:  14.5
      thresh= 2.582E-06 alpha_mix =  0.700 |ddv_scf|^2 =  2.697E-11

     Pert. #  1: Fermi energy shift (Ry) =     2.0637E-04     0.0000E+00

      iter #   4 total cpu time :   518.7 secs   av.it.:  15.4
      thresh= 5.193E-07 alpha_mix =  0.700 |ddv_scf|^2 =  1.058E-12

     Pert. #  1: Fermi energy shift (Ry) =    -2.2311E-04     0.0000E+00

      iter #   5 total cpu time :   568.5 secs   av.it.:  17.0
      thresh= 1.028E-07 alpha_mix =  0.700 |ddv_scf|^2 =  8.437E-14

     End of self-consistent calculation

     Convergence has been achieved 


     Representation #   3 mode #   3

     Self-consistent Calculation

     Pert. #  1: Fermi energy shift (Ry) =     1.7383E-01     0.0000E+00

      iter #   1 total cpu time :   623.5 secs   av.it.:   7.6
      thresh= 1.000E-02 alpha_mix =  0.700 |ddv_scf|^2 =  4.506E-09

     Pert. #  1: Fermi energy shift (Ry) =     1.5049E-01     0.0000E+00

      iter #   2 total cpu time :   666.0 secs   av.it.:  16.9
      thresh= 6.713E-06 alpha_mix =  0.700 |ddv_scf|^2 =  6.900E-10

     Pert. #  1: Fermi energy shift (Ry) =    -2.2897E-01     0.0000E+00

      iter #   3 total cpu time :   710.9 secs   av.it.:  17.5
      thresh= 2.627E-06 alpha_mix =  0.700 |ddv_scf|^2 =  4.396E-10

     Pert. #  1: Fermi energy shift (Ry) =    -3.9839E-02     0.0000E+00

      iter #   4 total cpu time :   758.9 secs   av.it.:  17.0
      thresh= 2.097E-06 alpha_mix =  0.700 |ddv_scf|^2 =  1.741E-11

     Pert. #  1: Fermi energy shift (Ry) =     1.8893E-02     0.0000E+00

      iter #   5 total cpu time :   808.6 secs   av.it.:  17.5
      thresh= 4.173E-07 alpha_mix =  0.700 |ddv_scf|^2 =  1.219E-12

     Pert. #  1: Fermi energy shift (Ry) =     7.3797E-03     0.0000E+00

      iter #   6 total cpu time :   856.7 secs   av.it.:  17.5
      thresh= 1.104E-07 alpha_mix =  0.700 |ddv_scf|^2 =  3.716E-13

     End of self-consistent calculation

     Convergence has been achieved 


     Representation #   4 mode #   4

     Self-consistent Calculation

     Pert. #  1: Fermi energy shift (Ry) =     6.5799E-04     0.0000E+00

      iter #   1 total cpu time :   907.3 secs   av.it.:   4.5
      thresh= 1.000E-02 alpha_mix =  0.700 |ddv_scf|^2 =  1.013E-10

     Pert. #  1: Fermi energy shift (Ry) =    -3.3017E-04     0.0000E+00

      iter #   2 total cpu time :   951.3 secs   av.it.:  15.6
      thresh= 1.007E-06 alpha_mix =  0.700 |ddv_scf|^2 =  1.265E-11

     Pert. #  1: Fermi energy shift (Ry) =     6.0947E-04     0.0000E+00

      iter #   3 total cpu time :   993.6 secs   av.it.:  16.5
      thresh= 3.556E-07 alpha_mix =  0.700 |ddv_scf|^2 =  3.409E-13

     End of self-consistent calculation

     Convergence has been achieved 


     Representation #   5 mode #   5

     Self-consistent Calculation

     Pert. #  1: Fermi energy shift (Ry) =     2.0558E-06     0.0000E+00

      iter #   1 total cpu time :  1043.5 secs   av.it.:   4.0
      thresh= 1.000E-02 alpha_mix =  0.700 |ddv_scf|^2 =  1.038E-10

     Pert. #  1: Fermi energy shift (Ry) =     1.4129E-04     0.0000E+00

      iter #   2 total cpu time :  1085.5 secs   av.it.:  14.6
      thresh= 1.019E-06 alpha_mix =  0.700 |ddv_scf|^2 =  1.397E-11

     Pert. #  1: Fermi energy shift (Ry) =    -2.7111E-04     0.0000E+00

      iter #   3 total cpu time :  1127.5 secs   av.it.:  15.4
      thresh= 3.738E-07 alpha_mix =  0.700 |ddv_scf|^2 =  3.658E-13

     End of self-consistent calculation

     Convergence has been achieved 


     Representation #   6 mode #   6

     Self-consistent Calculation

     Pert. #  1: Fermi energy shift (Ry) =    -3.0025E-01     0.0000E+00

      iter #   1 total cpu time :  1179.6 secs   av.it.:   7.0
      thresh= 1.000E-02 alpha_mix =  0.700 |ddv_scf|^2 =  4.782E-10

     Pert. #  1: Fermi energy shift (Ry) =     1.4791E-01     0.0000E+00

      iter #   2 total cpu time :  1224.4 secs   av.it.:  18.0
      thresh= 2.187E-06 alpha_mix =  0.700 |ddv_scf|^2 =  2.922E-10

     Pert. #  1: Fermi energy shift (Ry) =    -1.1809E-02     0.0000E+00

      iter #   3 total cpu time :  1268.4 secs   av.it.:  17.0
      thresh= 1.709E-06 alpha_mix =  0.700 |ddv_scf|^2 =  9.662E-12

     Pert. #  1: Fermi energy shift (Ry) =    -1.6134E-02     0.0000E+00

      iter #   4 total cpu time :  1312.5 secs   av.it.:  15.1
      thresh= 3.108E-07 alpha_mix =  0.700 |ddv_scf|^2 =  7.022E-13

     End of self-consistent calculation

     Convergence has been achieved 

     Number of q in the star =    1
     List of q in the star:
          1   0.000000000   0.000000000   0.000000000

     Diagonalizing the dynamical matrix

     q = (    0.000000000   0.000000000   0.000000000 ) 

 **************************************************************************
     freq (    1) =     -16.302619 [THz] =    -543.796828 [cm-1]
     freq (    2) =     -13.895681 [THz] =    -463.510029 [cm-1]
     freq (    3) =       3.797009 [THz] =     126.654591 [cm-1]
     freq (    4) =      15.915010 [THz] =     530.867586 [cm-1]
     freq (    5) =      17.025165 [THz] =     567.898374 [cm-1]
     freq (    6) =      96.358749 [THz] =    3214.181897 [cm-1]
 **************************************************************************

     Mode symmetry, C_1 (1)     point group:

     freq (   1-   1) =       -543.8  [cm-1]   --> A               I+R
     freq (   2-   2) =       -463.5  [cm-1]   --> A               I+R
     freq (   3-   3) =        126.7  [cm-1]   --> A               I+R
     freq (   4-   4) =        530.9  [cm-1]   --> A               I+R
     freq (   5-   5) =        567.9  [cm-1]   --> A               I+R
     freq (   6-   6) =       3214.2  [cm-1]   --> A               I+R

     PHONON       :  19m34.49s CPU  22m12.74s WALL

     INITIALIZATION: 
     phq_setup    :     13.07s CPU     14.56s WALL (       1 calls)
     phq_init     :    118.41s CPU    121.66s WALL (       1 calls)

     phq_init     :    118.41s CPU    121.66s WALL (       1 calls)
     set_drhoc    :     24.44s CPU     24.55s WALL (       3 calls)
     init_vloc    :      0.32s CPU      0.33s WALL (       1 calls)
     init_us_1    :      0.03s CPU      0.03s WALL (       1 calls)
     newd         :      1.19s CPU      1.24s WALL (       1 calls)
     dvanqq       :     43.11s CPU     43.67s WALL (       1 calls)
     drho         :     28.75s CPU     30.60s WALL (       1 calls)

     DYNAMICAL MATRIX:
     dynmat0      :     23.65s CPU     24.38s WALL (       1 calls)
     phqscf       :   1024.63s CPU   1169.89s WALL (       1 calls)
     dynmatrix    :      0.04s CPU      0.10s WALL (       1 calls)

     phqscf       :   1024.63s CPU   1169.89s WALL (       1 calls)
     solve_linter :   1020.02s CPU   1150.81s WALL (       6 calls)
     drhodv       :      4.61s CPU      4.76s WALL (       6 calls)

     dynmat0      :     23.65s CPU     24.38s WALL (       1 calls)
     dynmat_us    :      1.24s CPU      1.31s WALL (       1 calls)
     d2ionq       :      0.21s CPU      0.22s WALL (       1 calls)
     dynmatcc     :     22.10s CPU     22.75s WALL (       1 calls)

     dynmat_us    :      1.24s CPU      1.31s WALL (       1 calls)
     addusdynmat  :      0.00s CPU      0.00s WALL (       1 calls)

     phqscf       :   1024.63s CPU   1169.89s WALL (       1 calls)
     solve_linter :   1020.02s CPU   1150.81s WALL (       6 calls)

     solve_linter :   1020.02s CPU   1150.81s WALL (       6 calls)
     dvqpsi_us    :     10.81s CPU     11.12s WALL (      18 calls)
     ortho        :      2.19s CPU      2.21s WALL (      75 calls)
     cgsolve      :    337.81s CPU    341.77s WALL (      75 calls)
     incdrhoscf   :     22.10s CPU     22.46s WALL (      75 calls)
     addusddens   :     58.96s CPU     62.79s WALL (      31 calls)
     vpsifft      :     16.51s CPU     16.76s WALL (      57 calls)
     dv_of_drho   :    167.25s CPU    172.93s WALL (      25 calls)
     mix_pot      :     10.51s CPU     29.09s WALL (      25 calls)
     ef_shift     :     25.17s CPU     25.74s WALL (      31 calls)
     localdos     :     30.25s CPU     31.59s WALL (       6 calls)
     psymdvscf    :    125.07s CPU    177.13s WALL (      25 calls)
     newdq        :     74.24s CPU     77.99s WALL (      25 calls)
     adddvscf     :      0.39s CPU      0.40s WALL (      57 calls)
     drhodvus     :      1.89s CPU     14.31s WALL (       6 calls)

     dvqpsi_us    :     10.81s CPU     11.12s WALL (      18 calls)
     dvqpsi_us_on :      0.17s CPU      0.21s WALL (      18 calls)

     cgsolve      :    337.81s CPU    341.77s WALL (      75 calls)
     ch_psi       :    326.44s CPU    330.28s WALL (    1254 calls)

     ch_psi       :    326.44s CPU    330.28s WALL (    1254 calls)
     h_psi        :    298.93s CPU    302.47s WALL (    1254 calls)
     last         :     19.83s CPU     20.05s WALL (    1254 calls)

     h_psi        :    298.93s CPU    302.47s WALL (    1254 calls)
     add_vuspsi   :      4.42s CPU      4.48s WALL (    1254 calls)

     incdrhoscf   :     22.10s CPU     22.46s WALL (      75 calls)
     addusdbec    :      0.67s CPU      0.68s WALL (      93 calls)

     drhodvus     :      1.89s CPU     14.31s WALL (       6 calls)

      General routines
     calbec       :     11.84s CPU     12.05s WALL (    2796 calls)
     fft          :    293.91s CPU    299.30s WALL (    1083 calls)
     ffts         :     18.67s CPU     19.16s WALL (     258 calls)
     fftw         :    282.20s CPU    285.53s WALL (    9931 calls)
     davcio       :      0.11s CPU     31.18s WALL (     563 calls)
     write_rec    :      0.00s CPU     31.21s WALL (      31 calls)


     PHONON       :  19m34.49s CPU  22m12.74s WALL


   This run was terminated on:   1:17:10  29Sep2022            

=------------------------------------------------------------------------------=
   JOB DONE.
=------------------------------------------------------------------------------=
