
     Program PWSCF v.6.4.1 starts on 12Jun2022 at 21: 2:54 

     This program is part of the open-source Quantum ESPRESSO suite
     for quantum simulation of materials; please cite
         "P. Giannozzi et al., J. Phys.:Condens. Matter 21 395502 (2009);
         "P. Giannozzi et al., J. Phys.:Condens. Matter 29 465901 (2017);
          URL http://www.quantum-espresso.org", 
     in publications or presentations arising from this work. More details at
     http://www.quantum-espresso.org/quote

     Parallel version (MPI), running on   160 processors

     MPI processes distributed on     8 nodes
     K-points division:     npool     =       8
     R & G space division:  proc/nbgrp/npool/nimage =      20
     Waiting for input...
     Reading input from standard input
Warning: card &CELL ignored
Warning: card / ignored

     Current dimensions of program PWSCF are:
     Max number of different atomic species (ntypx) = 10
     Max number of k-points (npk) =  40000
     Max angular momentum in pseudopotentials (lmaxx) =  3

     IMPORTANT: XC functional enforced from input :
     Exchange-correlation      = PBE ( 1  4  3  4 0 0)
     Any further DFT definition will be discarded
     Please, verify this is what you really want

               file Fe.pbe-spn-kjpaw_psl.0.2.1.UPF: wavefunction(s)  3D renormalized

     -------------------------------------------------
     Parameters for Dispersion (Grimme-D2) Correction:
     -------------------------------------------------
       atom      VdW radius       C_6     

        Fe         2.952        374.666
        N          2.640         42.670
        H          1.892          4.857

     Subspace diagonalization in iterative solution of the eigenvalue problem:
     one sub-group per band group will be used
     scalapack distributed-memory algorithm (size of sub-group:  3*  3 procs)


     Parallelization info
     --------------------
     sticks:   dense  smooth     PW     G-vecs:    dense   smooth      PW
     Min         634     317     83               145278    51361    6989
     Max         635     318     84               145287    51370    7000
     Sum       12685    6351   1677              2905599  1027285  139897



     bravais-lattice index     =            0
     lattice parameter (alat)  =      18.7640  a.u.
     unit-cell volume          =   16360.3163 (a.u.)^3
     number of atoms/cell      =           68
     number of atomic types    =            3
     number of electrons       =      1032.00
     number of Kohn-Sham states=          619
     kinetic-energy cutoff     =      60.0000  Ry
     charge density cutoff     =     480.0000  Ry
     convergence threshold     =      1.0E-08
     mixing beta               =       0.2000
     number of iterations used =           10  local-TF  mixing
     Exchange-correlation      = PBE ( 1  4  3  4 0 0)
     nstep                     =           50


     Effective Screening Medium Method
     =================================
     Boundary Conditions: Metal-Slab-Metal
     field strength                   =    -0.01 Ry/a.u.
     grid points for fit at edges     =        4 


     celldm(1)=  18.764036  celldm(2)=   0.000000  celldm(3)=   0.000000
     celldm(4)=   0.000000  celldm(5)=   0.000000  celldm(6)=   0.000000

     crystal axes: (cart. coord. in units of alat)
               a(1) = (   1.000000   0.000000   0.000000 )  
               a(2) = (   0.333330   0.942807   0.000000 )  
               a(3) = (   0.000000   0.000000   2.626577 )  

     reciprocal axes: (cart. coord. in units 2 pi/alat)
               b(1) = (  1.000000 -0.353551  0.000000 )  
               b(2) = (  0.000000  1.060663  0.000000 )  
               b(3) = (  0.000000  0.000000  0.380724 )  


     PseudoPot. # 1 for Fe read from file:
     ../../SSSP/Fe.pbe-spn-kjpaw_psl.0.2.1.UPF
     MD5 check sum: e86618425769142926afa95317d90200
     Pseudo is Projector augmented-wave + core cor, Zval = 16.0
     Generated using "atomic" code by A. Dal Corso v.5.0.99 svn rev. 10869
     Shape of augmentation charge: PSQ
     Using radial grid of 1191 points,  6 beta functions with: 
                l(1) =   0
                l(2) =   0
                l(3) =   1
                l(4) =   1
                l(5) =   2
                l(6) =   2
     Q(r) pseudized with 0 coefficients 


     PseudoPot. # 2 for N  read from file:
     ../../SSSP/N.pbe-n-radius_5.UPF
     MD5 check sum: 16739722b17309cd8fe442a2ace49922
     Pseudo is Ultrasoft + core correction, Zval =  5.0
     Generated using "atomic" code by A. Dal Corso v.5.1
     Using radial grid of 1085 points,  4 beta functions with: 
                l(1) =   0
                l(2) =   0
                l(3) =   1
                l(4) =   1
     Q(r) pseudized with 0 coefficients 


     PseudoPot. # 3 for H  read from file:
     ../../SSSP/H.pbe-rrkjus_psl.1.0.0.UPF
     MD5 check sum: f52b6d4d1c606e5624b1dc7b2218f220
     Pseudo is Ultrasoft, Zval =  1.0
     Generated using "atomic" code by A. Dal Corso v.5.1
     Using radial grid of  929 points,  2 beta functions with: 
                l(1) =   0
                l(2) =   0
     Q(r) pseudized with 0 coefficients 


     atomic species   valence    mass     pseudopotential
        Fe            16.00    55.84500     Fe( 1.00)
        N              5.00    14.00700     N ( 1.00)
        H              1.00     1.00800     H ( 1.00)

     Starting magnetic structure 
     atomic species   magnetization
        Fe           0.100
        N            0.100
        H            0.100

     No symmetry found



   Cartesian axes

     site n.     atom                  positions (alat units)
         1           Fe  tau(   1) = (   0.1666663   0.1178509   0.0000000  )
         2           Fe  tau(   2) = (   0.0000000   0.0000000   0.2041376  )
         3           Fe  tau(   3) = (   0.4999989   0.3535526   0.0000000  )
         4           Fe  tau(   4) = (   0.3333326   0.2357017   0.2041376  )
         5           Fe  tau(   5) = (   0.1662338   0.1176619   0.4050998  )
         6           Fe  tau(   6) = (   0.3331264   0.9440494   0.6055998  )
         7           Fe  tau(   7) = (   0.4997176   0.3541907   0.4040971  )
         8           Fe  tau(   8) = (   0.3331932   0.2347853   0.6042847  )
         9           Fe  tau(   9) = (   0.2499989   0.3535526   0.0000000  )
        10           Fe  tau(  10) = (   0.4166663   0.1178509   0.0000000  )
        11           Fe  tau(  11) = (   0.0833326   0.2357017   0.2041376  )
        12           Fe  tau(  12) = (   0.2500000   0.0000000   0.2041376  )
        13           Fe  tau(  13) = (   0.2500298   0.3534599   0.4056094  )
        14           Fe  tau(  14) = (   0.4160610   0.1174334   0.4047411  )
        15           Fe  tau(  15) = (   0.0824598   0.2362012   0.6033153  )
        16           Fe  tau(  16) = (   0.2499546  -0.0000122   0.6047152  )
        17           Fe  tau(  17) = (   0.6666663   0.1178509   0.0000000  )
        18           Fe  tau(  18) = (   0.5000000   0.0000000   0.2041376  )
        19           Fe  tau(  19) = (   0.9999989   0.3535526   0.0000000  )
        20           Fe  tau(  20) = (   0.8333326   0.2357017   0.2041376  )
        21           Fe  tau(  21) = (   0.6671698   0.1173708   0.4040990  )
        22           Fe  tau(  22) = (   0.4990826   0.0001783   0.6042334  )
        23           Fe  tau(  23) = (   1.0002535   0.3528286   0.4039350  )
        24           Fe  tau(  24) = (   0.8343058   0.2343203   0.6131606  )
        25           Fe  tau(  25) = (   0.7499989   0.3535526   0.0000000  )
        26           Fe  tau(  26) = (   0.9166663   0.1178509   0.0000000  )
        27           Fe  tau(  27) = (   0.5833326   0.2357017   0.2041376  )
        28           Fe  tau(  28) = (   0.7500000   0.0000000   0.2041376  )
        29           Fe  tau(  29) = (   0.7499777   0.3535178   0.4073649  )
        30           Fe  tau(  30) = (   0.9158921   0.1187480   0.4083186  )
        31           Fe  tau(  31) = (   0.5789168   0.2325855   0.5975038  )
        32           Fe  tau(  32) = (   1.0837573   0.9440761   0.6033463  )
        33           Fe  tau(  33) = (   0.3333315   0.5892543   0.0000000  )
        34           Fe  tau(  34) = (   0.1666652   0.4714034   0.2041376  )
        35           Fe  tau(  35) = (   0.6666640   0.8249560   0.0000000  )
        36           Fe  tau(  36) = (   0.4999978   0.7071052   0.2041376  )
        37           Fe  tau(  37) = (   0.3338519   0.5895177   0.4055248  )
        38           Fe  tau(  38) = (   1.1669243   0.4714708   0.6037214  )
        39           Fe  tau(  39) = (   0.6663270   0.8246388   0.4051057  )
        40           Fe  tau(  40) = (   0.5010608   0.7065394   0.6055939  )
        41           Fe  tau(  41) = (   0.4166640   0.8249560   0.0000000  )
        42           Fe  tau(  42) = (   0.5833315   0.5892543   0.0000000  )
        43           Fe  tau(  43) = (   0.2499978   0.7071052   0.2041376  )
        44           Fe  tau(  44) = (   0.4166652   0.4714034   0.2041376  )
        45           Fe  tau(  45) = (   0.4165048   0.8248803   0.4053621  )
        46           Fe  tau(  46) = (   0.5839100   0.5882505   0.4083180  )
        47           Fe  tau(  47) = (   1.2488733   0.7063050   0.6056667  )
        48           Fe  tau(  48) = (   0.4179970   0.4713885   0.6033736  )
        49           Fe  tau(  49) = (   0.8333315   0.5892543   0.0000000  )
        50           Fe  tau(  50) = (   0.6666652   0.4714034   0.2041376  )
        51           Fe  tau(  51) = (   1.1666640   0.8249560   0.0000000  )
        52           Fe  tau(  52) = (   0.9999978   0.7071052   0.2041376  )
        53           Fe  tau(  53) = (   0.8327470   0.5897300   0.4039319  )
        54           Fe  tau(  54) = (   0.6657260   0.4727122   0.6131325  )
        55           Fe  tau(  55) = (   1.1670807   0.8253806   0.4055355  )
        56           Fe  tau(  56) = (   1.0001521   0.7073150   0.6037730  )
        57           Fe  tau(  57) = (   0.9166640   0.8249560   0.0000000  )
        58           Fe  tau(  58) = (   1.0833315   0.5892543   0.0000000  )
        59           Fe  tau(  59) = (   0.7499978   0.7071052   0.2041376  )
        60           Fe  tau(  60) = (   0.9166652   0.4714034   0.2041376  )
        61           Fe  tau(  61) = (   0.9165976   0.8250245   0.4056139  )
        62           Fe  tau(  62) = (   1.0839122   0.5896712   0.4045043  )
        63           Fe  tau(  63) = (   0.7501686   0.7061123   0.6033263  )
        64           Fe  tau(  64) = (   0.9212191   0.4746106   0.5974738  )
        65           N   tau(  65) = (   0.7500490   0.3535650   0.7527489  )
        66           H   tau(  66) = (   0.8167055   0.4008263   0.8165508  )
        67           H   tau(  67) = (   0.6834440   0.3063984   0.8166722  )
        68           H   tau(  68) = (   0.4576392   0.8539617   0.6989079  )

     number of k points=    10  Methfessel-Paxton smearing, width (Ry)=  0.0100
                       cart. coord. in units 2pi/alat
        k(    1) = (   0.0000000   0.0000000   0.0000000), wk =   0.0625000
        k(    2) = (   0.0000000   0.2651656   0.0000000), wk =   0.1250000
        k(    3) = (   0.0000000  -0.5303313   0.0000000), wk =   0.0625000
        k(    4) = (   0.2500000  -0.0883878   0.0000000), wk =   0.1250000
        k(    5) = (   0.2500000   0.1767779   0.0000000), wk =   0.1250000
        k(    6) = (   0.2500000  -0.6187190   0.0000000), wk =   0.1250000
        k(    7) = (   0.2500000  -0.3535534   0.0000000), wk =   0.1250000
        k(    8) = (  -0.5000000   0.1767755   0.0000000), wk =   0.0625000
        k(    9) = (  -0.5000000   0.4419412   0.0000000), wk =   0.1250000
        k(   10) = (  -0.5000000  -0.3535558   0.0000000), wk =   0.0625000

     Dense  grid:  2905599 G-vectors     FFT dimensions: ( 135, 135, 360)

     Smooth grid:  1027285 G-vectors     FFT dimensions: (  96,  96, 243)

     Estimated max dynamical RAM per process >       1.01 GB

     Estimated total dynamical RAM >     162.10 GB
     Generating pointlists ...
     new r_m :   0.0742 (alat units)  1.3916 (a.u.) for type    1
     new r_m :   0.0428 (alat units)  0.8024 (a.u.) for type    2
     new r_m :   0.0428 (alat units)  0.8024 (a.u.) for type    3

     Check: negative core charge=   -0.000039

     Initial potential from superposition of free atoms

     starting charge 1031.97191, renormalised to 1032.00000

     negative rho (up, down):  2.434E-02 2.563E-03
     Starting wfcs are  839 randomized atomic wfcs
     Checking if some PAW data can be deallocated... 

     total cpu time spent up to now is       89.6 secs

     Self-consistent Calculation

     iteration #  1     ecut=    60.00 Ry     beta= 0.20
     Davidson diagonalization with overlap
     c_bands:  1 eigenvalues not converged
     ethr =  1.00E-04,  avg # of iterations = 18.6

     negative rho (up, down):  1.286E-02 3.442E-03

     total cpu time spent up to now is     1088.7 secs

     total energy              =  -21091.35759526 Ry
     Harris-Foulkes estimate   =  -21097.95835514 Ry
     estimated scf accuracy    <     322.84003493 Ry

     total magnetization       =   107.79 Bohr mag/cell
     absolute magnetization    =   108.65 Bohr mag/cell

     iteration #  2     ecut=    60.00 Ry     beta= 0.20
     Davidson diagonalization with overlap
     ethr =  1.00E-02,  avg # of iterations =  1.0

     negative rho (up, down):  9.647E-03 4.015E-02

     total cpu time spent up to now is     1226.8 secs

     total energy              =  -21094.92277042 Ry
     Harris-Foulkes estimate   =  -21097.35256885 Ry
     estimated scf accuracy    <     127.19489687 Ry

     total magnetization       =   109.93 Bohr mag/cell
     absolute magnetization    =   110.83 Bohr mag/cell

     iteration #  3     ecut=    60.00 Ry     beta= 0.20
     Davidson diagonalization with overlap
     ethr =  1.00E-02,  avg # of iterations =  1.0

     negative rho (up, down):  4.879E-03 1.829E-02

     total cpu time spent up to now is     1360.8 secs

     total energy              =  -21096.10461459 Ry
     Harris-Foulkes estimate   =  -21096.20901987 Ry
     estimated scf accuracy    <       9.63029763 Ry

     total magnetization       =   133.40 Bohr mag/cell
     absolute magnetization    =   133.84 Bohr mag/cell

     iteration #  4     ecut=    60.00 Ry     beta= 0.20
     Davidson diagonalization with overlap
     ethr =  9.33E-04,  avg # of iterations =  1.0

     negative rho (up, down):  3.137E-03 2.289E-02

     total cpu time spent up to now is     1496.9 secs

     total energy              =  -21096.14181603 Ry
     Harris-Foulkes estimate   =  -21096.19590102 Ry
     estimated scf accuracy    <      14.57480051 Ry

     total magnetization       =   140.43 Bohr mag/cell
     absolute magnetization    =   140.94 Bohr mag/cell

     iteration #  5     ecut=    60.00 Ry     beta= 0.20
     Davidson diagonalization with overlap
     ethr =  9.33E-04,  avg # of iterations =  1.0

     negative rho (up, down):  1.715E-02 2.016E-01

     total cpu time spent up to now is     1624.2 secs

     total energy              =  -21094.32475194 Ry
     Harris-Foulkes estimate   =  -21096.17495779 Ry
     estimated scf accuracy    <      14.95980551 Ry

     total magnetization       =   143.61 Bohr mag/cell
     absolute magnetization    =   144.22 Bohr mag/cell

     iteration #  6     ecut=    60.00 Ry     beta= 0.20
     Davidson diagonalization with overlap
     ethr =  9.33E-04,  avg # of iterations =  7.3

     negative rho (up, down):  3.147E-03 1.082E-01

     total cpu time spent up to now is     1848.6 secs

     total energy              =  -21095.55695612 Ry
     Harris-Foulkes estimate   =  -21095.38671334 Ry
     estimated scf accuracy    <       3.93514447 Ry

     total magnetization       =   157.02 Bohr mag/cell
     absolute magnetization    =   160.24 Bohr mag/cell

     iteration #  7     ecut=    60.00 Ry     beta= 0.20
     Davidson diagonalization with overlap
     ethr =  3.81E-04,  avg # of iterations =  5.7

     negative rho (up, down):  1.001E-03 5.101E-02

     total cpu time spent up to now is     2050.5 secs

     total energy              =  -21095.80815740 Ry
     Harris-Foulkes estimate   =  -21095.84283026 Ry
     estimated scf accuracy    <       0.97507853 Ry

     total magnetization       =   150.68 Bohr mag/cell
     absolute magnetization    =   153.91 Bohr mag/cell

     iteration #  8     ecut=    60.00 Ry     beta= 0.20
     Davidson diagonalization with overlap
     c_bands:  2 eigenvalues not converged
     ethr =  9.45E-05,  avg # of iterations = 14.5

     negative rho (up, down):  2.581E-04 2.008E-02

     total cpu time spent up to now is     3012.1 secs

     total energy              =  -21096.17283771 Ry
     Harris-Foulkes estimate   =  -21096.27819053 Ry
     estimated scf accuracy    <       1.39410694 Ry

     total magnetization       =   150.84 Bohr mag/cell
     absolute magnetization    =   156.06 Bohr mag/cell

     iteration #  9     ecut=    60.00 Ry     beta= 0.20
     Davidson diagonalization with overlap
     ethr =  9.45E-05,  avg # of iterations =  1.6

     negative rho (up, down):  1.053E-04 2.256E-02

     total cpu time spent up to now is     3161.9 secs

     total energy              =  -21096.16259359 Ry
     Harris-Foulkes estimate   =  -21096.20812010 Ry
     estimated scf accuracy    <       0.43630976 Ry

     total magnetization       =   150.85 Bohr mag/cell
     absolute magnetization    =   155.63 Bohr mag/cell

     iteration # 10     ecut=    60.00 Ry     beta= 0.20
     Davidson diagonalization with overlap
     ethr =  4.23E-05,  avg # of iterations =  6.8

     negative rho (up, down):  1.919E-04 2.047E-02

     total cpu time spent up to now is     3391.2 secs

     total energy              =  -21096.19332311 Ry
     Harris-Foulkes estimate   =  -21096.19350291 Ry
     estimated scf accuracy    <       0.42238885 Ry

     total magnetization       =   152.91 Bohr mag/cell
     absolute magnetization    =   157.45 Bohr mag/cell

     iteration # 11     ecut=    60.00 Ry     beta= 0.20
     Davidson diagonalization with overlap
     ethr =  4.09E-05,  avg # of iterations =  1.2

     negative rho (up, down):  1.925E-04 2.583E-02

     total cpu time spent up to now is     3535.8 secs

     total energy              =  -21096.19917674 Ry
     Harris-Foulkes estimate   =  -21096.21710718 Ry
     estimated scf accuracy    <       0.24004948 Ry

     total magnetization       =   156.88 Bohr mag/cell
     absolute magnetization    =   161.48 Bohr mag/cell

     iteration # 12     ecut=    60.00 Ry     beta= 0.20
     Davidson diagonalization with overlap
     c_bands:  5 eigenvalues not converged
     ethr =  2.33E-05,  avg # of iterations =  8.0

     negative rho (up, down):  1.537E-04 1.786E-02

     total cpu time spent up to now is     3802.0 secs

     total energy              =  -21096.19710518 Ry
     Harris-Foulkes estimate   =  -21096.21886936 Ry
     estimated scf accuracy    <       0.21492594 Ry

     total magnetization       =   159.21 Bohr mag/cell
     absolute magnetization    =   164.09 Bohr mag/cell

     iteration # 13     ecut=    60.00 Ry     beta= 0.20
     Davidson diagonalization with overlap
     ethr =  2.08E-05,  avg # of iterations =  9.4

     negative rho (up, down):  5.199E-04 2.523E-02

     total cpu time spent up to now is     4071.3 secs

     total energy              =  -21096.21034966 Ry
     Harris-Foulkes estimate   =  -21096.21643445 Ry
     estimated scf accuracy    <       0.14930239 Ry

     total magnetization       =   160.65 Bohr mag/cell
     absolute magnetization    =   165.68 Bohr mag/cell

     iteration # 14     ecut=    60.00 Ry     beta= 0.20
     Davidson diagonalization with overlap
     c_bands:  4 eigenvalues not converged
     ethr =  1.45E-05,  avg # of iterations = 14.1

     negative rho (up, down):  1.005E-02 3.023E-02

     total cpu time spent up to now is     4567.8 secs

     total energy              =  -21096.21124611 Ry
     Harris-Foulkes estimate   =  -21096.22095231 Ry
     estimated scf accuracy    <       0.18114585 Ry

     total magnetization       =   160.41 Bohr mag/cell
     absolute magnetization    =   165.60 Bohr mag/cell

     iteration # 15     ecut=    60.00 Ry     beta= 0.20
     Davidson diagonalization with overlap
     c_bands:  1 eigenvalues not converged
     ethr =  1.45E-05,  avg # of iterations =  8.9

     negative rho (up, down):  6.575E-02 2.822E-02

     total cpu time spent up to now is     4812.2 secs

     total energy              =  -21096.20934492 Ry
     Harris-Foulkes estimate   =  -21096.21806701 Ry
     estimated scf accuracy    <       0.08356254 Ry

     total magnetization       =   161.34 Bohr mag/cell
     absolute magnetization    =   166.60 Bohr mag/cell

     iteration # 16     ecut=    60.00 Ry     beta= 0.20
     Davidson diagonalization with overlap
     c_bands:  1 eigenvalues not converged
     c_bands:  3 eigenvalues not converged
     ethr =  8.10E-06,  avg # of iterations = 17.1

     negative rho (up, down):  5.567E-02 1.743E-02

     total cpu time spent up to now is     5405.4 secs

     total energy              =  -21096.21040164 Ry
     Harris-Foulkes estimate   =  -21096.22521066 Ry
     estimated scf accuracy    <       0.06580034 Ry

     total magnetization       =   161.31 Bohr mag/cell
     absolute magnetization    =   166.86 Bohr mag/cell

     iteration # 17     ecut=    60.00 Ry     beta= 0.20
     Davidson diagonalization with overlap
     c_bands:  3 eigenvalues not converged
     c_bands:  3 eigenvalues not converged
     ethr =  6.38E-06,  avg # of iterations = 14.2

     negative rho (up, down):  1.520E-01 1.857E-02

     total cpu time spent up to now is     5896.7 secs

     total energy              =  -21096.20068130 Ry
     Harris-Foulkes estimate   =  -21096.21471996 Ry
     estimated scf accuracy    <       0.05296778 Ry

     total magnetization       =   160.98 Bohr mag/cell
     absolute magnetization    =   166.67 Bohr mag/cell

     iteration # 18     ecut=    60.00 Ry     beta= 0.20
     Davidson diagonalization with overlap
     c_bands:  1 eigenvalues not converged
     c_bands:  1 eigenvalues not converged
     ethr =  5.13E-06,  avg # of iterations =  9.3

     negative rho (up, down):  1.816E-01 1.832E-02

     total cpu time spent up to now is     6171.3 secs

     total energy              =  -21096.17624379 Ry
     Harris-Foulkes estimate   =  -21096.20333533 Ry
     estimated scf accuracy    <       0.03175305 Ry

     total magnetization       =   161.33 Bohr mag/cell
     absolute magnetization    =   167.09 Bohr mag/cell

     iteration # 19     ecut=    60.00 Ry     beta= 0.20
     Davidson diagonalization with overlap
     c_bands:  1 eigenvalues not converged
     c_bands:  3 eigenvalues not converged
     c_bands:  1 eigenvalues not converged
     ethr =  3.08E-06,  avg # of iterations = 23.9

     negative rho (up, down):  1.542E-01 1.908E-02

     total cpu time spent up to now is     7356.3 secs

     total energy              =  -21096.16894795 Ry
     Harris-Foulkes estimate   =  -21096.18225457 Ry
     estimated scf accuracy    <       0.01961128 Ry

     total magnetization       =   161.07 Bohr mag/cell
     absolute magnetization    =   167.12 Bohr mag/cell

     iteration # 20     ecut=    60.00 Ry     beta= 0.20
     Davidson diagonalization with overlap
     c_bands:  1 eigenvalues not converged
     c_bands:  3 eigenvalues not converged
     c_bands:  5 eigenvalues not converged
     ethr =  1.90E-06,  avg # of iterations = 31.9

     negative rho (up, down):  9.720E-02 1.817E-02

     total cpu time spent up to now is     8451.8 secs

     total energy              =  -21096.14512724 Ry
     Harris-Foulkes estimate   =  -21096.17221719 Ry
     estimated scf accuracy    <       0.01512193 Ry

     total magnetization       =   161.05 Bohr mag/cell
     absolute magnetization    =   167.34 Bohr mag/cell

     iteration # 21     ecut=    60.00 Ry     beta= 0.20
     Davidson diagonalization with overlap
     c_bands:  1 eigenvalues not converged
     c_bands:  3 eigenvalues not converged
     ethr =  1.47E-06,  avg # of iterations = 23.1

     negative rho (up, down):  1.195E-01 1.890E-02

     total cpu time spent up to now is     9256.0 secs

     total energy              =  -21096.12472736 Ry
     Harris-Foulkes estimate   =  -21096.14637265 Ry
     estimated scf accuracy    <       0.00782966 Ry

     total magnetization       =   160.83 Bohr mag/cell
     absolute magnetization    =   167.20 Bohr mag/cell

     iteration # 22     ecut=    60.00 Ry     beta= 0.20
     Davidson diagonalization with overlap
     c_bands:  2 eigenvalues not converged
     c_bands:  4 eigenvalues not converged
     ethr =  7.59E-07,  avg # of iterations = 24.9

     negative rho (up, down):  1.049E-01 2.001E-02

     total cpu time spent up to now is    10248.5 secs

     total energy              =  -21096.12756645 Ry
     Harris-Foulkes estimate   =  -21096.12665847 Ry
     estimated scf accuracy    <       0.00569316 Ry

     total magnetization       =   160.88 Bohr mag/cell
     absolute magnetization    =   167.40 Bohr mag/cell

     iteration # 23     ecut=    60.00 Ry     beta= 0.20
     Davidson diagonalization with overlap
     c_bands:  2 eigenvalues not converged
     c_bands:  3 eigenvalues not converged
     ethr =  5.52E-07,  avg # of iterations = 12.1

     negative rho (up, down):  6.601E-02 2.281E-02

     total cpu time spent up to now is    10508.3 secs

     total energy              =  -21096.12962077 Ry
     Harris-Foulkes estimate   =  -21096.12789201 Ry
     estimated scf accuracy    <       0.00370359 Ry

     total magnetization       =   161.07 Bohr mag/cell
     absolute magnetization    =   167.60 Bohr mag/cell

     iteration # 24     ecut=    60.00 Ry     beta= 0.20
     Davidson diagonalization with overlap
     c_bands:  3 eigenvalues not converged
     c_bands:  1 eigenvalues not converged
     ethr =  3.59E-07,  avg # of iterations = 10.6

     negative rho (up, down):  4.231E-02 2.169E-02

     total cpu time spent up to now is    10799.0 secs

     total energy              =  -21096.12970256 Ry
     Harris-Foulkes estimate   =  -21096.13004924 Ry
     estimated scf accuracy    <       0.00164361 Ry

     total magnetization       =   161.29 Bohr mag/cell
     absolute magnetization    =   167.84 Bohr mag/cell

     iteration # 25     ecut=    60.00 Ry     beta= 0.20
     Davidson diagonalization with overlap
     c_bands:  2 eigenvalues not converged
     ethr =  1.59E-07,  avg # of iterations = 11.9

     negative rho (up, down):  4.020E-02 2.019E-02

     total cpu time spent up to now is    11564.6 secs

     total energy              =  -21096.12905884 Ry
     Harris-Foulkes estimate   =  -21096.13048498 Ry
     estimated scf accuracy    <       0.00073851 Ry

     total magnetization       =   161.18 Bohr mag/cell
     absolute magnetization    =   167.78 Bohr mag/cell

     iteration # 26     ecut=    60.00 Ry     beta= 0.20
     Davidson diagonalization with overlap
     c_bands:  5 eigenvalues not converged
     ethr =  7.16E-08,  avg # of iterations =  8.4

     negative rho (up, down):  3.412E-02 1.980E-02

     total cpu time spent up to now is    11979.0 secs

     total energy              =  -21096.13127397 Ry
     Harris-Foulkes estimate   =  -21096.12921555 Ry
     estimated scf accuracy    <       0.00047394 Ry

     total magnetization       =   161.13 Bohr mag/cell
     absolute magnetization    =   167.74 Bohr mag/cell

     iteration # 27     ecut=    60.00 Ry     beta= 0.20
     Davidson diagonalization with overlap
     c_bands:  1 eigenvalues not converged
     ethr =  4.59E-08,  avg # of iterations =  6.5

     negative rho (up, down):  2.781E-02 2.021E-02

     total cpu time spent up to now is    12328.1 secs

     total energy              =  -21096.13583854 Ry
     Harris-Foulkes estimate   =  -21096.13130338 Ry
     estimated scf accuracy    <       0.00024091 Ry

     total magnetization       =   161.07 Bohr mag/cell
     absolute magnetization    =   167.68 Bohr mag/cell

     iteration # 28     ecut=    60.00 Ry     beta= 0.20
     Davidson diagonalization with overlap
     ethr =  2.33E-08,  avg # of iterations = 11.9

     negative rho (up, down):  2.733E-02 2.032E-02

     total cpu time spent up to now is    12900.7 secs

     total energy              =  -21096.13637856 Ry
     Harris-Foulkes estimate   =  -21096.13591805 Ry
     estimated scf accuracy    <       0.00012290 Ry

     total magnetization       =   161.15 Bohr mag/cell
     absolute magnetization    =   167.79 Bohr mag/cell

     iteration # 29     ecut=    60.00 Ry     beta= 0.20
     Davidson diagonalization with overlap
     ethr =  1.19E-08,  avg # of iterations = 14.3

     negative rho (up, down):  2.565E-02 2.042E-02

     total cpu time spent up to now is    13890.3 secs

     total energy              =  -21096.13654600 Ry
     Harris-Foulkes estimate   =  -21096.13642329 Ry
     estimated scf accuracy    <       0.00008480 Ry

     total magnetization       =   161.20 Bohr mag/cell
     absolute magnetization    =   167.85 Bohr mag/cell

     iteration # 30     ecut=    60.00 Ry     beta= 0.20
     Davidson diagonalization with overlap
     ethr =  8.22E-09,  avg # of iterations =  8.2

     negative rho (up, down):  2.333E-02 2.034E-02

     total cpu time spent up to now is    14332.4 secs

     total energy              =  -21096.13846642 Ry
     Harris-Foulkes estimate   =  -21096.13656395 Ry
     estimated scf accuracy    <       0.00003092 Ry

     total magnetization       =   161.24 Bohr mag/cell
     absolute magnetization    =   167.91 Bohr mag/cell

     iteration # 31     ecut=    60.00 Ry     beta= 0.20
     Davidson diagonalization with overlap
     ethr =  3.00E-09,  avg # of iterations = 10.5

     negative rho (up, down):  2.359E-02 2.032E-02

     total cpu time spent up to now is    15045.5 secs

     total energy              =  -21096.13885053 Ry
     Harris-Foulkes estimate   =  -21096.13847907 Ry
     estimated scf accuracy    <       0.00001599 Ry

     total magnetization       =   161.24 Bohr mag/cell
     absolute magnetization    =   167.92 Bohr mag/cell

     iteration # 32     ecut=    60.00 Ry     beta= 0.20
     Davidson diagonalization with overlap
     ethr =  1.55E-09,  avg # of iterations =  9.6

     negative rho (up, down):  2.451E-02 2.043E-02

     total cpu time spent up to now is    15394.2 secs

     total energy              =  -21096.13873515 Ry
     Harris-Foulkes estimate   =  -21096.13885364 Ry
     estimated scf accuracy    <       0.00000902 Ry

     total magnetization       =   161.26 Bohr mag/cell
     absolute magnetization    =   167.93 Bohr mag/cell

     iteration # 33     ecut=    60.00 Ry     beta= 0.20
     Davidson diagonalization with overlap
     ethr =  8.74E-10,  avg # of iterations = 13.5

     negative rho (up, down):  2.429E-02 2.039E-02

     total cpu time spent up to now is    16188.0 secs

     total energy              =  -21096.13875316 Ry
     Harris-Foulkes estimate   =  -21096.13873796 Ry
     estimated scf accuracy    <       0.00000313 Ry

     total magnetization       =   161.26 Bohr mag/cell
     absolute magnetization    =   167.94 Bohr mag/cell

     iteration # 34     ecut=    60.00 Ry     beta= 0.20
     Davidson diagonalization with overlap
     ethr =  3.03E-10,  avg # of iterations = 14.9

     negative rho (up, down):  2.412E-02 2.037E-02

     total cpu time spent up to now is    17047.4 secs

     total energy              =  -21096.13869046 Ry
     Harris-Foulkes estimate   =  -21096.13875447 Ry
     estimated scf accuracy    <       0.00000167 Ry

     total magnetization       =   161.26 Bohr mag/cell
     absolute magnetization    =   167.94 Bohr mag/cell

     iteration # 35     ecut=    60.00 Ry     beta= 0.20
     Davidson diagonalization with overlap
     c_bands:  2 eigenvalues not converged
     ethr =  1.62E-10,  avg # of iterations = 13.3

     negative rho (up, down):  2.443E-02 2.037E-02

     total cpu time spent up to now is    17543.8 secs

     total energy              =  -21096.13847856 Ry
     Harris-Foulkes estimate   =  -21096.13869066 Ry
     estimated scf accuracy    <       0.00000082 Ry

     total magnetization       =   161.26 Bohr mag/cell
     absolute magnetization    =   167.94 Bohr mag/cell

     iteration # 36     ecut=    60.00 Ry     beta= 0.20
     Davidson diagonalization with overlap
     ethr =  7.95E-11,  avg # of iterations = 13.7

     negative rho (up, down):  2.452E-02 2.038E-02

     total cpu time spent up to now is    18260.0 secs

     total energy              =  -21096.13846867 Ry
     Harris-Foulkes estimate   =  -21096.13847905 Ry
     estimated scf accuracy    <       0.00000033 Ry

     total magnetization       =   161.26 Bohr mag/cell
     absolute magnetization    =   167.95 Bohr mag/cell

     iteration # 37     ecut=    60.00 Ry     beta= 0.20
     Davidson diagonalization with overlap
     ethr =  3.15E-11,  avg # of iterations = 13.2

     negative rho (up, down):  2.454E-02 2.037E-02

     total cpu time spent up to now is    19010.0 secs

     total energy              =  -21096.13846309 Ry
     Harris-Foulkes estimate   =  -21096.13846873 Ry
     estimated scf accuracy    <       0.00000019 Ry

     total magnetization       =   161.26 Bohr mag/cell
     absolute magnetization    =   167.95 Bohr mag/cell

     iteration # 38     ecut=    60.00 Ry     beta= 0.20
     Davidson diagonalization with overlap
     ethr =  1.86E-11,  avg # of iterations = 10.2

     negative rho (up, down):  2.449E-02 2.039E-02

     total cpu time spent up to now is    19371.9 secs

     total energy              =  -21096.13842157 Ry
     Harris-Foulkes estimate   =  -21096.13846309 Ry
     estimated scf accuracy    <       0.00000010 Ry

     total magnetization       =   161.26 Bohr mag/cell
     absolute magnetization    =   167.95 Bohr mag/cell

     iteration # 39     ecut=    60.00 Ry     beta= 0.20
     Davidson diagonalization with overlap
     ethr =  9.76E-12,  avg # of iterations = 10.6

     negative rho (up, down):  2.446E-02 2.038E-02

     total cpu time spent up to now is    20310.9 secs

     total energy              =  -21096.13841234 Ry
     Harris-Foulkes estimate   =  -21096.13842160 Ry
     estimated scf accuracy    <       0.00000007 Ry

     total magnetization       =   161.26 Bohr mag/cell
     absolute magnetization    =   167.95 Bohr mag/cell

     iteration # 40     ecut=    60.00 Ry     beta= 0.20
     Davidson diagonalization with overlap
     ethr =  6.36E-12,  avg # of iterations =  7.5

     negative rho (up, down):  2.444E-02 2.037E-02

     total cpu time spent up to now is    20599.8 secs

     total energy              =  -21096.13838890 Ry
     Harris-Foulkes estimate   =  -21096.13841232 Ry
     estimated scf accuracy    <       0.00000002 Ry

     total magnetization       =   161.26 Bohr mag/cell
     absolute magnetization    =   167.95 Bohr mag/cell

     iteration # 41     ecut=    60.00 Ry     beta= 0.20
     Davidson diagonalization with overlap
     ethr =  2.30E-12,  avg # of iterations =  8.9

     negative rho (up, down):  2.443E-02 2.038E-02

     total cpu time spent up to now is    21254.6 secs

     total energy              =  -21096.13837943 Ry
     Harris-Foulkes estimate   =  -21096.13838891 Ry
     estimated scf accuracy    <       0.00000001 Ry

     total magnetization       =   161.26 Bohr mag/cell
     absolute magnetization    =   167.95 Bohr mag/cell

     iteration # 42     ecut=    60.00 Ry     beta= 0.20
     Davidson diagonalization with overlap
     c_bands:  2 eigenvalues not converged
     ethr =  1.28E-12,  avg # of iterations = 10.9

     negative rho (up, down):  2.444E-02 2.037E-02

     Magnetic moment per site:
     atom:    1    charge:   12.6246    magn:    2.3601    constr:    0.0000
     atom:    2    charge:   12.6136    magn:    2.2146    constr:    0.0000
     atom:    3    charge:   12.6249    magn:    2.3637    constr:    0.0000
     atom:    4    charge:   12.6148    magn:    2.1884    constr:    0.0000
     atom:    5    charge:   12.6163    magn:    2.1907    constr:    0.0000
     atom:    6    charge:   12.6275    magn:    2.2295    constr:    0.0000
     atom:    7    charge:   12.6195    magn:    2.1372    constr:    0.0000
     atom:    8    charge:   12.6260    magn:    2.3626    constr:    0.0000
     atom:    9    charge:   12.6250    magn:    2.3544    constr:    0.0000
     atom:   10    charge:   12.6247    magn:    2.3619    constr:    0.0000
     atom:   11    charge:   12.6152    magn:    2.1900    constr:    0.0000
     atom:   12    charge:   12.6151    magn:    2.1909    constr:    0.0000
     atom:   13    charge:   12.6168    magn:    2.1832    constr:    0.0000
     atom:   14    charge:   12.6150    magn:    2.1566    constr:    0.0000
     atom:   15    charge:   12.6260    magn:    2.3695    constr:    0.0000
     atom:   16    charge:   12.6261    magn:    2.2720    constr:    0.0000
     atom:   17    charge:   12.6247    magn:    2.3636    constr:    0.0000
     atom:   18    charge:   12.6147    magn:    2.1884    constr:    0.0000
     atom:   19    charge:   12.6248    magn:    2.3644    constr:    0.0000
     atom:   20    charge:   12.6143    magn:    2.2363    constr:    0.0000
     atom:   21    charge:   12.6196    magn:    2.1370    constr:    0.0000
     atom:   22    charge:   12.6258    magn:    2.3623    constr:    0.0000
     atom:   23    charge:   12.6196    magn:    2.1370    constr:    0.0000
     atom:   24    charge:   12.6170    magn:    2.0578    constr:    0.0000
     atom:   25    charge:   12.6251    magn:    2.3752    constr:    0.0000
     atom:   26    charge:   12.6251    magn:    2.3614    constr:    0.0000
     atom:   27    charge:   12.6150    magn:    2.1907    constr:    0.0000
     atom:   28    charge:   12.6150    magn:    2.1877    constr:    0.0000
     atom:   29    charge:   12.6125    magn:    2.2884    constr:    0.0000
     atom:   30    charge:   12.6103    magn:    2.1091    constr:    0.0000
     atom:   31    charge:   12.6382    magn:    2.3260    constr:    0.0000
     atom:   32    charge:   12.6254    magn:    2.3676    constr:    0.0000
     atom:   33    charge:   12.6246    magn:    2.3602    constr:    0.0000
     atom:   34    charge:   12.6146    magn:    2.1846    constr:    0.0000
     atom:   35    charge:   12.6245    magn:    2.3601    constr:    0.0000
     atom:   36    charge:   12.6140    magn:    2.2148    constr:    0.0000
     atom:   37    charge:   12.6166    magn:    2.1792    constr:    0.0000
     atom:   38    charge:   12.6271    magn:    2.3468    constr:    0.0000
     atom:   39    charge:   12.6165    magn:    2.1909    constr:    0.0000
     atom:   40    charge:   12.6275    magn:    2.2296    constr:    0.0000
     atom:   41    charge:   12.6244    magn:    2.3780    constr:    0.0000
     atom:   42    charge:   12.6257    magn:    2.3615    constr:    0.0000
     atom:   43    charge:   12.6145    magn:    2.1932    constr:    0.0000
     atom:   44    charge:   12.6149    magn:    2.1877    constr:    0.0000
     atom:   45    charge:   12.6179    magn:    2.1867    constr:    0.0000
     atom:   46    charge:   12.6107    magn:    2.1094    constr:    0.0000
     atom:   47    charge:   12.6292    magn:    2.3962    constr:    0.0000
     atom:   48    charge:   12.6254    magn:    2.3680    constr:    0.0000
     atom:   49    charge:   12.6250    magn:    2.3644    constr:    0.0000
     atom:   50    charge:   12.6148    magn:    2.2365    constr:    0.0000
     atom:   51    charge:   12.6247    magn:    2.3602    constr:    0.0000
     atom:   52    charge:   12.6147    magn:    2.1845    constr:    0.0000
     atom:   53    charge:   12.6196    magn:    2.1371    constr:    0.0000
     atom:   54    charge:   12.6165    magn:    2.0576    constr:    0.0000
     atom:   55    charge:   12.6164    magn:    2.1790    constr:    0.0000
     atom:   56    charge:   12.6272    magn:    2.3473    constr:    0.0000
     atom:   57    charge:   12.6250    magn:    2.3544    constr:    0.0000
     atom:   58    charge:   12.6246    magn:    2.3625    constr:    0.0000
     atom:   59    charge:   12.6151    magn:    2.1901    constr:    0.0000
     atom:   60    charge:   12.6151    magn:    2.1906    constr:    0.0000
     atom:   61    charge:   12.6168    magn:    2.1833    constr:    0.0000
     atom:   62    charge:   12.6152    magn:    2.1645    constr:    0.0000
     atom:   63    charge:   12.6259    magn:    2.3699    constr:    0.0000
     atom:   64    charge:   12.6376    magn:    2.3345    constr:    0.0000
     atom:   65    charge:    1.3524    magn:   -0.0015    constr:    0.0000
     atom:   66    charge:    0.4367    magn:    0.0078    constr:    0.0000
     atom:   67    charge:    0.4367    magn:    0.0079    constr:    0.0000
     atom:   68    charge:    0.3542    magn:   -0.0201    constr:    0.0000

     total cpu time spent up to now is    21782.3 secs

     End of self-consistent calculation

 ------ SPIN UP ------------


          k = 0.0000 0.0000 0.0000 (128403 PWs)   bands (ev):

   -94.7912 -94.7806 -94.7745 -94.7718 -94.7710 -94.7690 -94.7665 -94.7589
   -94.7582 -94.7541 -94.7514 -94.7509 -94.7432 -94.7427 -94.7399 -94.7369
   -94.7368 -94.7363 -94.7332 -94.7304 -94.7280 -94.7274 -94.7271 -94.7241
   -94.7204 -94.7194 -94.7176 -94.7153 -94.7121 -94.7104 -94.7057 -94.6954
   -94.6945 -94.6440 -94.6311 -94.6270 -94.6197 -94.6190 -94.6167 -94.6156
   -94.6084 -94.6060 -94.6050 -94.5991 -94.5965 -94.5939 -94.5933 -94.5932
   -94.5927 -94.5917 -94.5899 -94.5891 -94.5858 -94.5855 -94.5853 -94.5818
   -94.5772 -94.5729 -94.5703 -94.5644 -94.5520 -94.5508 -94.5497 -94.5418
   -60.9946 -60.9848 -60.9744 -60.9680 -60.9615 -60.9602 -60.9587 -60.9547
   -60.9525 -60.9482 -60.9415 -60.9372 -60.9349 -60.9339 -60.9337 -60.9323
   -60.9299 -60.9284 -60.9277 -60.9206 -60.9179 -60.9145 -60.9138 -60.9125
   -60.9111 -60.9071 -60.9047 -60.9036 -60.9026 -60.9010 -60.8958 -60.8934
   -60.8931 -60.8907 -60.8851 -60.8816 -60.8793 -60.8782 -60.8765 -60.8688
   -60.8613 -60.8568 -60.8565 -60.8563 -60.8544 -60.8522 -60.8282 -60.8104
   -60.8095 -60.8079 -60.8059 -60.7995 -60.7978 -60.7957 -60.7933 -60.7893
   -60.7865 -60.7859 -60.7849 -60.7812 -60.7778 -60.7766 -60.7764 -60.7753
   -60.7746 -60.7719 -60.7694 -60.7664 -60.7638 -60.7625 -60.7624 -60.7603
   -60.7572 -60.7546 -60.7510 -60.7451 -60.7415 -60.7297 -60.7292 -60.7278
   -60.7240 -60.7231 -60.7209 -60.7201 -60.7175 -60.7172 -60.7150 -60.7140
   -60.7139 -60.7113 -60.7099 -60.7073 -60.7057 -60.7052 -60.7021 -60.7008
   -60.6972 -60.6942 -60.6941 -60.6865 -60.6863 -60.6836 -60.6751 -60.6736
   -60.6729 -60.6719 -60.6714 -60.6664 -60.6657 -60.6620 -60.6615 -60.6599
   -60.6593 -60.6586 -60.6565 -60.6507 -60.6500 -60.6483 -60.6473 -60.6443
   -60.6434 -60.6431 -60.6406 -60.6386 -60.6373 -60.6363 -60.6338 -60.6336
   -60.6306 -60.6292 -60.6277 -60.6241 -60.6221 -60.6182 -60.6157 -60.6151
   -60.6129 -60.6103 -60.6094 -60.6076 -60.6039 -60.6027 -60.5985 -60.5974
   -60.5959 -60.5918 -60.5916 -60.5844 -60.5828 -60.5824 -60.5778 -60.5762
   -60.5739 -60.5651 -60.5632 -60.5625 -60.5624 -60.5619 -60.5596 -60.5595
   -60.5587 -60.5529 -60.5511 -60.5465 -60.5458 -60.5438 -60.5411 -60.5394
   -60.5376 -60.5369 -60.5350 -60.5265 -60.5224 -60.5207 -60.5186 -60.5119
   -60.5097 -60.5018 -60.4988 -60.4985 -60.4981 -60.4978 -60.4972 -60.4962
   -60.4950 -60.4930 -60.4903 -60.4901 -60.4896 -60.4840 -60.4839 -60.4832
   -23.8910 -15.0459 -14.6021 -13.7363 -13.4618 -12.9154 -12.8822 -12.8674
   -12.8531 -12.6316 -12.3935 -12.3090 -11.9606 -11.8747 -11.8695 -11.7817
   -11.6103 -11.4525 -11.4376 -11.3246 -11.3009 -11.2451 -11.2368 -11.2113
   -11.1964 -11.1410 -11.1384 -11.1071 -11.0583 -11.0318 -10.7999 -10.7998
   -10.7591 -10.7429 -10.6960 -10.6904 -10.6766 -10.6733 -10.6731 -10.6689
   -10.6615 -10.6579 -10.6478 -10.6460 -10.6397 -10.6357 -10.6352 -10.6261
   -10.6103 -10.5978 -10.5877 -10.5820 -10.5819 -10.5669 -10.5611 -10.5577
   -10.5240 -10.4675 -10.4561 -10.4480 -10.4285 -10.4046 -10.3850 -10.3820
   -10.3705 -10.3472 -10.2825 -10.1039 -10.0763 -10.0744 -10.0712 -10.0669
   -10.0559  -9.9597  -9.9474  -9.9193  -9.9019  -9.8898  -9.8892  -9.8877
    -9.8853  -9.8838  -9.8717  -9.8681  -9.8627  -9.8515  -9.8470  -9.8456
    -9.8355  -9.8347  -9.8296  -9.8158  -9.8126  -9.8086  -9.8065  -9.7976
    -9.7845  -9.7772  -9.7765  -9.7537  -9.7536  -9.7523  -9.7441  -9.7383
    -9.7346  -9.7215  -9.7101  -9.7074  -9.6906  -9.6881  -9.6841  -9.6598
    -9.6181  -9.6123  -9.5420  -9.5169  -9.5155  -9.5056  -9.4963  -9.4904
    -9.4650  -9.4221  -9.3683  -9.3171  -9.3148  -9.3130  -9.3021  -9.3012
    -9.2989  -9.2955  -9.2752  -9.2657  -9.2477  -9.2319  -9.2297  -9.2237
    -9.2190  -9.1928  -9.1817  -9.1810  -9.1787  -9.1751  -9.1701  -9.1695
    -9.1569  -9.1550  -9.1308  -9.1040  -9.0389  -9.0360  -9.0272  -9.0067
    -9.0062  -9.0058  -9.0029  -8.9987  -8.9948  -8.9664  -8.9583  -8.9288
    -8.9125  -8.9053  -8.8765  -8.8716  -8.8712  -8.8666  -8.8355  -8.8323
    -8.8305  -8.8260  -8.7954  -8.7916  -8.7784  -8.7753  -8.7711  -8.7640
    -8.7492  -8.7481  -8.7415  -8.7281  -8.7278  -8.7253  -8.7206  -8.7100
    -8.7041  -8.6876  -8.6391  -8.5981  -8.5980  -8.5641  -8.5006  -8.4889
    -8.3922  -8.3444  -8.2420  -8.2191  -8.2114  -8.2100  -8.1977  -8.1959
    -8.1911  -8.1883  -8.1805  -8.1786  -8.1534  -8.1393  -8.1166  -8.1128
    -8.1081  -8.0894  -8.0858  -8.0715  -8.0596  -8.0450  -8.0338  -8.0316
    -8.0182  -8.0175  -8.0064  -7.9962  -7.9946  -7.9923  -7.9630  -7.9570
    -7.9542  -7.9373  -7.9230  -7.8970  -7.8954  -7.8926  -7.8867  -7.8846
    -7.8771  -7.8712  -7.8573  -7.8553  -7.8537  -7.8495  -7.8493  -7.8420
    -7.8229  -7.8121  -7.8054  -7.8034  -7.7983  -7.7896  -7.7829  -7.7785
    -7.7771  -7.7745  -7.7724  -7.7696  -7.7692  -7.7681  -7.7588  -7.7533
    -7.7505  -7.7458  -7.7412  -7.7370  -7.7350  -7.7288  -7.7224  -7.7208
    -7.7135  -7.7090  -7.7019  -7.6964  -7.6948  -7.6910  -7.6744  -7.6669
    -7.6633  -7.6628  -7.6590  -7.6548  -7.6486  -7.6414  -7.6402  -7.6354
    -7.6310  -7.6097  -7.6037  -7.6035  -7.5892  -7.5651  -7.5494  -7.5452
    -7.5382  -7.5336  -7.5110  -7.5021  -7.5012  -7.5004  -7.4450  -7.4264
    -7.3987  -7.3894  -7.3818  -7.3804  -7.3750  -7.3670  -7.3667  -7.3585
    -7.3538  -7.3501  -7.3490  -7.3298  -7.3262  -7.3249  -7.3129  -7.3092
    -7.3006  -7.2934  -7.2848  -7.2034  -7.1950  -7.1941  -7.0561  -6.9054
    -6.8982  -6.8800  -6.8638  -6.8398  -6.8191  -6.7706  -6.7681  -6.7597
    -6.7346  -6.7082  -6.6739  -6.6404  -6.6329  -6.6298  -6.6190  -6.6002
    -6.5660  -6.5454  -6.5431  -6.5319  -6.5085  -6.4127  -6.3947  -6.3227
    -6.3112  -6.2390  -6.2310  -6.2208  -6.0380  -5.9580  -5.6043  -5.5886
    -5.5839  -5.5836  -5.4855  -5.4784  -5.3494  -4.9276  -4.7543  -4.6694
    -4.6629  -4.6551  -4.6158

          k = 0.0000 0.2652 0.0000 (128375 PWs)   bands (ev):

   -94.7908 -94.7804 -94.7758 -94.7707 -94.7705 -94.7686 -94.7665 -94.7614
   -94.7591 -94.7544 -94.7505 -94.7479 -94.7459 -94.7416 -94.7395 -94.7384
   -94.7369 -94.7365 -94.7301 -94.7296 -94.7288 -94.7282 -94.7274 -94.7239
   -94.7228 -94.7175 -94.7169 -94.7151 -94.7124 -94.7113 -94.7056 -94.6955
   -94.6945 -94.6430 -94.6334 -94.6250 -94.6227 -94.6189 -94.6169 -94.6129
   -94.6081 -94.6055 -94.6034 -94.5991 -94.5979 -94.5958 -94.5944 -94.5934
   -94.5925 -94.5918 -94.5898 -94.5891 -94.5867 -94.5841 -94.5830 -94.5820
   -94.5775 -94.5743 -94.5691 -94.5647 -94.5528 -94.5511 -94.5480 -94.5425
   -60.9929 -60.9854 -60.9754 -60.9684 -60.9614 -60.9601 -60.9579 -60.9542
   -60.9515 -60.9486 -60.9453 -60.9386 -60.9350 -60.9337 -60.9325 -60.9311
   -60.9288 -60.9269 -60.9256 -60.9214 -60.9178 -60.9166 -60.9134 -60.9112
   -60.9093 -60.9078 -60.9066 -60.9016 -60.9007 -60.8963 -60.8944 -60.8931
   -60.8913 -60.8846 -60.8819 -60.8794 -60.8778 -60.8767 -60.8706 -60.8684
   -60.8634 -60.8597 -60.8557 -60.8508 -60.8490 -60.8417 -60.8309 -60.8231
   -60.8193 -60.8115 -60.8062 -60.8050 -60.8027 -60.8024 -60.7989 -60.7931
   -60.7914 -60.7888 -60.7853 -60.7811 -60.7803 -60.7783 -60.7761 -60.7749
   -60.7723 -60.7713 -60.7703 -60.7694 -60.7673 -60.7642 -60.7611 -60.7601
   -60.7585 -60.7543 -60.7528 -60.7502 -60.7457 -60.7437 -60.7404 -60.7373
   -60.7323 -60.7294 -60.7260 -60.7243 -60.7227 -60.7208 -60.7174 -60.7137
   -60.7084 -60.7069 -60.7044 -60.7030 -60.7008 -60.6983 -60.6969 -60.6943
   -60.6932 -60.6895 -60.6853 -60.6835 -60.6827 -60.6816 -60.6778 -60.6757
   -60.6727 -60.6712 -60.6683 -60.6675 -60.6656 -60.6648 -60.6638 -60.6621
   -60.6609 -60.6580 -60.6570 -60.6564 -60.6522 -60.6502 -60.6477 -60.6465
   -60.6448 -60.6403 -60.6395 -60.6370 -60.6334 -60.6317 -60.6300 -60.6279
   -60.6260 -60.6242 -60.6218 -60.6189 -60.6174 -60.6153 -60.6149 -60.6131
   -60.6105 -60.6082 -60.6060 -60.6030 -60.6010 -60.5997 -60.5975 -60.5935
   -60.5926 -60.5908 -60.5874 -60.5842 -60.5823 -60.5816 -60.5773 -60.5728
   -60.5707 -60.5699 -60.5656 -60.5650 -60.5635 -60.5623 -60.5611 -60.5599
   -60.5573 -60.5532 -60.5498 -60.5464 -60.5459 -60.5435 -60.5412 -60.5373
   -60.5359 -60.5311 -60.5293 -60.5264 -60.5210 -60.5183 -60.5178 -60.5137
   -60.5103 -60.5050 -60.5040 -60.5037 -60.5018 -60.5003 -60.4997 -60.4984
   -60.4969 -60.4965 -60.4951 -60.4931 -60.4904 -60.4884 -60.4855 -60.4842
   -23.8910 -15.0466 -14.4892 -13.7509 -13.6082 -13.3033 -12.9693 -12.8475
   -12.6193 -12.5325 -12.2706 -12.1397 -11.9213 -11.9089 -11.7531 -11.6447
   -11.5720 -11.5228 -11.4784 -11.3320 -11.2915 -11.2721 -11.1931 -11.1792
   -11.1546 -11.1292 -11.1075 -11.0925 -11.0636 -11.0178 -10.9413 -10.8601
   -10.8188 -10.8115 -10.8057 -10.7788 -10.7731 -10.7602 -10.7566 -10.7457
   -10.7170 -10.7060 -10.6927 -10.6757 -10.6708 -10.6574 -10.6427 -10.6312
   -10.6081 -10.5962 -10.5843 -10.5724 -10.5626 -10.5239 -10.5138 -10.4972
   -10.4920 -10.4866 -10.4795 -10.4486 -10.4241 -10.3534 -10.3459 -10.3161
   -10.3096 -10.2908 -10.2666 -10.2381 -10.1753 -10.1275 -10.0964 -10.0547
   -10.0243 -10.0137 -10.0083  -9.9643  -9.9195  -9.9086  -9.9037  -9.8978
    -9.8759  -9.8693  -9.8560  -9.8493  -9.8480  -9.8454  -9.8391  -9.8329
    -9.8237  -9.8174  -9.8112  -9.7988  -9.7912  -9.7787  -9.7680  -9.7643
    -9.7610  -9.7541  -9.7496  -9.7470  -9.7429  -9.7396  -9.7266  -9.7071
    -9.7005  -9.6724  -9.6511  -9.6484  -9.6460  -9.6383  -9.6181  -9.6117
    -9.6055  -9.5985  -9.5797  -9.5721  -9.5511  -9.5026  -9.4741  -9.4642
    -9.4453  -9.4123  -9.3964  -9.3906  -9.3707  -9.3658  -9.3149  -9.3064
    -9.2978  -9.2868  -9.2819  -9.2703  -9.2610  -9.2595  -9.2501  -9.2438
    -9.2393  -9.2264  -9.2092  -9.1999  -9.1962  -9.1773  -9.1587  -9.1542
    -9.1433  -9.1377  -9.1033  -9.0760  -9.0642  -9.0554  -9.0495  -9.0309
    -9.0226  -9.0092  -9.0027  -8.9917  -8.9854  -8.9819  -8.9724  -8.9672
    -8.9538  -8.9512  -8.9455  -8.9379  -8.9181  -8.8979  -8.8829  -8.8616
    -8.8324  -8.8239  -8.8117  -8.8024  -8.7924  -8.7693  -8.7614  -8.7558
    -8.7427  -8.7239  -8.7121  -8.7050  -8.6894  -8.6471  -8.6398  -8.6293
    -8.6016  -8.5831  -8.5521  -8.5328  -8.5215  -8.5004  -8.4392  -8.3818
    -8.3372  -8.3293  -8.2936  -8.2828  -8.2695  -8.2601  -8.2366  -8.2203
    -8.2029  -8.1981  -8.1845  -8.1672  -8.1621  -8.1585  -8.1482  -8.1405
    -8.1289  -8.1169  -8.1044  -8.0832  -8.0768  -8.0570  -8.0504  -8.0306
    -8.0229  -8.0095  -7.9956  -7.9907  -7.9786  -7.9754  -7.9667  -7.9637
    -7.9595  -7.9479  -7.9435  -7.9291  -7.9211  -7.9103  -7.8993  -7.8789
    -7.8733  -7.8633  -7.8612  -7.8523  -7.8444  -7.8367  -7.8345  -7.8314
    -7.8241  -7.8190  -7.8141  -7.8081  -7.8053  -7.7915  -7.7884  -7.7819
    -7.7758  -7.7675  -7.7625  -7.7550  -7.7500  -7.7378  -7.7359  -7.7316
    -7.7286  -7.7244  -7.7206  -7.7164  -7.7124  -7.7079  -7.7018  -7.6965
    -7.6864  -7.6836  -7.6763  -7.6726  -7.6670  -7.6615  -7.6569  -7.6517
    -7.6490  -7.6433  -7.6376  -7.6266  -7.6221  -7.6164  -7.6021  -7.5989
    -7.5950  -7.5794  -7.5651  -7.5534  -7.5302  -7.5164  -7.5130  -7.5007
    -7.4937  -7.4899  -7.4876  -7.4739  -7.4665  -7.4599  -7.4580  -7.4544
    -7.4342  -7.4177  -7.3969  -7.3882  -7.3789  -7.3753  -7.3699  -7.3614
    -7.3483  -7.3434  -7.3367  -7.3301  -7.3224  -7.3100  -7.2896  -7.2582
    -7.2331  -7.2144  -7.1777  -7.1613  -7.1518  -6.9906  -6.9592  -6.9399
    -6.9367  -6.9134  -6.9058  -6.8875  -6.8692  -6.8528  -6.8178  -6.8047
    -6.7810  -6.7697  -6.7615  -6.7500  -6.7377  -6.7284  -6.7158  -6.7001
    -6.6686  -6.6562  -6.6417  -6.6106  -6.5847  -6.5717  -6.5438  -6.4828
    -6.4020  -6.1890  -6.1605  -6.0128  -5.9308  -5.9157  -5.7624  -5.7191
    -5.5937  -5.5319  -5.4411  -5.3753  -5.2680  -5.2134  -5.1778  -5.1080
    -5.0127  -5.0065  -4.8162

          k = 0.0000-0.5303 0.0000 (128388 PWs)   bands (ev):

   -94.7905 -94.7802 -94.7770 -94.7704 -94.7684 -94.7675 -94.7664 -94.7660
   -94.7594 -94.7530 -94.7511 -94.7471 -94.7462 -94.7409 -94.7407 -94.7390
   -94.7367 -94.7345 -94.7326 -94.7284 -94.7273 -94.7267 -94.7267 -94.7257
   -94.7249 -94.7175 -94.7148 -94.7138 -94.7135 -94.7127 -94.7055 -94.6956
   -94.6945 -94.6415 -94.6360 -94.6236 -94.6225 -94.6202 -94.6190 -94.6094
   -94.6083 -94.6041 -94.6022 -94.5998 -94.5987 -94.5978 -94.5953 -94.5937
   -94.5924 -94.5916 -94.5904 -94.5885 -94.5868 -94.5843 -94.5820 -94.5797
   -94.5776 -94.5764 -94.5680 -94.5652 -94.5532 -94.5511 -94.5462 -94.5438
   -60.9898 -60.9871 -60.9768 -60.9679 -60.9619 -60.9601 -60.9559 -60.9529
   -60.9516 -60.9496 -60.9485 -60.9379 -60.9365 -60.9346 -60.9319 -60.9282
   -60.9268 -60.9257 -60.9255 -60.9214 -60.9206 -60.9137 -60.9132 -60.9114
   -60.9092 -60.9077 -60.9075 -60.9011 -60.8973 -60.8968 -60.8903 -60.8889
   -60.8865 -60.8844 -60.8788 -60.8750 -60.8721 -60.8716 -60.8687 -60.8684
   -60.8645 -60.8596 -60.8473 -60.8450 -60.8425 -60.8406 -60.8311 -60.8306
   -60.8277 -60.8245 -60.8136 -60.8126 -60.8121 -60.8092 -60.8062 -60.8040
   -60.7969 -60.7894 -60.7864 -60.7837 -60.7822 -60.7773 -60.7752 -60.7737
   -60.7700 -60.7694 -60.7680 -60.7653 -60.7649 -60.7635 -60.7594 -60.7571
   -60.7550 -60.7535 -60.7527 -60.7508 -60.7470 -60.7463 -60.7418 -60.7409
   -60.7390 -60.7373 -60.7336 -60.7315 -60.7292 -60.7275 -60.7253 -60.7239
   -60.7213 -60.7162 -60.7080 -60.7022 -60.6990 -60.6965 -60.6948 -60.6927
   -60.6898 -60.6878 -60.6837 -60.6827 -60.6789 -60.6746 -60.6740 -60.6685
   -60.6667 -60.6663 -60.6660 -60.6616 -60.6605 -60.6596 -60.6582 -60.6580
   -60.6569 -60.6561 -60.6555 -60.6538 -60.6510 -60.6495 -60.6450 -60.6444
   -60.6410 -60.6405 -60.6389 -60.6376 -60.6369 -60.6343 -60.6338 -60.6303
   -60.6291 -60.6231 -60.6180 -60.6178 -60.6173 -60.6158 -60.6142 -60.6105
   -60.6074 -60.6057 -60.6052 -60.6000 -60.5979 -60.5964 -60.5929 -60.5920
   -60.5901 -60.5874 -60.5827 -60.5813 -60.5808 -60.5799 -60.5768 -60.5739
   -60.5732 -60.5727 -60.5718 -60.5678 -60.5632 -60.5628 -60.5615 -60.5577
   -60.5534 -60.5506 -60.5474 -60.5458 -60.5451 -60.5391 -60.5326 -60.5291
   -60.5281 -60.5260 -60.5249 -60.5234 -60.5191 -60.5188 -60.5171 -60.5155
   -60.5151 -60.5145 -60.5129 -60.5101 -60.5076 -60.5068 -60.5062 -60.5031
   -60.5009 -60.5000 -60.4962 -60.4958 -60.4908 -60.4905 -60.4862 -60.4850
   -23.8910 -15.0473 -14.1719 -14.1583 -13.6104 -13.3490 -12.9563 -12.9457
   -12.6883 -12.4599 -12.0828 -12.0654 -11.8693 -11.8214 -11.6017 -11.5636
   -11.4921 -11.4546 -11.4392 -11.4002 -11.3147 -11.2853 -11.2558 -11.2359
   -11.1203 -11.0965 -11.0735 -11.0265 -11.0128 -11.0049 -10.9988 -10.9887
   -10.9672 -10.9642 -10.9430 -10.9376 -10.9283 -10.8623 -10.8562 -10.7895
   -10.7336 -10.6939 -10.6816 -10.6438 -10.6417 -10.6410 -10.6342 -10.5685
   -10.5589 -10.5524 -10.5473 -10.5348 -10.5306 -10.5173 -10.5129 -10.5078
   -10.4982 -10.4550 -10.4309 -10.3912 -10.3827 -10.3729 -10.3694 -10.3609
   -10.3095 -10.2992 -10.2697 -10.2492 -10.2327 -10.1972 -10.1775 -10.1508
   -10.1367 -10.0455 -10.0340  -9.9537  -9.9283  -9.8955  -9.8941  -9.8819
    -9.8739  -9.8638  -9.8535  -9.8406  -9.8353  -9.8243  -9.8228  -9.8190
    -9.8157  -9.8027  -9.7970  -9.7951  -9.7901  -9.7782  -9.7764  -9.7728
    -9.7636  -9.7325  -9.7252  -9.6841  -9.6627  -9.6594  -9.6553  -9.6428
    -9.6322  -9.6174  -9.6104  -9.6071  -9.6044  -9.5992  -9.5916  -9.5851
    -9.5808  -9.5761  -9.5716  -9.5672  -9.5590  -9.5326  -9.5228  -9.5127
    -9.4943  -9.4810  -9.4434  -9.3829  -9.3575  -9.3244  -9.3115  -9.2806
    -9.2784  -9.2708  -9.2674  -9.2609  -9.2598  -9.2482  -9.2446  -9.2384
    -9.2343  -9.2238  -9.2179  -9.2147  -9.2101  -9.2085  -9.2044  -9.1830
    -9.1799  -9.1679  -9.1537  -9.1512  -9.1433  -9.1098  -9.1037  -9.1015
    -9.0907  -9.0782  -9.0679  -9.0484  -9.0447  -9.0398  -9.0239  -9.0022
    -8.9749  -8.9692  -8.9622  -8.9311  -8.9141  -8.9121  -8.9087  -8.8366
    -8.7999  -8.7911  -8.7634  -8.7605  -8.7566  -8.7510  -8.7349  -8.7296
    -8.7145  -8.7043  -8.6711  -8.6607  -8.6165  -8.5303  -8.4809  -8.4705
    -8.4578  -8.4468  -8.4202  -8.4155  -8.4118  -8.4035  -8.3784  -8.3685
    -8.3466  -8.3088  -8.3030  -8.3020  -8.2855  -8.2825  -8.2773  -8.2704
    -8.2573  -8.2528  -8.2399  -8.2374  -8.2345  -8.2240  -8.2044  -8.1466
    -8.1311  -8.1288  -8.1228  -8.0925  -8.0900  -8.0864  -8.0784  -8.0722
    -8.0460  -8.0332  -7.9986  -7.9827  -7.9771  -7.9743  -7.9694  -7.9643
    -7.9614  -7.9561  -7.9480  -7.9432  -7.9360  -7.9317  -7.9253  -7.9242
    -7.9182  -7.9114  -7.9106  -7.9034  -7.8982  -7.8845  -7.8447  -7.8423
    -7.8276  -7.8156  -7.7917  -7.7885  -7.7862  -7.7808  -7.7776  -7.7745
    -7.7700  -7.7581  -7.7545  -7.7514  -7.7457  -7.7410  -7.7369  -7.7350
    -7.7276  -7.7218  -7.7197  -7.7139  -7.7023  -7.6923  -7.6840  -7.6689
    -7.6674  -7.6614  -7.6549  -7.6453  -7.6179  -7.6163  -7.6054  -7.6005
    -7.5982  -7.5937  -7.5734  -7.5699  -7.5604  -7.5563  -7.5506  -7.5187
    -7.5143  -7.5096  -7.5077  -7.5046  -7.5015  -7.4962  -7.4946  -7.4921
    -7.4903  -7.4852  -7.4805  -7.4733  -7.4683  -7.4655  -7.4619  -7.4575
    -7.4542  -7.4455  -7.4061  -7.4044  -7.3916  -7.3645  -7.3291  -7.3233
    -7.2785  -7.2684  -7.2490  -7.2164  -7.2127  -7.2093  -7.1986  -7.1409
    -7.0954  -7.0825  -7.0771  -7.0631  -7.0579  -7.0527  -7.0400  -6.9982
    -6.9879  -6.9862  -6.9805  -6.9473  -6.9297  -6.9273  -6.9151  -6.8987
    -6.8464  -6.8329  -6.8232  -6.7983  -6.7862  -6.7696  -6.7557  -6.7334
    -6.7241  -6.7097  -6.6907  -6.6872  -6.6829  -6.6763  -6.6638  -6.6513
    -6.5415  -6.4173  -6.3353  -6.2794  -6.2203  -5.9879  -5.6915  -5.6481
    -5.6272  -5.6083  -5.6079  -5.4396  -5.1076  -5.0196  -4.9713  -4.9186
    -4.8945  -4.8373  -4.8160

          k = 0.2500-0.0884 0.0000 (128371 PWs)   bands (ev):

   -94.7908 -94.7805 -94.7757 -94.7707 -94.7705 -94.7687 -94.7665 -94.7614
   -94.7591 -94.7544 -94.7505 -94.7479 -94.7459 -94.7416 -94.7394 -94.7384
   -94.7369 -94.7365 -94.7301 -94.7296 -94.7288 -94.7282 -94.7274 -94.7239
   -94.7228 -94.7175 -94.7169 -94.7153 -94.7123 -94.7113 -94.7056 -94.6955
   -94.6945 -94.6430 -94.6334 -94.6250 -94.6227 -94.6188 -94.6169 -94.6130
   -94.6081 -94.6055 -94.6034 -94.5991 -94.5979 -94.5958 -94.5944 -94.5934
   -94.5925 -94.5918 -94.5898 -94.5891 -94.5867 -94.5841 -94.5830 -94.5820
   -94.5775 -94.5743 -94.5691 -94.5647 -94.5528 -94.5511 -94.5480 -94.5425
   -60.9929 -60.9854 -60.9754 -60.9683 -60.9614 -60.9601 -60.9580 -60.9542
   -60.9515 -60.9486 -60.9453 -60.9386 -60.9349 -60.9337 -60.9325 -60.9311
   -60.9288 -60.9270 -60.9256 -60.9214 -60.9178 -60.9167 -60.9134 -60.9111
   -60.9093 -60.9078 -60.9066 -60.9016 -60.9007 -60.8963 -60.8944 -60.8931
   -60.8913 -60.8846 -60.8819 -60.8794 -60.8778 -60.8767 -60.8706 -60.8684
   -60.8634 -60.8597 -60.8557 -60.8508 -60.8490 -60.8417 -60.8309 -60.8231
   -60.8193 -60.8116 -60.8061 -60.8049 -60.8027 -60.8024 -60.7989 -60.7931
   -60.7914 -60.7888 -60.7853 -60.7811 -60.7803 -60.7783 -60.7761 -60.7749
   -60.7723 -60.7713 -60.7703 -60.7694 -60.7673 -60.7642 -60.7611 -60.7601
   -60.7585 -60.7543 -60.7529 -60.7502 -60.7457 -60.7436 -60.7404 -60.7373
   -60.7323 -60.7294 -60.7260 -60.7243 -60.7227 -60.7208 -60.7174 -60.7137
   -60.7084 -60.7069 -60.7044 -60.7029 -60.7008 -60.6983 -60.6969 -60.6944
   -60.6932 -60.6895 -60.6853 -60.6835 -60.6827 -60.6816 -60.6778 -60.6757
   -60.6727 -60.6712 -60.6683 -60.6675 -60.6656 -60.6648 -60.6638 -60.6621
   -60.6609 -60.6579 -60.6570 -60.6564 -60.6522 -60.6503 -60.6477 -60.6465
   -60.6448 -60.6403 -60.6395 -60.6370 -60.6334 -60.6317 -60.6300 -60.6279
   -60.6260 -60.6241 -60.6219 -60.6189 -60.6174 -60.6153 -60.6149 -60.6131
   -60.6105 -60.6082 -60.6060 -60.6030 -60.6010 -60.5997 -60.5975 -60.5935
   -60.5925 -60.5908 -60.5874 -60.5842 -60.5823 -60.5816 -60.5773 -60.5728
   -60.5707 -60.5699 -60.5656 -60.5650 -60.5635 -60.5622 -60.5611 -60.5599
   -60.5573 -60.5532 -60.5498 -60.5465 -60.5458 -60.5435 -60.5412 -60.5373
   -60.5359 -60.5311 -60.5293 -60.5263 -60.5210 -60.5183 -60.5178 -60.5137
   -60.5103 -60.5050 -60.5040 -60.5037 -60.5018 -60.5003 -60.4997 -60.4984
   -60.4969 -60.4965 -60.4951 -60.4931 -60.4904 -60.4884 -60.4855 -60.4842
   -23.8910 -15.0466 -14.4892 -13.7509 -13.6082 -13.3033 -12.9692 -12.8475
   -12.6193 -12.5325 -12.2707 -12.1397 -11.9213 -11.9087 -11.7531 -11.6446
   -11.5720 -11.5228 -11.4785 -11.3320 -11.2915 -11.2721 -11.1930 -11.1792
   -11.1546 -11.1293 -11.1075 -11.0925 -11.0636 -11.0177 -10.9412 -10.8601
   -10.8188 -10.8115 -10.8057 -10.7788 -10.7731 -10.7602 -10.7566 -10.7457
   -10.7170 -10.7060 -10.6927 -10.6757 -10.6707 -10.6573 -10.6427 -10.6312
   -10.6081 -10.5962 -10.5843 -10.5724 -10.5626 -10.5240 -10.5138 -10.4972
   -10.4920 -10.4866 -10.4795 -10.4486 -10.4241 -10.3534 -10.3459 -10.3162
   -10.3096 -10.2908 -10.2667 -10.2380 -10.1753 -10.1275 -10.0963 -10.0547
   -10.0243 -10.0138 -10.0083  -9.9643  -9.9195  -9.9086  -9.9037  -9.8978
    -9.8759  -9.8693  -9.8560  -9.8493  -9.8481  -9.8454  -9.8391  -9.8329
    -9.8237  -9.8174  -9.8112  -9.7988  -9.7912  -9.7786  -9.7679  -9.7643
    -9.7610  -9.7542  -9.7496  -9.7470  -9.7428  -9.7397  -9.7265  -9.7071
    -9.7005  -9.6724  -9.6512  -9.6484  -9.6461  -9.6383  -9.6181  -9.6117
    -9.6055  -9.5985  -9.5797  -9.5721  -9.5511  -9.5026  -9.4741  -9.4643
    -9.4453  -9.4123  -9.3964  -9.3906  -9.3707  -9.3658  -9.3149  -9.3064
    -9.2978  -9.2868  -9.2819  -9.2703  -9.2610  -9.2595  -9.2501  -9.2438
    -9.2393  -9.2264  -9.2092  -9.1999  -9.1962  -9.1773  -9.1587  -9.1542
    -9.1433  -9.1377  -9.1033  -9.0760  -9.0642  -9.0554  -9.0495  -9.0309
    -9.0226  -9.0092  -9.0028  -8.9917  -8.9855  -8.9819  -8.9724  -8.9671
    -8.9538  -8.9513  -8.9455  -8.9380  -8.9181  -8.8978  -8.8829  -8.8616
    -8.8324  -8.8239  -8.8117  -8.8024  -8.7924  -8.7692  -8.7614  -8.7558
    -8.7427  -8.7239  -8.7121  -8.7050  -8.6893  -8.6471  -8.6398  -8.6293
    -8.6016  -8.5830  -8.5522  -8.5328  -8.5216  -8.5003  -8.4392  -8.3818
    -8.3372  -8.3292  -8.2936  -8.2828  -8.2695  -8.2600  -8.2366  -8.2203
    -8.2029  -8.1981  -8.1845  -8.1672  -8.1621  -8.1584  -8.1482  -8.1405
    -8.1289  -8.1169  -8.1044  -8.0832  -8.0768  -8.0570  -8.0503  -8.0307
    -8.0230  -8.0094  -7.9956  -7.9908  -7.9786  -7.9754  -7.9667  -7.9637
    -7.9596  -7.9479  -7.9435  -7.9291  -7.9211  -7.9103  -7.8993  -7.8790
    -7.8733  -7.8633  -7.8611  -7.8523  -7.8444  -7.8367  -7.8345  -7.8314
    -7.8241  -7.8190  -7.8141  -7.8081  -7.8053  -7.7915  -7.7883  -7.7819
    -7.7758  -7.7675  -7.7625  -7.7550  -7.7500  -7.7378  -7.7359  -7.7316
    -7.7286  -7.7245  -7.7205  -7.7164  -7.7124  -7.7079  -7.7018  -7.6965
    -7.6865  -7.6836  -7.6763  -7.6726  -7.6670  -7.6616  -7.6569  -7.6517
    -7.6490  -7.6433  -7.6376  -7.6267  -7.6221  -7.6164  -7.6021  -7.5990
    -7.5949  -7.5794  -7.5651  -7.5534  -7.5301  -7.5164  -7.5130  -7.5007
    -7.4937  -7.4899  -7.4876  -7.4739  -7.4665  -7.4600  -7.4580  -7.4544
    -7.4342  -7.4177  -7.3969  -7.3882  -7.3789  -7.3753  -7.3699  -7.3614
    -7.3484  -7.3433  -7.3368  -7.3301  -7.3224  -7.3100  -7.2896  -7.2582
    -7.2330  -7.2144  -7.1777  -7.1612  -7.1519  -6.9906  -6.9592  -6.9399
    -6.9368  -6.9134  -6.9058  -6.8875  -6.8692  -6.8528  -6.8178  -6.8047
    -6.7810  -6.7697  -6.7614  -6.7501  -6.7377  -6.7284  -6.7158  -6.7001
    -6.6685  -6.6562  -6.6417  -6.6107  -6.5847  -6.5717  -6.5438  -6.4829
    -6.4020  -6.1891  -6.1605  -6.0128  -5.9308  -5.9157  -5.7624  -5.7192
    -5.5936  -5.5319  -5.4411  -5.3754  -5.2679  -5.2134  -5.1778  -5.1080
    -5.0127  -5.0058  -4.8207

          k = 0.2500 0.1768 0.0000 (128340 PWs)   bands (ev):

   -94.7906 -94.7799 -94.7763 -94.7712 -94.7696 -94.7687 -94.7666 -94.7611
   -94.7588 -94.7556 -94.7535 -94.7487 -94.7446 -94.7387 -94.7370 -94.7370
   -94.7369 -94.7368 -94.7328 -94.7322 -94.7280 -94.7276 -94.7268 -94.7263
   -94.7208 -94.7172 -94.7154 -94.7153 -94.7127 -94.7124 -94.7055 -94.6956
   -94.6944 -94.6423 -94.6323 -94.6284 -94.6244 -94.6168 -94.6148 -94.6147
   -94.6079 -94.6057 -94.6004 -94.5991 -94.5989 -94.5957 -94.5939 -94.5928
   -94.5927 -94.5923 -94.5906 -94.5886 -94.5870 -94.5860 -94.5832 -94.5826
   -94.5781 -94.5724 -94.5686 -94.5649 -94.5536 -94.5494 -94.5486 -94.5430
   -60.9923 -60.9850 -60.9750 -60.9690 -60.9637 -60.9582 -60.9580 -60.9534
   -60.9500 -60.9490 -60.9438 -60.9390 -60.9378 -60.9344 -60.9328 -60.9316
   -60.9284 -60.9265 -60.9243 -60.9192 -60.9187 -60.9150 -60.9143 -60.9138
   -60.9097 -60.9084 -60.9045 -60.9011 -60.8983 -60.8960 -60.8916 -60.8909
   -60.8898 -60.8786 -60.8778 -60.8760 -60.8731 -60.8714 -60.8706 -60.8648
   -60.8566 -60.8528 -60.8503 -60.8487 -60.8477 -60.8457 -60.8332 -60.8229
   -60.8214 -60.8186 -60.8152 -60.8110 -60.8102 -60.8086 -60.8031 -60.8024
   -60.7949 -60.7941 -60.7912 -60.7903 -60.7890 -60.7817 -60.7798 -60.7748
   -60.7742 -60.7704 -60.7694 -60.7691 -60.7678 -60.7668 -60.7619 -60.7613
   -60.7575 -60.7554 -60.7543 -60.7521 -60.7467 -60.7444 -60.7394 -60.7377
   -60.7350 -60.7331 -60.7244 -60.7240 -60.7218 -60.7207 -60.7175 -60.7152
   -60.7139 -60.7105 -60.7044 -60.7032 -60.7005 -60.7003 -60.6973 -60.6919
   -60.6884 -60.6840 -60.6834 -60.6811 -60.6808 -60.6783 -60.6773 -60.6769
   -60.6751 -60.6734 -60.6727 -60.6688 -60.6669 -60.6654 -60.6641 -60.6616
   -60.6601 -60.6583 -60.6549 -60.6529 -60.6502 -60.6462 -60.6428 -60.6427
   -60.6416 -60.6393 -60.6369 -60.6359 -60.6354 -60.6315 -60.6302 -60.6282
   -60.6254 -60.6220 -60.6199 -60.6181 -60.6166 -60.6147 -60.6086 -60.6074
   -60.6040 -60.6030 -60.6002 -60.5970 -60.5970 -60.5946 -60.5944 -60.5917
   -60.5895 -60.5879 -60.5871 -60.5869 -60.5852 -60.5810 -60.5787 -60.5773
   -60.5761 -60.5707 -60.5665 -60.5654 -60.5628 -60.5625 -60.5575 -60.5549
   -60.5503 -60.5486 -60.5478 -60.5457 -60.5436 -60.5413 -60.5395 -60.5353
   -60.5352 -60.5339 -60.5264 -60.5258 -60.5231 -60.5215 -60.5183 -60.5147
   -60.5108 -60.5058 -60.5052 -60.5051 -60.5041 -60.5038 -60.5031 -60.5019
   -60.5002 -60.5001 -60.4983 -60.4960 -60.4951 -60.4911 -60.4890 -60.4865
   -23.8910 -15.0475 -14.4517 -13.7208 -13.5120 -13.2478 -13.2146 -13.0534
   -12.6940 -12.3044 -12.2700 -12.1623 -12.0363 -11.9160 -11.6771 -11.5804
   -11.5766 -11.4446 -11.3187 -11.2663 -11.2068 -11.2041 -11.1940 -11.1565
   -11.1256 -11.0854 -11.0805 -11.0774 -11.0602 -10.9799 -10.9787 -10.9445
   -10.8691 -10.8516 -10.8421 -10.8075 -10.7889 -10.7625 -10.7513 -10.7382
   -10.7169 -10.7027 -10.6909 -10.6846 -10.6820 -10.6801 -10.6772 -10.6753
   -10.6681 -10.6341 -10.6177 -10.5949 -10.5873 -10.5616 -10.5524 -10.5235
   -10.5098 -10.4848 -10.4610 -10.4500 -10.3751 -10.3388 -10.3286 -10.2859
   -10.2705 -10.2185 -10.2171 -10.2056 -10.1990 -10.1715 -10.1596 -10.1180
   -10.0460 -10.0213  -9.9990  -9.9598  -9.9340  -9.9208  -9.9136  -9.9109
    -9.9030  -9.9021  -9.8995  -9.8950  -9.8922  -9.8901  -9.8742  -9.8737
    -9.8659  -9.8609  -9.8385  -9.8179  -9.7940  -9.7697  -9.7590  -9.7558
    -9.7407  -9.7250  -9.7034  -9.6990  -9.6931  -9.6914  -9.6812  -9.6711
    -9.6656  -9.6546  -9.6377  -9.6335  -9.6076  -9.5877  -9.5867  -9.5495
    -9.5443  -9.5370  -9.5301  -9.5135  -9.5027  -9.4921  -9.4794  -9.4759
    -9.4675  -9.4651  -9.4582  -9.4547  -9.4486  -9.4353  -9.3724  -9.3687
    -9.3594  -9.3488  -9.2912  -9.2907  -9.2806  -9.2729  -9.2677  -9.2637
    -9.2557  -9.2354  -9.2152  -9.1956  -9.1942  -9.1891  -9.1672  -9.1585
    -9.1475  -9.1331  -9.1317  -9.1203  -9.1150  -9.1110  -9.0864  -9.0808
    -9.0455  -9.0308  -9.0150  -9.0050  -9.0009  -8.9854  -8.9787  -8.9549
    -8.9522  -8.9253  -8.9065  -8.8802  -8.8792  -8.8758  -8.8722  -8.8637
    -8.8609  -8.8558  -8.8510  -8.8424  -8.8416  -8.8345  -8.8321  -8.8292
    -8.7962  -8.7857  -8.7410  -8.7166  -8.6985  -8.6034  -8.5760  -8.5498
    -8.5269  -8.5034  -8.4982  -8.4898  -8.4391  -8.4089  -8.3864  -8.3663
    -8.3459  -8.3149  -8.3081  -8.2827  -8.2800  -8.2581  -8.2571  -8.2276
    -8.2011  -8.1940  -8.1841  -8.1820  -8.1697  -8.1547  -8.1359  -8.1190
    -8.1071  -8.1061  -8.0943  -8.0795  -8.0782  -8.0660  -8.0654  -8.0552
    -8.0361  -8.0310  -8.0236  -8.0155  -7.9944  -7.9931  -7.9707  -7.9585
    -7.9466  -7.9352  -7.9202  -7.9160  -7.9147  -7.9048  -7.9001  -7.8979
    -7.8839  -7.8812  -7.8685  -7.8453  -7.8428  -7.8316  -7.8289  -7.8286
    -7.8196  -7.8150  -7.8129  -7.8066  -7.7979  -7.7897  -7.7661  -7.7643
    -7.7601  -7.7568  -7.7456  -7.7371  -7.7321  -7.7205  -7.7204  -7.7009
    -7.6969  -7.6954  -7.6868  -7.6791  -7.6727  -7.6683  -7.6613  -7.6598
    -7.6573  -7.6303  -7.6205  -7.6164  -7.6155  -7.6096  -7.6093  -7.6037
    -7.5983  -7.5979  -7.5923  -7.5887  -7.5841  -7.5738  -7.5655  -7.5611
    -7.5582  -7.5518  -7.5362  -7.5339  -7.5207  -7.5204  -7.5130  -7.5126
    -7.5032  -7.5007  -7.4939  -7.4797  -7.4764  -7.4630  -7.4568  -7.4458
    -7.4421  -7.4236  -7.4135  -7.4022  -7.3883  -7.3604  -7.3576  -7.3333
    -7.3267  -7.3122  -7.3060  -7.2950  -7.2819  -7.2746  -7.2225  -7.2065
    -7.2055  -7.1814  -7.1778  -7.1602  -7.1544  -7.0149  -6.9969  -6.9565
    -6.9392  -6.9182  -6.9003  -6.8460  -6.8374  -6.8199  -6.7942  -6.7747
    -6.7576  -6.7416  -6.7359  -6.7320  -6.7286  -6.7255  -6.7177  -6.7092
    -6.6456  -6.6239  -6.5499  -6.5389  -6.5090  -6.4871  -6.4313  -6.4119
    -6.3324  -6.2295  -6.1919  -6.0615  -5.8987  -5.8951  -5.8016  -5.7721
    -5.7560  -5.6991  -5.6624  -5.6303  -5.6259  -5.5856  -5.5562  -5.4451
    -5.3264  -5.2554  -5.0100

          k = 0.2500-0.6187 0.0000 (128424 PWs)   bands (ev):

   -94.7903 -94.7794 -94.7774 -94.7723 -94.7676 -94.7666 -94.7665 -94.7645
   -94.7590 -94.7579 -94.7533 -94.7457 -94.7412 -94.7403 -94.7391 -94.7384
   -94.7370 -94.7367 -94.7329 -94.7300 -94.7295 -94.7282 -94.7276 -94.7228
   -94.7213 -94.7169 -94.7155 -94.7150 -94.7134 -94.7130 -94.7054 -94.6957
   -94.6945 -94.6408 -94.6349 -94.6277 -94.6257 -94.6175 -94.6153 -94.6103
   -94.6077 -94.6047 -94.6023 -94.5999 -94.5988 -94.5970 -94.5948 -94.5935
   -94.5923 -94.5911 -94.5903 -94.5884 -94.5868 -94.5850 -94.5831 -94.5829
   -94.5778 -94.5733 -94.5681 -94.5650 -94.5540 -94.5498 -94.5464 -94.5444
   -60.9894 -60.9862 -60.9770 -60.9692 -60.9634 -60.9576 -60.9562 -60.9520
   -60.9507 -60.9488 -60.9476 -60.9432 -60.9346 -60.9343 -60.9316 -60.9303
   -60.9258 -60.9250 -60.9234 -60.9223 -60.9203 -60.9156 -60.9145 -60.9110
   -60.9104 -60.9067 -60.9037 -60.9013 -60.8984 -60.8959 -60.8901 -60.8849
   -60.8808 -60.8772 -60.8732 -60.8711 -60.8674 -60.8646 -60.8618 -60.8613
   -60.8583 -60.8562 -60.8512 -60.8473 -60.8408 -60.8399 -60.8353 -60.8333
   -60.8301 -60.8285 -60.8247 -60.8213 -60.8174 -60.8117 -60.8099 -60.8056
   -60.8027 -60.7992 -60.7943 -60.7885 -60.7857 -60.7835 -60.7812 -60.7784
   -60.7769 -60.7724 -60.7705 -60.7671 -60.7641 -60.7618 -60.7591 -60.7576
   -60.7552 -60.7535 -60.7503 -60.7489 -60.7484 -60.7469 -60.7449 -60.7429
   -60.7376 -60.7367 -60.7341 -60.7333 -60.7305 -60.7252 -60.7226 -60.7188
   -60.7183 -60.7159 -60.7130 -60.7098 -60.7052 -60.7009 -60.6940 -60.6928
   -60.6884 -60.6856 -60.6842 -60.6825 -60.6786 -60.6762 -60.6731 -60.6703
   -60.6677 -60.6668 -60.6642 -60.6614 -60.6608 -60.6599 -60.6580 -60.6569
   -60.6553 -60.6531 -60.6522 -60.6507 -60.6475 -60.6460 -60.6431 -60.6419
   -60.6399 -60.6385 -60.6371 -60.6348 -60.6334 -60.6305 -60.6300 -60.6284
   -60.6264 -60.6233 -60.6215 -60.6189 -60.6148 -60.6141 -60.6073 -60.6066
   -60.6045 -60.6021 -60.5997 -60.5967 -60.5946 -60.5935 -60.5917 -60.5905
   -60.5891 -60.5878 -60.5842 -60.5835 -60.5826 -60.5794 -60.5788 -60.5771
   -60.5724 -60.5712 -60.5684 -60.5655 -60.5618 -60.5599 -60.5574 -60.5530
   -60.5507 -60.5474 -60.5452 -60.5428 -60.5408 -60.5373 -60.5322 -60.5297
   -60.5283 -60.5261 -60.5246 -60.5237 -60.5209 -60.5198 -60.5190 -60.5167
   -60.5159 -60.5153 -60.5130 -60.5119 -60.5111 -60.5099 -60.5077 -60.5059
   -60.5033 -60.5018 -60.5014 -60.4992 -60.4964 -60.4944 -60.4918 -60.4880
   -23.8910 -15.0479 -14.2042 -13.9306 -13.7067 -13.4421 -13.2271 -12.7533
   -12.6932 -12.4349 -12.2661 -12.1546 -11.7219 -11.6397 -11.5156 -11.4954
   -11.4629 -11.4324 -11.3897 -11.3542 -11.3285 -11.2311 -11.1827 -11.1717
   -11.1653 -11.1481 -11.1003 -11.0493 -11.0342 -11.0181 -11.0031 -10.9889
   -10.9800 -10.9465 -10.9397 -10.8929 -10.8695 -10.8564 -10.8472 -10.8412
   -10.8163 -10.7843 -10.7586 -10.7459 -10.7288 -10.7087 -10.6609 -10.6492
   -10.6051 -10.6011 -10.5597 -10.5350 -10.5256 -10.4874 -10.4780 -10.4565
   -10.4200 -10.3993 -10.3929 -10.3753 -10.3593 -10.3478 -10.3381 -10.3065
   -10.2968 -10.2605 -10.2506 -10.2386 -10.2099 -10.1990 -10.1934 -10.1764
   -10.1340 -10.0969 -10.0937 -10.0109  -9.9907  -9.9449  -9.9356  -9.9255
    -9.9097  -9.9036  -9.8925  -9.8911  -9.8807  -9.8585  -9.8348  -9.8077
    -9.7878  -9.7718  -9.7621  -9.7588  -9.7499  -9.7334  -9.7170  -9.6991
    -9.6952  -9.6922  -9.6815  -9.6795  -9.6762  -9.6737  -9.6714  -9.6568
    -9.6398  -9.6294  -9.6223  -9.6059  -9.5951  -9.5850  -9.5691  -9.5621
    -9.5537  -9.5425  -9.5405  -9.5245  -9.5130  -9.4976  -9.4948  -9.4607
    -9.4556  -9.4455  -9.4387  -9.4357  -9.4255  -9.4126  -9.4081  -9.3977
    -9.3845  -9.3785  -9.3680  -9.3633  -9.3535  -9.3394  -9.3325  -9.3214
    -9.3124  -9.2909  -9.2800  -9.2562  -9.2439  -9.1996  -9.1578  -9.1354
    -9.1327  -9.1229  -9.1182  -9.1056  -9.0931  -9.0877  -9.0839  -9.0781
    -9.0620  -9.0564  -9.0536  -9.0373  -9.0345  -9.0295  -9.0203  -9.0003
    -8.9842  -8.9798  -8.9640  -8.9538  -8.9468  -8.9150  -8.9036  -8.8673
    -8.8402  -8.8190  -8.7965  -8.7754  -8.7526  -8.7470  -8.7293  -8.7022
    -8.6643  -8.6295  -8.6117  -8.5939  -8.5633  -8.5430  -8.5322  -8.4984
    -8.4847  -8.4688  -8.4445  -8.4256  -8.4112  -8.3864  -8.3728  -8.3640
    -8.3517  -8.3335  -8.3245  -8.3186  -8.3153  -8.3035  -8.2863  -8.2708
    -8.2337  -8.2265  -8.2175  -8.1924  -8.1885  -8.1625  -8.1574  -8.1421
    -8.1276  -8.1191  -8.1081  -8.1039  -8.0927  -8.0821  -8.0744  -8.0663
    -8.0481  -8.0298  -8.0249  -8.0120  -8.0021  -7.9974  -7.9770  -7.9627
    -7.9603  -7.9540  -7.9463  -7.9429  -7.9390  -7.9296  -7.9153  -7.9123
    -7.9038  -7.8993  -7.8825  -7.8745  -7.8670  -7.8513  -7.8325  -7.8282
    -7.8172  -7.8063  -7.7985  -7.7906  -7.7826  -7.7817  -7.7700  -7.7630
    -7.7605  -7.7549  -7.7521  -7.7296  -7.7251  -7.7160  -7.7123  -7.7087
    -7.7011  -7.6938  -7.6863  -7.6739  -7.6643  -7.6567  -7.6509  -7.6474
    -7.6436  -7.6330  -7.6238  -7.6207  -7.6155  -7.6135  -7.6035  -7.5906
    -7.5873  -7.5821  -7.5698  -7.5602  -7.5544  -7.5518  -7.5468  -7.5456
    -7.5358  -7.5291  -7.5245  -7.5107  -7.5092  -7.5033  -7.4956  -7.4947
    -7.4794  -7.4633  -7.4525  -7.4434  -7.4339  -7.4217  -7.4155  -7.3949
    -7.3875  -7.3819  -7.3639  -7.3450  -7.3138  -7.2974  -7.2923  -7.2565
    -7.2403  -7.2361  -7.2212  -7.1905  -7.1725  -7.1557  -7.1395  -7.1114
    -7.0989  -7.0888  -7.0839  -7.0712  -7.0462  -7.0165  -7.0004  -6.9923
    -6.9761  -6.9567  -6.9348  -6.9191  -6.9050  -6.8864  -6.8666  -6.8637
    -6.8483  -6.8356  -6.7966  -6.7890  -6.7775  -6.7682  -6.7599  -6.7412
    -6.7361  -6.7138  -6.6912  -6.6780  -6.6540  -6.6372  -6.6233  -6.5612
    -6.5288  -6.4120  -6.3725  -6.1620  -6.1287  -6.0321  -5.9938  -5.8640
    -5.8265  -5.7978  -5.6824  -5.6441  -5.5227  -5.4188  -5.3575  -5.3010
    -5.0955  -5.0605  -4.9840

          k = 0.2500-0.3536 0.0000 (128397 PWs)   bands (ev):

   -94.7905 -94.7802 -94.7766 -94.7719 -94.7689 -94.7674 -94.7663 -94.7619
   -94.7595 -94.7593 -94.7483 -94.7448 -94.7438 -94.7418 -94.7418 -94.7391
   -94.7377 -94.7365 -94.7308 -94.7297 -94.7282 -94.7276 -94.7273 -94.7246
   -94.7193 -94.7191 -94.7170 -94.7151 -94.7128 -94.7116 -94.7055 -94.6956
   -94.6945 -94.6418 -94.6347 -94.6272 -94.6225 -94.6192 -94.6156 -94.6105
   -94.6076 -94.6053 -94.6033 -94.6010 -94.5984 -94.5979 -94.5938 -94.5937
   -94.5919 -94.5915 -94.5892 -94.5888 -94.5861 -94.5859 -94.5828 -94.5796
   -94.5777 -94.5756 -94.5686 -94.5648 -94.5535 -94.5505 -94.5468 -94.5435
   -60.9903 -60.9864 -60.9767 -60.9694 -60.9616 -60.9580 -60.9559 -60.9551
   -60.9512 -60.9487 -60.9466 -60.9441 -60.9348 -60.9322 -60.9300 -60.9271
   -60.9267 -60.9261 -60.9258 -60.9252 -60.9182 -60.9163 -60.9148 -60.9104
   -60.9087 -60.9063 -60.9041 -60.9032 -60.9008 -60.8943 -60.8903 -60.8898
   -60.8876 -60.8813 -60.8780 -60.8775 -60.8754 -60.8666 -60.8658 -60.8649
   -60.8632 -60.8598 -60.8590 -60.8485 -60.8458 -60.8450 -60.8397 -60.8279
   -60.8160 -60.8154 -60.8112 -60.8097 -60.8074 -60.8034 -60.7988 -60.7969
   -60.7958 -60.7917 -60.7899 -60.7858 -60.7835 -60.7816 -60.7793 -60.7781
   -60.7758 -60.7739 -60.7729 -60.7712 -60.7697 -60.7682 -60.7652 -60.7631
   -60.7582 -60.7572 -60.7542 -60.7507 -60.7469 -60.7446 -60.7402 -60.7353
   -60.7322 -60.7298 -60.7290 -60.7262 -60.7229 -60.7213 -60.7191 -60.7155
   -60.7148 -60.7093 -60.7078 -60.7060 -60.7016 -60.6999 -60.6968 -60.6936
   -60.6904 -60.6883 -60.6872 -60.6846 -60.6832 -60.6796 -60.6769 -60.6763
   -60.6698 -60.6650 -60.6640 -60.6628 -60.6625 -60.6611 -60.6596 -60.6573
   -60.6563 -60.6560 -60.6544 -60.6529 -60.6511 -60.6500 -60.6491 -60.6484
   -60.6439 -60.6421 -60.6384 -60.6369 -60.6356 -60.6345 -60.6325 -60.6291
   -60.6276 -60.6246 -60.6164 -60.6156 -60.6147 -60.6109 -60.6100 -60.6087
   -60.6057 -60.6052 -60.6013 -60.5976 -60.5973 -60.5943 -60.5941 -60.5888
   -60.5883 -60.5873 -60.5843 -60.5836 -60.5806 -60.5796 -60.5773 -60.5766
   -60.5745 -60.5703 -60.5698 -60.5687 -60.5659 -60.5622 -60.5602 -60.5596
   -60.5576 -60.5504 -60.5477 -60.5455 -60.5446 -60.5406 -60.5398 -60.5366
   -60.5324 -60.5285 -60.5261 -60.5254 -60.5209 -60.5172 -60.5166 -60.5142
   -60.5134 -60.5072 -60.5066 -60.5047 -60.5044 -60.5036 -60.5029 -60.5020
   -60.5002 -60.4998 -60.4989 -60.4948 -60.4941 -60.4919 -60.4915 -60.4863
   -23.8910 -15.0471 -14.3059 -13.8721 -13.6526 -13.5383 -13.2077 -12.6945
   -12.4794 -12.2086 -12.1594 -12.1462 -12.0646 -11.8680 -11.8564 -11.5485
   -11.4639 -11.3079 -11.2969 -11.2857 -11.2709 -11.2588 -11.2392 -11.2130
   -11.2040 -11.1829 -11.1356 -11.0843 -11.0738 -11.0404 -11.0235 -11.0132
   -10.9763 -10.9236 -10.8893 -10.8466 -10.8352 -10.8242 -10.8034 -10.7956
   -10.7788 -10.7620 -10.7605 -10.7333 -10.7060 -10.6788 -10.6590 -10.6467
   -10.6010 -10.5906 -10.5841 -10.5600 -10.5416 -10.5212 -10.4626 -10.4445
   -10.4074 -10.3795 -10.3762 -10.3515 -10.3413 -10.3408 -10.3325 -10.3249
   -10.3218 -10.2853 -10.2739 -10.2691 -10.2170 -10.2109 -10.1487 -10.1141
   -10.0349 -10.0224 -10.0125  -9.9989  -9.9676  -9.9326  -9.9287  -9.9009
[...]
    -5.1115  -5.1021  -5.0972  -5.0793  -5.0780  -5.0710  -5.0617  -5.0459
    -5.0251  -5.0173  -5.0140  -4.9945  -4.9927  -4.9734  -4.9727  -4.9550
    -4.9472  -4.9325  -4.9135  -4.9089  -4.9018  -4.8910  -4.8875  -4.8840
    -4.8687  -4.8595  -4.8510  -4.8451  -4.8382  -4.8312  -4.8167  -4.8123
    -4.8059  -4.7927  -4.7867  -4.7803  -4.7705  -4.7610  -4.7565  -4.7469
    -4.7313  -4.7098  -4.7021  -4.6859  -4.6835  -4.6747  -4.6669  -4.6589
    -4.6548  -4.6526  -4.6484  -4.6414  -4.6327  -4.6271  -4.6163  -4.6108
    -4.5995  -4.5922  -4.5873  -4.5684  -4.5637  -4.5533  -4.5435  -4.5387
    -4.5303  -4.5268  -4.5251  -4.5225  -4.5185  -4.5052  -4.4910  -4.4890
    -4.4835  -4.4700  -4.4519  -4.4485  -4.4456  -4.4369  -4.4298  -4.4161
    -4.4111  -4.3928  -4.3681  -4.3611  -4.3541  -4.3341  -4.3284  -4.3152
    -4.3103  -4.3046  -4.3018  -4.2956  -4.2884  -4.2751  -4.2470  -4.2373
    -4.2289  -4.2208  -4.2108  -4.2014  -4.1823  -4.1712  -4.1550  -4.1236
    -4.1131  -4.0324  -3.9860  -3.9629  -3.9268  -3.9000  -3.8216  -3.7911
    -3.7410  -3.6862  -3.6037

          k =-0.5000-0.3536 0.0000 (128560 PWs)   bands (ev):

   -92.0366 -92.0334 -91.8377 -91.8365 -91.7920 -91.7854 -91.7837 -91.7765
   -91.7625 -91.7620 -91.7542 -91.7530 -91.7451 -91.7432 -91.7391 -91.7365
   -91.7323 -91.7318 -91.7297 -91.7285 -91.7248 -91.7220 -91.7208 -91.7157
   -91.7154 -91.7145 -91.7134 -91.7124 -91.7105 -91.7061 -91.7055 -91.7030
   -91.7026 -91.6947 -91.6912 -91.6901 -91.6857 -91.6779 -91.6701 -91.6684
   -91.6674 -91.6657 -91.6640 -91.6632 -91.6605 -91.6591 -91.6586 -91.6490
   -91.6449 -91.6429 -91.6423 -91.6423 -91.6407 -91.6403 -91.6394 -91.6356
   -91.6346 -91.6323 -91.6310 -91.6253 -91.6212 -91.6180 -91.6167 -91.6131
   -58.3641 -58.3478 -58.1521 -58.1446 -58.0892 -58.0738 -58.0625 -58.0581
   -58.0478 -58.0458 -58.0337 -58.0318 -58.0313 -58.0277 -58.0271 -58.0238
   -58.0200 -58.0183 -58.0171 -58.0161 -58.0131 -58.0087 -58.0044 -58.0027
   -58.0021 -57.9996 -57.9987 -57.9971 -57.9917 -57.9881 -57.9849 -57.9789
   -57.9770 -57.9698 -57.9694 -57.9674 -57.9656 -57.9585 -57.9559 -57.9551
   -57.9539 -57.9475 -57.9437 -57.9432 -57.9429 -57.9411 -57.9398 -57.9365
   -57.9342 -57.9300 -57.9275 -57.9253 -57.9200 -57.9186 -57.9185 -57.9160
   -57.9125 -57.9123 -57.9122 -57.9094 -57.9075 -57.9067 -57.9045 -57.9020
   -57.8960 -57.8904 -57.8825 -57.8814 -57.8805 -57.8758 -57.8729 -57.8718
   -57.8650 -57.8613 -57.8606 -57.8540 -57.8510 -57.8459 -57.8458 -57.8375
   -57.8371 -57.8319 -57.8275 -57.8268 -57.8259 -57.8224 -57.8199 -57.8195
   -57.8177 -57.8166 -57.8121 -57.8115 -57.8087 -57.8075 -57.8054 -57.7977
   -57.7974 -57.7946 -57.7944 -57.7904 -57.7893 -57.7871 -57.7851 -57.7821
   -57.7753 -57.7729 -57.7709 -57.7696 -57.7679 -57.7673 -57.7656 -57.7626
   -57.7587 -57.7571 -57.7554 -57.7549 -57.7529 -57.7508 -57.7486 -57.7461
   -57.7461 -57.7450 -57.7450 -57.7422 -57.7412 -57.7411 -57.7353 -57.7334
   -57.7321 -57.7315 -57.7298 -57.7285 -57.7244 -57.7217 -57.7179 -57.7136
   -57.7125 -57.7094 -57.7090 -57.7072 -57.7071 -57.7055 -57.7052 -57.7032
   -57.7026 -57.7011 -57.7004 -57.6996 -57.6994 -57.6972 -57.6958 -57.6953
   -57.6922 -57.6904 -57.6873 -57.6858 -57.6844 -57.6830 -57.6827 -57.6812
   -57.6778 -57.6776 -57.6759 -57.6753 -57.6751 -57.6742 -57.6739 -57.6724
   -57.6710 -57.6706 -57.6697 -57.6678 -57.6676 -57.6667 -57.6639 -57.6622
   -57.6615 -57.6600 -57.6590 -57.6573 -57.6545 -57.6542 -57.6534 -57.6523
   -57.6494 -57.6490 -57.6483 -57.6468 -57.6466 -57.6441 -57.6415 -57.6404
   -23.8522 -14.8759 -13.8798 -13.7253 -13.4275 -13.1478 -13.1291 -12.7346
   -12.4177 -11.9449 -11.9274 -11.5484 -11.2067 -11.1409 -11.1348 -11.0787
   -10.7945 -10.7180 -10.4575 -10.2965 -10.2862 -10.2832 -10.2646 -10.2486
   -10.2207 -10.1693 -10.1636 -10.1571 -10.1550 -10.0640  -9.9154  -9.7406
    -9.7384  -9.7265  -9.7209  -9.6761  -9.6170  -9.5136  -9.4455  -9.2663
    -9.2503  -9.2316  -9.2176  -9.2126  -9.1661  -9.1632  -9.1351  -9.1280
    -9.1096  -9.0892  -9.0430  -8.9707  -8.9703  -8.9536  -8.9495  -8.9140
    -8.8662  -8.7068  -8.6913  -8.6834  -8.6811  -8.6718  -8.6298  -8.4575
    -8.4140  -8.4024  -8.3720  -8.3589  -8.3529  -8.2674  -8.2438  -8.1883
    -8.1755  -8.1740  -8.1576  -8.1564  -8.1532  -8.1438  -8.1404  -8.1401
    -8.1198  -8.0751  -8.0555  -8.0537  -8.0411  -8.0373  -8.0361  -8.0346
    -8.0300  -8.0162  -8.0149  -7.9539  -7.9224  -7.8335  -7.8140  -7.8011
    -7.7976  -7.7016  -7.6892  -7.6865  -7.6787  -7.6591  -7.6489  -7.6467
    -7.6343  -7.6327  -7.6178  -7.6128  -7.6126  -7.6047  -7.5990  -7.5950
    -7.5800  -7.5770  -7.5734  -7.5593  -7.5537  -7.5449  -7.5444  -7.5401
    -7.5365  -7.5290  -7.5262  -7.5183  -7.5111  -7.4881  -7.4841  -7.4776
    -7.4519  -7.4467  -7.4393  -7.4375  -7.4319  -7.4248  -7.4233  -7.4194
    -7.4162  -7.4144  -7.4087  -7.4014  -7.3663  -7.3487  -7.3261  -7.2403
    -7.2161  -7.1704  -7.1675  -7.1647  -7.1621  -7.1459  -7.1272  -7.1092
    -7.0968  -7.0925  -7.0614  -7.0250  -7.0021  -6.9913  -6.9815  -6.9728
    -6.9669  -6.9497  -6.9264  -6.9231  -6.9152  -6.9066  -6.8726  -6.8539
    -6.7578  -6.7366  -6.7231  -6.7216  -6.6745  -6.6676  -6.6571  -6.6484
    -6.6468  -6.6361  -6.6331  -6.6297  -6.6160  -6.6014  -6.5671  -6.5403
    -6.5270  -6.5270  -6.5173  -6.5036  -6.4703  -6.3034  -6.2416  -6.2289
    -6.1838  -6.1278  -6.1231  -6.0667  -6.0084  -5.9020  -5.8864  -5.8660
    -5.8585  -5.8429  -5.8043  -5.7892  -5.7658  -5.7333  -5.7171  -5.6946
    -5.6879  -5.6780  -5.6653  -5.6174  -5.6083  -5.5976  -5.5814  -5.5698
    -5.5605  -5.5250  -5.5103  -5.4867  -5.4730  -5.4704  -5.4614  -5.4319
    -5.4271  -5.3921  -5.3910  -5.3840  -5.3699  -5.3637  -5.3546  -5.3486
    -5.3381  -5.3294  -5.3281  -5.3223  -5.3186  -5.3020  -5.2679  -5.2618
    -5.2613  -5.2168  -5.1943  -5.1919  -5.1824  -5.1448  -5.1303  -5.1220
    -5.0909  -5.0695  -5.0589  -5.0360  -5.0136  -5.0092  -4.9643  -4.9627
    -4.9428  -4.9315  -4.9260  -4.9185  -4.9183  -4.9119  -4.9034  -4.9019
    -4.8996  -4.8967  -4.8945  -4.8882  -4.8709  -4.8647  -4.8645  -4.8578
    -4.8524  -4.8446  -4.8424  -4.8396  -4.8270  -4.7970  -4.7928  -4.7887
    -4.7749  -4.7749  -4.7715  -4.7658  -4.7586  -4.7564  -4.7537  -4.7372
    -4.7329  -4.7311  -4.7159  -4.7155  -4.7066  -4.6999  -4.6908  -4.6816
    -4.6744  -4.6741  -4.6697  -4.6692  -4.6663  -4.6653  -4.6386  -4.6327
    -4.6271  -4.6224  -4.5723  -4.5476  -4.5449  -4.5440  -4.5331  -4.5174
    -4.5146  -4.5136  -4.4966  -4.4910  -4.4858  -4.4845  -4.4802  -4.4795
    -4.4765  -4.4757  -4.4716  -4.4666  -4.4649  -4.4618  -4.4462  -4.4408
    -4.4374  -4.4222  -4.4160  -4.4155  -4.4092  -4.4023  -4.3985  -4.3965
    -4.3838  -4.3809  -4.3707  -4.3658  -4.3640  -4.3185  -4.2912  -4.2891
    -4.2882  -4.2846  -4.2811  -4.2663  -4.1456  -4.1063  -4.0870  -4.0584
    -3.9603  -3.9492  -3.8865  -3.8558  -3.8541  -3.8393  -3.8089  -3.7986
    -3.7926  -3.7642  -3.7605

     the Fermi energy is    -6.6056 ev

!    total energy              =  -21096.13840842 Ry
     Harris-Foulkes estimate   =  -21096.13840908 Ry
     estimated scf accuracy    <          2.8E-11 Ry

     The total energy is the sum of the following terms:

     one-electron contribution = -745819.02042071 Ry
     hartree contribution      =  372654.60011831 Ry
     xc contribution           =   -2235.81151440 Ry
     ewald contribution        =  359178.93605296 Ry
     Dispersion Correction     =      -1.40191306 Ry
     one-center paw contrib.   =   -4873.44162443 Ry
     smearing contrib. (-TS)   =       0.00089290 Ry

     total magnetization       =   161.24 Bohr mag/cell
     absolute magnetization    =   167.93 Bohr mag/cell

     convergence has been achieved in  13 iterations

     negative rho (up, down):  2.444E-02 2.043E-02

     Forces acting on atoms (cartesian axes, Ry/au):

     atom    1 type  1   force =     0.00045414   -0.00001440    0.00967530
     atom    2 type  1   force =    -0.00116063    0.00160538   -0.00555246
     atom    3 type  1   force =    -0.00008039    0.00013132    0.00983288
     atom    4 type  1   force =    -0.00010217    0.00025494   -0.01069396
     atom    5 type  1   force =    -0.00000814    0.00000608   -0.00003074
     atom    6 type  1   force =    -0.00002122    0.00002000   -0.00007146
     atom    7 type  1   force =     0.00002271    0.00000227   -0.00003728
     atom    8 type  1   force =     0.00002952    0.00003293   -0.00002041
     atom    9 type  1   force =    -0.00004192   -0.00002517    0.00985197
     atom   10 type  1   force =    -0.00020770   -0.00016750    0.00877347
     atom   11 type  1   force =     0.00019307   -0.00001539   -0.01095590
     atom   12 type  1   force =    -0.00031747   -0.00014293   -0.01005442
     atom   13 type  1   force =     0.00000165    0.00000176   -0.00005350
     atom   14 type  1   force =     0.00001971    0.00001326   -0.00009250
     atom   15 type  1   force =     0.00013029    0.00003333    0.00000599
     atom   16 type  1   force =     0.00003870    0.00002813   -0.00005523
     atom   17 type  1   force =     0.00014868   -0.00013676    0.00981712
     atom   18 type  1   force =     0.00024497   -0.00015218   -0.01068755
     atom   19 type  1   force =    -0.00000804    0.00001305    0.01001603
     atom   20 type  1   force =    -0.00010132   -0.00011858   -0.00624857
     atom   21 type  1   force =     0.00000613    0.00001779   -0.00003442
     atom   22 type  1   force =     0.00004034    0.00001173   -0.00002107
     atom   23 type  1   force =    -0.00001894    0.00000075   -0.00002694
     atom   24 type  1   force =    -0.00007128    0.00008174    0.00026294
     atom   25 type  1   force =     0.00000998   -0.00005100    0.00789781
     atom   26 type  1   force =     0.00005243   -0.00020414    0.00963477
     atom   27 type  1   force =    -0.00000698   -0.00009834   -0.01096877
     atom   28 type  1   force =     0.00016448   -0.00023010   -0.01020239
     atom   29 type  1   force =     0.00000288    0.00000094    0.00000984
     atom   30 type  1   force =    -0.00001550    0.00000170   -0.00005579
     atom   31 type  1   force =    -0.00010867   -0.00007687    0.00002014
     atom   32 type  1   force =    -0.00007721   -0.00011537    0.00001524
     atom   33 type  1   force =    -0.00027327   -0.00002788    0.00955885
     atom   34 type  1   force =     0.00031435   -0.00015030   -0.01070146
     atom   35 type  1   force =     0.00013695    0.00045820    0.00973258
     atom   36 type  1   force =     0.00103724   -0.00150510   -0.00554424
     atom   37 type  1   force =    -0.00000531    0.00000238   -0.00002600
     atom   38 type  1   force =    -0.00000734   -0.00002484   -0.00001260
     atom   39 type  1   force =     0.00000087   -0.00001222   -0.00002505
     atom   40 type  1   force =     0.00000251   -0.00003617   -0.00008101
     atom   41 type  1   force =     0.00002498    0.00008719    0.00697180
     atom   42 type  1   force =    -0.00019031    0.00013440    0.00960135
     atom   43 type  1   force =    -0.00000273    0.00009091   -0.00945028
     atom   44 type  1   force =    -0.00019608    0.00021454   -0.01017889
     atom   45 type  1   force =    -0.00000160    0.00000013   -0.00003350
     atom   46 type  1   force =    -0.00000273   -0.00001495   -0.00005491
     atom   47 type  1   force =    -0.00004617   -0.00004044   -0.00000975
     atom   48 type  1   force =    -0.00013607   -0.00003817    0.00000922
     atom   49 type  1   force =     0.00006502   -0.00003650    0.01004651
     atom   50 type  1   force =    -0.00007585   -0.00014876   -0.00622194
     atom   51 type  1   force =    -0.00013125   -0.00021227    0.00950926
     atom   52 type  1   force =    -0.00001935    0.00038589   -0.01071440
     atom   53 type  1   force =    -0.00000160   -0.00001981   -0.00003073
     atom   54 type  1   force =     0.00006136   -0.00009162    0.00026440
     atom   55 type  1   force =     0.00000385   -0.00000433   -0.00002204
     atom   56 type  1   force =    -0.00002902   -0.00000113   -0.00000929
     atom   57 type  1   force =    -0.00007483   -0.00002362    0.00986204
     atom   58 type  1   force =     0.00007924    0.00002064    0.00870562
     atom   59 type  1   force =     0.00006073    0.00019886   -0.01094933
     atom   60 type  1   force =     0.00008176   -0.00003856   -0.01081859
     atom   61 type  1   force =     0.00000059    0.00000013   -0.00005350
     atom   62 type  1   force =    -0.00001828   -0.00001060   -0.00007305
     atom   63 type  1   force =     0.00007647    0.00010987   -0.00000255
     atom   64 type  1   force =     0.00009895    0.00006889    0.00001715
     atom   65 type  2   force =    -0.00002928   -0.00002137    0.00006079
     atom   66 type  3   force =    -0.00003051   -0.00003958    0.00007001
     atom   67 type  3   force =     0.00000622    0.00001902    0.00004956
     atom   68 type  3   force =     0.00000837   -0.00000116   -0.00006543

     Total force =     0.000598     Total SCF correction =     0.000049

     bfgs converged in   9 scf cycles and   8 bfgs steps
     (criteria: energy <  7.3E-07 Ry, force <  3.9E-04 Ry/Bohr)

     End of BFGS Geometry Optimization

     Final energy   =  -21096.1384084187 Ry
Begin final coordinates

ATOMIC_POSITIONS (angstrom)
Fe       1.654912953   1.170200133   0.000000000    0   0   0
Fe       0.000000000   0.000000000   2.026984232    0   0   0
Fe       4.964738858   3.510600399   0.000000000    0   0   0
Fe       3.309825906   2.340400266   2.026984232    0   0   0
Fe       1.650141956   1.168512070   4.022266909
Fe       3.308002933   9.373618884   6.012785980
Fe       4.961903616   3.517002090   4.012894915
Fe       3.309220754   2.330373075   5.998325399
Fe       2.482363858   3.510600399   0.000000000    0   0   0
Fe       4.137287953   1.170200133   0.000000000    0   0   0
Fe       0.827450906   2.340400266   2.026984232    0   0   0
Fe       2.482375000   0.000000000   2.026984232    0   0   0
Fe       2.482643342   3.509643718   4.027953365
Fe       4.131051492   1.165889566   4.019104933
Fe       0.817103866   2.344385287   5.990858235
Fe       2.481240495  -0.000711117   6.002339702
Fe       6.619662953   1.170200133   0.000000000    0   0   0
Fe       4.964750000   0.000000000   2.026984232    0   0   0
Fe       9.929488858   3.510600399   0.000000000    0   0   0
Fe       8.274575906   2.340400266   2.026984232    0   0   0
Fe       6.624802882   1.165355752   4.012882222
Fe       4.955117745   0.002779359   5.997801082
Fe       9.932112065   3.503070118   4.011180317
Fe       8.282985442   2.328798391   6.089440300
Fe       7.447113858   3.510600399   0.000000000    0   0   0
Fe       9.102037953   1.170200133   0.000000000    0   0   0
Fe       5.792200906   2.340400266   2.026984232    0   0   0
Fe       7.447125000   0.000000000   2.026984232    0   0   0
Fe       7.446897793   3.510237290   4.044322261
Fe       9.094172120   1.179365929   4.054454485
Fe       5.751935846   2.311885372   5.931890818
Fe      10.762271371   9.375839971   5.990647973
Fe       3.309814764   5.851000664   0.000000000    0   0   0
Fe       1.654901811   4.680800531   2.026984232    0   0   0
Fe       6.619640670   8.191400930   0.000000000    0   0   0
Fe       4.964727717   7.021200797   2.026984232    0   0   0
Fe       3.315097430   5.853477695   4.027028988
Fe      11.585872685   4.681998025   5.992658464
Fe       6.616374657   8.187784898   4.022189685
Fe       4.975273207   7.015974134   6.012515678
Fe       4.137265670   8.191400930   0.000000000    0   0   0
Fe       5.792189764   5.851000664   0.000000000    0   0   0
Fe       2.482352717   7.021200797   2.026984232    0   0   0
Fe       4.137276811   4.680800531   2.026984232    0   0   0
Fe       4.135511458   8.190586028   4.024593838
Fe       5.798107401   5.840758628   4.054289650
Fe      12.401501430   7.013933729   6.013909188
Fe       4.152404849   4.681203827   5.990718106
Fe       8.274564764   5.851000664   0.000000000    0   0   0
Fe       6.619651811   4.680800531   2.026984232    0   0   0
Fe      11.584390670   8.191400930   0.000000000    0   0   0
Fe       9.929477717   7.021200797   2.026984232    0   0   0
Fe       8.268446034   5.855897199   4.011150451
Fe       6.611776077   4.691906495   6.089132906
Fe      11.588345354   8.195821586   4.027131831
Fe       9.931300216   7.022143589   5.993325135
Fe       9.102015670   8.191400930   0.000000000    0   0   0
Fe      10.756939764   5.851000664   0.000000000    0   0   0
Fe       7.447102717   7.021200797   2.026984232    0   0   0
Fe       9.102026811   4.680800531   2.026984232    0   0   0
Fe       9.101390537   8.192030953   4.028026919
Fe      10.762801285   5.855206356   4.016850699
Fe       7.447420338   7.010060230   5.990893880
Fe       9.143775428   4.710247491   5.931437143
N        7.447365103   3.510579575   7.473500465
H        8.106772844   3.977755920   8.112545708
H        6.788539158   3.044186998   8.113712404
H        4.544297661   8.479491428   6.936483539
End final coordinates



     Writing output data file Fe_NH2_H_paper_480c_ESM_pn25.save/

     init_run     :     86.20s CPU     87.96s WALL (       1 calls)
     electrons    :  65153.93s CPU  65770.26s WALL (       9 calls)
     update_pot   :    149.58s CPU    150.11s WALL (       8 calls)
     forces       :    406.26s CPU    410.72s WALL (       9 calls)

     Called by init_run:
     wfcinit      :     58.65s CPU     60.17s WALL (       1 calls)
     potinit      :      9.29s CPU      9.34s WALL (       1 calls)
     hinit0       :     14.68s CPU     14.74s WALL (       1 calls)

     Called by electrons:
     c_bands      :  60433.13s CPU  60982.30s WALL (     166 calls)
     sum_band     :   2640.71s CPU   2683.31s WALL (     166 calls)
     v_of_rho     :    272.64s CPU    274.96s WALL (     167 calls)
     newd         :     49.49s CPU     51.65s WALL (     167 calls)
     PAW_pot      :     83.77s CPU     84.87s WALL (     175 calls)
     mix_rho      :   1601.97s CPU   1616.90s WALL (     166 calls)

     Called by c_bands:
     init_us_2    :     80.38s CPU     86.50s WALL (    1050 calls)
     cegterg      :  46995.01s CPU  47423.49s WALL (     502 calls)

     Called by sum_band:
     sum_band:bec :      5.92s CPU      5.95s WALL (     522 calls)
     addusdens    :     58.74s CPU     62.22s WALL (     166 calls)

     Called by *egterg:
     h_psi        :  12977.79s CPU  13104.12s WALL (    4818 calls)
     s_psi        :   2724.92s CPU   2731.99s WALL (    4818 calls)
     g_psi        :     35.68s CPU     35.90s WALL (    4313 calls)
     cdiaghg      :  19984.78s CPU  20085.16s WALL (    4767 calls)

     Called by h_psi:
     h_psi:pot    :  12949.82s CPU  13039.42s WALL (    4818 calls)
     h_psi:calbec :   2752.80s CPU   2766.30s WALL (    4818 calls)
     vloc_psi     :   7461.65s CPU   7528.00s WALL (    4818 calls)
     add_vuspsi   :   2735.32s CPU   2745.08s WALL (    4818 calls)

     General routines
     calbec       :   3895.26s CPU   3910.83s WALL (    5448 calls)
     fft          :    176.09s CPU    178.03s WALL (    4316 calls)
     ffts         :    813.37s CPU    819.02s WALL (   99601 calls)
     fftw         :   7018.93s CPU   7082.84s WALL ( 2073492 calls)
     interpolate  :     17.09s CPU     17.24s WALL (     334 calls)
     davcio       :      0.76s CPU     95.42s WALL (    4119 calls)

     Parallel routines
     fft_scatt_xy :   1467.69s CPU   1475.53s WALL ( 2177409 calls)
     fft_scatt_yz :   1953.51s CPU   1986.69s WALL ( 2177409 calls)

     PWSCF        :     18h18m CPU     18h28m WALL


   This run was terminated on:  15:31:38  13Jun2022            

=------------------------------------------------------------------------------=
   JOB DONE.
=------------------------------------------------------------------------------=
