
     Program PHONON v.6.4.1 starts on 20Sep2022 at 23:22:43 

     This program is part of the open-source Quantum ESPRESSO suite
     for quantum simulation of materials; please cite
         "P. Giannozzi et al., J. Phys.:Condens. Matter 21 395502 (2009);
         "P. Giannozzi et al., J. Phys.:Condens. Matter 29 465901 (2017);
          URL http://www.quantum-espresso.org", 
     in publications or presentations arising from this work. More details at
     http://www.quantum-espresso.org/quote

     Parallel version (MPI), running on   120 processors

     MPI processes distributed on     6 nodes
     K-points division:     npool     =       8
     R & G space division:  proc/nbgrp/npool/nimage =      15

     Reading data from directory:
     ./NH.save/

     IMPORTANT: XC functional enforced from input :
     Exchange-correlation      = PBE ( 1  4  3  4 0 0)
     Any further DFT definition will be discarded
     Please, verify this is what you really want


     Parallelization info
     --------------------
     sticks:   dense  smooth     PW     G-vecs:    dense   smooth      PW
     Min        3636    1818    468               639190   225950   29545
     Max        3637    1819    470               639197   225953   29547
     Sum       54553   27281   7033              9587919  3389267  443191

     Generating pointlists ...
     new r_m :   0.0217 (alat units)  0.8186 (a.u.) for type    1
     new r_m :   0.0217 (alat units)  0.8186 (a.u.) for type    2

     negative rho (up, down):  3.059E-04 1.522E-01

     Calculation of q =    0.0000000   0.0000000   0.0000000

     phonons (vibrational modes) for NH                                         

     bravais-lattice index     =            0
     lattice parameter (alat)  =      37.7945  a.u.
     unit-cell volume          =   53986.6767 (a.u.)^3
     number of atoms/cell      =            2
     number of atomic types    =            2
     kinetic-energy cut-off    =      60.0000  Ry
     charge density cut-off    =     480.0000  Ry
     convergence threshold     =      1.0E-12
     beta                      =       0.7000
     number of iterations used =            4
     Exchange-correlation      = PBE ( 1  4  3  4 0 0)


     celldm(1)=   37.79452  celldm(2)=    0.00000  celldm(3)=    0.00000
     celldm(4)=    0.00000  celldm(5)=    0.00000  celldm(6)=    0.00000

     crystal axes: (cart. coord. in units of alat)
               a(1) = (  1.0000  0.0000  0.0000 )  
               a(2) = (  0.0000  1.0000  0.0000 )  
               a(3) = (  0.0000  0.0000  1.0000 )  

     reciprocal axes: (cart. coord. in units 2 pi/alat)
               b(1) = (  1.0000  0.0000  0.0000 )  
               b(2) = (  0.0000  1.0000  0.0000 )  
               b(3) = (  0.0000  0.0000  1.0000 )  


     Atoms inside the unit cell: 

     Cartesian axes

     site n.  atom      mass           positions (alat units)
        1     N   14.0067   tau(    1) = (    0.50000    0.50000    0.50650  )
        2     H    1.0078   tau(    2) = (    0.50000    0.50000    0.45399  )

     Computing dynamical matrix for 
                    q = (   0.0000000   0.0000000   0.0000000 )

      2 Sym.Ops. (with q -> -q+G )


     G cutoff =17367.5769  ( 639197 G-vectors)     FFT grid: (270,270,270)
     G cutoff = 8683.7884  ( 225950 G-vectors)  smooth grid: (192,192,192)

     number of k points=    20  mp smearing, width (Ry)=  0.0100
                       cart. coord. in units 2pi/alat
        k(    1) = (   0.0000000   0.0000000   0.0000000), wk =   0.0625000
        k(    2) = (   0.0000000   0.2500000   0.0000000), wk =   0.1250000
        k(    3) = (   0.0000000  -0.5000000   0.0000000), wk =   0.0625000
        k(    4) = (   0.2500000   0.0000000   0.0000000), wk =   0.1250000
        k(    5) = (   0.2500000   0.2500000   0.0000000), wk =   0.1250000
        k(    6) = (   0.2500000  -0.5000000   0.0000000), wk =   0.1250000
        k(    7) = (   0.2500000  -0.2500000   0.0000000), wk =   0.1250000
        k(    8) = (  -0.5000000   0.0000000   0.0000000), wk =   0.0625000
        k(    9) = (  -0.5000000   0.2500000   0.0000000), wk =   0.1250000
        k(   10) = (  -0.5000000  -0.5000000   0.0000000), wk =   0.0625000
        k(   11) = (   0.0000000   0.0000000   0.0000000), wk =   0.0625000
        k(   12) = (   0.0000000   0.2500000   0.0000000), wk =   0.1250000
        k(   13) = (   0.0000000  -0.5000000   0.0000000), wk =   0.0625000
        k(   14) = (   0.2500000   0.0000000   0.0000000), wk =   0.1250000
        k(   15) = (   0.2500000   0.2500000   0.0000000), wk =   0.1250000
        k(   16) = (   0.2500000  -0.5000000   0.0000000), wk =   0.1250000
        k(   17) = (   0.2500000  -0.2500000   0.0000000), wk =   0.1250000
        k(   18) = (  -0.5000000   0.0000000   0.0000000), wk =   0.0625000
        k(   19) = (  -0.5000000   0.2500000   0.0000000), wk =   0.1250000
        k(   20) = (  -0.5000000  -0.5000000   0.0000000), wk =   0.0625000

     PseudoPot. # 1 for N  read from file:
     ../../SSSP/N.pbe-n-radius_5.UPF
     MD5 check sum: 16739722b17309cd8fe442a2ace49922
     Pseudo is Ultrasoft + core correction, Zval =  5.0
     Generated using "atomic" code by A. Dal Corso v.5.1
     Using radial grid of 1085 points,  4 beta functions with: 
                l(1) =   0
                l(2) =   0
                l(3) =   1
                l(4) =   1
     Q(r) pseudized with 0 coefficients 


     PseudoPot. # 2 for H  read from file:
     ../../SSSP/H.pbe-rrkjus_psl.1.0.0.UPF
     MD5 check sum: f52b6d4d1c606e5624b1dc7b2218f220
     Pseudo is Ultrasoft, Zval =  1.0
     Generated using "atomic" code by A. Dal Corso v.5.1
     Using radial grid of  929 points,  2 beta functions with: 
                l(1) =   0
                l(2) =   0
     Q(r) pseudized with 0 coefficients 


     Mode symmetry, C_1 (1)     point group:


     Atomic displacements:
     There are   6 irreducible representations

     Representation     1      1 modes -A  To be done

     Representation     2      1 modes -A  To be done

     Representation     3      1 modes -A  To be done

     Representation     4      1 modes -A  To be done

     Representation     5      1 modes -A  To be done

     Representation     6      1 modes -A  To be done



     Alpha used in Ewald sum =   2.8000

     -------------------------------------------------
     Parameters for Dispersion (Grimme-D2) Correction:
     -------------------------------------------------
       atom      VdW radius       C_6     

        N          2.640         42.670
        H          1.892          4.857

     negative rho (up, down):  3.059E-04 1.522E-01
     PHONON       :   2m31.45s CPU   2m36.54s WALL



     Representation #  1 mode #   1

     Self-consistent Calculation

     Pert. #  1: Fermi energy shift (Ry) =     6.2606E+73     0.0000E+00

      iter #   1 total cpu time :   189.6 secs   av.it.:   7.7
      thresh= 1.000E-02 alpha_mix =  0.700 |ddv_scf|^2 =  5.147E-09

     Pert. #  1: Fermi energy shift (Ry) =    -5.9340E+73     0.0000E+00

      iter #   2 total cpu time :   225.8 secs   av.it.:  15.2
      thresh= 7.174E-06 alpha_mix =  0.700 |ddv_scf|^2 =  1.390E-09

     Pert. #  1: Fermi energy shift (Ry) =    -3.5686E+73     0.0000E+00

      iter #   3 total cpu time :   261.9 secs   av.it.:  14.2
      thresh= 3.729E-06 alpha_mix =  0.700 |ddv_scf|^2 =  1.252E-11

     Pert. #  1: Fermi energy shift (Ry) =    -5.5667E+73     0.0000E+00

      iter #   4 total cpu time :   300.3 secs   av.it.:  16.1
      thresh= 3.538E-07 alpha_mix =  0.700 |ddv_scf|^2 =  1.245E-12

     Pert. #  1: Fermi energy shift (Ry) =    -5.3203E+73     0.0000E+00

      iter #   5 total cpu time :   335.9 secs   av.it.:  15.0
      thresh= 1.116E-07 alpha_mix =  0.700 |ddv_scf|^2 =  4.130E-14

     End of self-consistent calculation

     Convergence has been achieved 


     Representation #  2 mode #   2

     Self-consistent Calculation

     Pert. #  1: Fermi energy shift (Ry) =     5.7979E+74     0.0000E+00

      iter #   1 total cpu time :   379.2 secs   av.it.:   7.7
      thresh= 1.000E-02 alpha_mix =  0.700 |ddv_scf|^2 =  5.148E-09

     Pert. #  1: Fermi energy shift (Ry) =     5.0234E+73     0.0000E+00

      iter #   2 total cpu time :   415.3 secs   av.it.:  15.2
      thresh= 7.175E-06 alpha_mix =  0.700 |ddv_scf|^2 =  1.391E-09

     Pert. #  1: Fermi energy shift (Ry) =     1.1731E+74     0.0000E+00

      iter #   3 total cpu time :   451.7 secs   av.it.:  14.2
      thresh= 3.729E-06 alpha_mix =  0.700 |ddv_scf|^2 =  1.253E-11

     Pert. #  1: Fermi energy shift (Ry) =     9.6594E+73     0.0000E+00

      iter #   4 total cpu time :   488.4 secs   av.it.:  16.1
      thresh= 3.540E-07 alpha_mix =  0.700 |ddv_scf|^2 =  1.245E-12

     Pert. #  1: Fermi energy shift (Ry) =     9.7661E+73     0.0000E+00

      iter #   5 total cpu time :   523.8 secs   av.it.:  15.0
      thresh= 1.116E-07 alpha_mix =  0.700 |ddv_scf|^2 =  4.130E-14

     End of self-consistent calculation

     Convergence has been achieved 


     Representation #  3 mode #   3

     Self-consistent Calculation

     Pert. #  1: Fermi energy shift (Ry) =     7.5060E+78     0.0000E+00

      iter #   1 total cpu time :   565.9 secs   av.it.:   7.0
      thresh= 1.000E-02 alpha_mix =  0.700 |ddv_scf|^2 =  1.024E-08

     Pert. #  1: Fermi energy shift (Ry) =    -2.0788E+75     0.0000E+00

      iter #   2 total cpu time :   602.1 secs   av.it.:  14.6
      thresh= 1.012E-05 alpha_mix =  0.700 |ddv_scf|^2 =  1.736E-09

     Pert. #  1: Fermi energy shift (Ry) =     6.3766E+75     0.0000E+00

      iter #   3 total cpu time :   638.0 secs   av.it.:  15.0
      thresh= 4.166E-06 alpha_mix =  0.700 |ddv_scf|^2 =  9.079E-10

     Pert. #  1: Fermi energy shift (Ry) =     1.9584E+75     0.0000E+00

      iter #   4 total cpu time :   673.4 secs   av.it.:  14.5
      thresh= 3.013E-06 alpha_mix =  0.700 |ddv_scf|^2 =  1.924E-11

     Pert. #  1: Fermi energy shift (Ry) =     1.9951E+75     0.0000E+00

      iter #   5 total cpu time :   709.0 secs   av.it.:  15.5
      thresh= 4.387E-07 alpha_mix =  0.700 |ddv_scf|^2 =  3.621E-12

     Pert. #  1: Fermi energy shift (Ry) =     2.2689E+75     0.0000E+00

      iter #   6 total cpu time :   743.6 secs   av.it.:  14.5
      thresh= 1.903E-07 alpha_mix =  0.700 |ddv_scf|^2 =  6.684E-15

     End of self-consistent calculation

     Convergence has been achieved 


     Representation #  4 mode #   4

     Self-consistent Calculation

     Pert. #  1: Fermi energy shift (Ry) =    -3.0770E+71     0.0000E+00

      iter #   1 total cpu time :   783.2 secs   av.it.:   6.0
      thresh= 1.000E-02 alpha_mix =  0.700 |ddv_scf|^2 =  3.431E-10

     Pert. #  1: Fermi energy shift (Ry) =    -6.9278E+72     0.0000E+00

      iter #   2 total cpu time :   818.4 secs   av.it.:  14.2
      thresh= 1.852E-06 alpha_mix =  0.700 |ddv_scf|^2 =  3.930E-11

     Pert. #  1: Fermi energy shift (Ry) =    -3.0778E+72     0.0000E+00

      iter #   3 total cpu time :   852.6 secs   av.it.:  13.7
      thresh= 6.269E-07 alpha_mix =  0.700 |ddv_scf|^2 =  4.586E-13

     End of self-consistent calculation

     Convergence has been achieved 


     Representation #  5 mode #   5

     Self-consistent Calculation

     Pert. #  1: Fermi energy shift (Ry) =     3.0819E+73     0.0000E+00

      iter #   1 total cpu time :   892.5 secs   av.it.:   6.0
      thresh= 1.000E-02 alpha_mix =  0.700 |ddv_scf|^2 =  3.430E-10

     Pert. #  1: Fermi energy shift (Ry) =     2.1665E+73     0.0000E+00

      iter #   2 total cpu time :   927.5 secs   av.it.:  14.2
      thresh= 1.852E-06 alpha_mix =  0.700 |ddv_scf|^2 =  3.930E-11

     Pert. #  1: Fermi energy shift (Ry) =     2.3505E+73     0.0000E+00

      iter #   3 total cpu time :   961.8 secs   av.it.:  13.7
      thresh= 6.269E-07 alpha_mix =  0.700 |ddv_scf|^2 =  4.586E-13

     End of self-consistent calculation

     Convergence has been achieved 


     Representation #  6 mode #   6

     Self-consistent Calculation

     Pert. #  1: Fermi energy shift (Ry) =    -7.1614E+77     0.0000E+00

      iter #   1 total cpu time :  1001.7 secs   av.it.:   6.0
      thresh= 1.000E-02 alpha_mix =  0.700 |ddv_scf|^2 =  1.105E-09

     Pert. #  1: Fermi energy shift (Ry) =    -1.3929E+75     0.0000E+00

      iter #   2 total cpu time :  1036.8 secs   av.it.:  14.9
      thresh= 3.324E-06 alpha_mix =  0.700 |ddv_scf|^2 =  4.886E-10

     Pert. #  1: Fermi energy shift (Ry) =     2.3947E+75     0.0000E+00

      iter #   3 total cpu time :  1073.3 secs   av.it.:  14.5
      thresh= 2.210E-06 alpha_mix =  0.700 |ddv_scf|^2 =  1.486E-11

     Pert. #  1: Fermi energy shift (Ry) =     1.6146E+75     0.0000E+00

      iter #   4 total cpu time :  1106.9 secs   av.it.:  14.3
      thresh= 3.855E-07 alpha_mix =  0.700 |ddv_scf|^2 =  3.889E-13

     End of self-consistent calculation

     Convergence has been achieved 

     Number of q in the star =    1
     List of q in the star:
          1   0.000000000   0.000000000   0.000000000

     Diagonalizing the dynamical matrix

     q = (    0.000000000   0.000000000   0.000000000 ) 

 **************************************************************************
     freq (    1) =     -15.992517 [THz] =    -533.452959 [cm-1]
     freq (    2) =     -15.991998 [THz] =    -533.435634 [cm-1]
     freq (    3) =       3.880665 [THz] =     129.445065 [cm-1]
     freq (    4) =      14.954315 [THz] =     498.822240 [cm-1]
     freq (    5) =      14.954502 [THz] =     498.828481 [cm-1]
     freq (    6) =      95.664843 [THz] =    3191.035670 [cm-1]
 **************************************************************************

     Mode symmetry, C_1 (1)     point group:

     freq (  1 -  1) =       -533.5  [cm-1]   --> A               I+R
     freq (  2 -  2) =       -533.4  [cm-1]   --> A               I+R
     freq (  3 -  3) =        129.4  [cm-1]   --> A               I+R
     freq (  4 -  4) =        498.8  [cm-1]   --> A               I+R
     freq (  5 -  5) =        498.8  [cm-1]   --> A               I+R
     freq (  6 -  6) =       3191.0  [cm-1]   --> A               I+R

     PHONON       :  17m17.58s CPU  18m37.18s WALL

     INITIALIZATION: 
     phq_setup    :      5.06s CPU      5.36s WALL (       1 calls)
     phq_init     :    129.57s CPU    131.74s WALL (       1 calls)

     phq_init     :    129.57s CPU    131.74s WALL (       1 calls)
     set_drhoc    :     46.79s CPU     46.81s WALL (       3 calls)
     init_vloc    :      0.64s CPU      0.64s WALL (       1 calls)
     init_us_1    :      0.19s CPU      0.21s WALL (       1 calls)
     newd         :      0.55s CPU      0.57s WALL (       1 calls)
     dvanqq       :     24.57s CPU     24.71s WALL (       1 calls)
     drho         :     21.19s CPU     22.85s WALL (       1 calls)

     DYNAMICAL MATRIX:
     dynmat0      :     43.12s CPU     43.47s WALL (       1 calls)
     phqscf       :    885.84s CPU    959.31s WALL (       1 calls)
     dynmatrix    :      0.29s CPU      0.49s WALL (       1 calls)

     phqscf       :    885.84s CPU    959.31s WALL (       1 calls)
     solve_linter :    880.78s CPU    951.21s WALL (       6 calls)
     drhodv       :      4.70s CPU      4.79s WALL (       6 calls)

     dynmat0      :     43.12s CPU     43.47s WALL (       1 calls)
     dynmat_us    :      1.57s CPU      1.60s WALL (       1 calls)
     d2ionq       :      0.35s CPU      0.35s WALL (       1 calls)
     dynmatcc     :     35.79s CPU     36.07s WALL (       1 calls)

     dynmat_us    :      1.57s CPU      1.60s WALL (       1 calls)
     addusdynmat  :      0.00s CPU      0.00s WALL (       1 calls)

     phqscf       :    885.84s CPU    959.31s WALL (       1 calls)
     solve_linter :    880.78s CPU    951.21s WALL (       6 calls)

     solve_linter :    880.78s CPU    951.21s WALL (       6 calls)
     dvqpsi_us    :      8.23s CPU      8.31s WALL (      18 calls)
     ortho        :      0.96s CPU      0.97s WALL (      78 calls)
     cgsolve      :    271.11s CPU    272.97s WALL (      78 calls)
     incdrhoscf   :     19.77s CPU     19.93s WALL (      78 calls)
     addusddens   :     63.78s CPU     68.25s WALL (      32 calls)
     vpsifft      :     12.99s CPU     13.11s WALL (      60 calls)
     dv_of_drho   :    125.43s CPU    135.57s WALL (      26 calls)
     mix_pot      :      8.15s CPU     23.91s WALL (      26 calls)
     ef_shift     :     17.84s CPU     18.09s WALL (      32 calls)
     localdos     :     24.69s CPU     25.49s WALL (       6 calls)
     psymdvscf    :    149.43s CPU    163.99s WALL (      26 calls)
     newdq        :     48.76s CPU     51.72s WALL (      26 calls)
     adddvscf     :      0.50s CPU      0.50s WALL (      60 calls)
     drhodvus     :      2.05s CPU      5.07s WALL (       6 calls)

     dvqpsi_us    :      8.23s CPU      8.31s WALL (      18 calls)
     dvqpsi_us_on :      0.23s CPU      0.23s WALL (      18 calls)

     cgsolve      :    271.11s CPU    272.97s WALL (      78 calls)
     ch_psi       :    262.37s CPU    264.05s WALL (    1313 calls)

     ch_psi       :    262.37s CPU    264.05s WALL (    1313 calls)
     h_psi        :    241.73s CPU    243.24s WALL (    1313 calls)
     last         :     14.42s CPU     14.55s WALL (    1313 calls)

     h_psi        :    241.73s CPU    243.24s WALL (    1313 calls)
     add_vuspsi   :      2.88s CPU      2.89s WALL (    1313 calls)

     incdrhoscf   :     19.77s CPU     19.93s WALL (      78 calls)
     addusdbec    :      0.42s CPU      0.42s WALL (      96 calls)

     drhodvus     :      2.05s CPU      5.07s WALL (       6 calls)

      General routines
     calbec       :     10.13s CPU     10.22s WALL (    2920 calls)
     fft          :    193.76s CPU    197.68s WALL (    1119 calls)
     ffts         :     15.50s CPU     15.67s WALL (     262 calls)
     fftw         :    223.53s CPU    225.03s WALL (   10051 calls)
     davcio       :      0.09s CPU     19.09s WALL (     586 calls)
     write_rec    :      0.62s CPU     13.64s WALL (      32 calls)


     PHONON       :  17m17.58s CPU  18m37.23s WALL


   This run was terminated on:  23:41:20  20Sep2022            

=------------------------------------------------------------------------------=
   JOB DONE.
=------------------------------------------------------------------------------=
