
     Program PHONON v.6.7MaX starts on 29Sep2022 at  0:51:46 

     This program is part of the open-source Quantum ESPRESSO suite
     for quantum simulation of materials; please cite
         "P. Giannozzi et al., J. Phys.:Condens. Matter 21 395502 (2009);
         "P. Giannozzi et al., J. Phys.:Condens. Matter 29 465901 (2017);
          URL http://www.quantum-espresso.org", 
     in publications or presentations arising from this work. More details at
     http://www.quantum-espresso.org/quote

     Parallel version (MPI), running on   120 processors

     MPI processes distributed on     1 nodes
     K-points division:     npool     =       8
     R & G space division:  proc/nbgrp/npool/nimage =      15
     Waiting for input...
     Reading input from standard input

     Reading xml data from directory:

     ./NH2_ESM_VA16.save/

     IMPORTANT: XC functional enforced from input :
     Exchange-correlation= PBE
                           (   1   4   3   4   0   0   0)
     Any further DFT definition will be discarded
     Please, verify this is what you really want


     Parallelization info
     --------------------
     sticks:   dense  smooth     PW     G-vecs:    dense   smooth      PW
     Min        3636    1818    468               639190   225950   29545
     Max        3637    1819    470               639197   225953   29547
     Sum       54553   27281   7033              9587919  3389267  443191


     Adding external electric field
        E field amplitude [Ha a.u.]: -3.1525E-02
        Potential amp.       -2.1446 Ry
        Total length         34.0151 bohr


     negative rho (up, down):  2.460E-04 1.739E-04
     Reading collected, re-writing distributed wavefunctions

     Calculation of q =    0.0000000   0.0000000   0.0000000

     phonons (vibrational modes) for NH2                                        

     bravais-lattice index     =            0
     lattice parameter (alat)  =      37.7945  a.u.
     unit-cell volume          =   53986.6760 (a.u.)^3
     number of atoms/cell      =            3
     number of atomic types    =            2
     kinetic-energy cut-off    =      60.0000  Ry
     charge density cut-off    =     480.0000  Ry
     convergence threshold     =      1.0E-12
     beta                      =       0.7000
     number of iterations used =            4
     Exchange-correlation= PBE
                           (   1   4   3   4   0   0   0)


     celldm(1)=   37.79452  celldm(2)=    0.00000  celldm(3)=    0.00000
     celldm(4)=    0.00000  celldm(5)=    0.00000  celldm(6)=    0.00000

     crystal axes: (cart. coord. in units of alat)
               a(1) = (  1.0000  0.0000  0.0000 )  
               a(2) = (  0.0000  1.0000  0.0000 )  
               a(3) = (  0.0000  0.0000  1.0000 )  

     reciprocal axes: (cart. coord. in units 2 pi/alat)
               b(1) = (  1.0000  0.0000  0.0000 )  
               b(2) = (  0.0000  1.0000  0.0000 )  
               b(3) = (  0.0000  0.0000  1.0000 )  


     Atoms inside the unit cell: 

     Cartesian axes

     site n.  atom      mass           positions (alat units)
        1     N   14.0067   tau(    1) = (    0.50000    0.50000    0.00000  )
        2     H    1.0078   tau(    2) = (    0.50000    0.53974   -0.03329  )
        3     H    1.0078   tau(    3) = (    0.50000    0.46026   -0.03329  )

     Computing dynamical matrix for 
                    q = (   0.0000000   0.0000000   0.0000000 )

      2 Sym.Ops. (with q -> -q+G )


     G cutoff =17367.5767  ( 639197 G-vectors)     FFT grid: (270,270,270)
     G cutoff = 8683.7884  ( 225950 G-vectors)  smooth grid: (192,192,192)

     number of k points=    20  Methfessel-Paxton smearing, width (Ry)=  0.0100
                       cart. coord. in units 2pi/alat
        k(    1) = (   0.0000000   0.0000000   0.0000000), wk =   0.0625000
        k(    2) = (   0.0000000   0.2500000   0.0000000), wk =   0.1250000
        k(    3) = (   0.0000000  -0.5000000   0.0000000), wk =   0.0625000
        k(    4) = (   0.2500000   0.0000000   0.0000000), wk =   0.1250000
        k(    5) = (   0.2500000   0.2500000   0.0000000), wk =   0.1250000
        k(    6) = (   0.2500000  -0.5000000   0.0000000), wk =   0.1250000
        k(    7) = (   0.2500000  -0.2500000   0.0000000), wk =   0.1250000
        k(    8) = (  -0.5000000   0.0000000   0.0000000), wk =   0.0625000
        k(    9) = (  -0.5000000   0.2500000   0.0000000), wk =   0.1250000
        k(   10) = (  -0.5000000  -0.5000000   0.0000000), wk =   0.0625000
        k(   11) = (   0.0000000   0.0000000   0.0000000), wk =   0.0625000
        k(   12) = (   0.0000000   0.2500000   0.0000000), wk =   0.1250000
        k(   13) = (   0.0000000  -0.5000000   0.0000000), wk =   0.0625000
        k(   14) = (   0.2500000   0.0000000   0.0000000), wk =   0.1250000
        k(   15) = (   0.2500000   0.2500000   0.0000000), wk =   0.1250000
        k(   16) = (   0.2500000  -0.5000000   0.0000000), wk =   0.1250000
        k(   17) = (   0.2500000  -0.2500000   0.0000000), wk =   0.1250000
        k(   18) = (  -0.5000000   0.0000000   0.0000000), wk =   0.0625000
        k(   19) = (  -0.5000000   0.2500000   0.0000000), wk =   0.1250000
        k(   20) = (  -0.5000000  -0.5000000   0.0000000), wk =   0.0625000

     PseudoPot. # 1 for N  read from file:
     ../../SSSP/N.pbe-n-radius_5.UPF
     MD5 check sum: 16739722b17309cd8fe442a2ace49922
     Pseudo is Ultrasoft + core correction, Zval =  5.0
     Generated using "atomic" code by A. Dal Corso  v.5.1
     Using radial grid of 1085 points,  4 beta functions with: 
                l(1) =   0
                l(2) =   0
                l(3) =   1
                l(4) =   1
     Q(r) pseudized with 0 coefficients 


     PseudoPot. # 2 for H  read from file:
     ../../SSSP/H.pbe-rrkjus_psl.1.0.0.UPF
     MD5 check sum: f52b6d4d1c606e5624b1dc7b2218f220
     Pseudo is Ultrasoft, Zval =  1.0
     Generated using "atomic" code by A. Dal Corso  v.5.1
     Using radial grid of  929 points,  2 beta functions with: 
                l(1) =   0
                l(2) =   0
     Q(r) pseudized with 0 coefficients 


     Mode symmetry, C_1 (1)     point group:


     Atomic displacements:
     There are    9 irreducible representations

     Representation     1      1 modes -  To be done

     Representation     2      1 modes -  To be done

     Representation     3      1 modes -  To be done

     Representation     4      1 modes -  To be done

     Representation     5      1 modes -  To be done

     Representation     6      1 modes -  To be done

     Representation     7      1 modes -  To be done

     Representation     8      1 modes -  To be done

     Representation     9      1 modes -  To be done



     Alpha used in Ewald sum =   2.8000

     -------------------------------------------------
     Parameters for Dispersion (Grimme-D2) Correction:
     -------------------------------------------------
       atom      VdW radius       C_6     

        N          2.640         42.670
        H          1.892          4.857

     Calculating the D2 contribution to the dynamical matrix.
     D2 energy =       -0.00008354 Ry
     Done.


     negative rho (up, down):  2.460E-04 1.739E-04
     PHONON       :   2m59.46s CPU   3m 7.34s WALL



     Representation #   1 mode #   1

     Self-consistent Calculation

     Pert. #  1: Fermi energy shift (Ry) =    -1.5722E-10     0.0000E+00

      iter #   1 total cpu time :   230.3 secs   av.it.:   6.0
      thresh= 1.000E-02 alpha_mix =  0.700 |ddv_scf|^2 =  1.300E-09

     Pert. #  1: Fermi energy shift (Ry) =     2.7740E-09     0.0000E+00

      iter #   2 total cpu time :   271.9 secs   av.it.:  14.8
      thresh= 3.606E-06 alpha_mix =  0.700 |ddv_scf|^2 =  4.084E-10

     Pert. #  1: Fermi energy shift (Ry) =     1.1997E-08     0.0000E+00

      iter #   3 total cpu time :   315.8 secs   av.it.:  13.6
      thresh= 2.021E-06 alpha_mix =  0.700 |ddv_scf|^2 =  8.998E-12

     Pert. #  1: Fermi energy shift (Ry) =     5.5421E-08     0.0000E+00

      iter #   4 total cpu time :   360.4 secs   av.it.:  15.0
      thresh= 3.000E-07 alpha_mix =  0.700 |ddv_scf|^2 =  1.986E-13

     End of self-consistent calculation

     Convergence has been achieved 


     Representation #   2 mode #   2

     Self-consistent Calculation

     Pert. #  1: Fermi energy shift (Ry) =    -1.6663E-10     0.0000E+00

      iter #   1 total cpu time :   419.3 secs   av.it.:   7.0
      thresh= 1.000E-02 alpha_mix =  0.700 |ddv_scf|^2 =  2.470E-09

     Pert. #  1: Fermi energy shift (Ry) =     5.1378E-10     0.0000E+00

      iter #   2 total cpu time :   462.1 secs   av.it.:  14.7
      thresh= 4.970E-06 alpha_mix =  0.700 |ddv_scf|^2 =  4.487E-10

     Pert. #  1: Fermi energy shift (Ry) =     1.1680E-09     0.0000E+00

      iter #   3 total cpu time :   507.0 secs   av.it.:  14.0
      thresh= 2.118E-06 alpha_mix =  0.700 |ddv_scf|^2 =  9.430E-12

     Pert. #  1: Fermi energy shift (Ry) =     5.6880E-08     0.0000E+00

      iter #   4 total cpu time :   553.2 secs   av.it.:  15.2
      thresh= 3.071E-07 alpha_mix =  0.700 |ddv_scf|^2 =  4.732E-14

     End of self-consistent calculation

     Convergence has been achieved 


     Representation #   3 mode #   3

     Self-consistent Calculation

     Pert. #  1: Fermi energy shift (Ry) =     1.6726E-01     0.0000E+00

      iter #   1 total cpu time :   611.9 secs   av.it.:   8.0
      thresh= 1.000E-02 alpha_mix =  0.700 |ddv_scf|^2 =  2.318E-09

     Pert. #  1: Fermi energy shift (Ry) =     7.2089E-02     0.0000E+00

      iter #   2 total cpu time :   656.1 secs   av.it.:  17.5
      thresh= 4.815E-06 alpha_mix =  0.700 |ddv_scf|^2 =  3.290E-10

     Pert. #  1: Fermi energy shift (Ry) =    -2.2222E-01     0.0000E+00

      iter #   3 total cpu time :   701.8 secs   av.it.:  18.3
      thresh= 1.814E-06 alpha_mix =  0.700 |ddv_scf|^2 =  1.397E-10

     Pert. #  1: Fermi energy shift (Ry) =    -3.1653E-03     0.0000E+00

      iter #   4 total cpu time :   751.6 secs   av.it.:  18.2
      thresh= 1.182E-06 alpha_mix =  0.700 |ddv_scf|^2 =  2.034E-12

     Pert. #  1: Fermi energy shift (Ry) =    -1.0193E-02     0.0000E+00

      iter #   5 total cpu time :   802.4 secs   av.it.:  17.5
      thresh= 1.426E-07 alpha_mix =  0.700 |ddv_scf|^2 =  4.737E-13

     End of self-consistent calculation

     Convergence has been achieved 


     Representation #   4 mode #   4

     Self-consistent Calculation

     Pert. #  1: Fermi energy shift (Ry) =     1.1969E-10     0.0000E+00

      iter #   1 total cpu time :   858.5 secs   av.it.:   4.0
      thresh= 1.000E-02 alpha_mix =  0.700 |ddv_scf|^2 =  5.736E-11

     Pert. #  1: Fermi energy shift (Ry) =     4.1259E-12     0.0000E+00

      iter #   2 total cpu time :   900.3 secs   av.it.:  14.5
      thresh= 7.573E-07 alpha_mix =  0.700 |ddv_scf|^2 =  6.221E-12

     Pert. #  1: Fermi energy shift (Ry) =    -2.9243E-08     0.0000E+00

      iter #   3 total cpu time :   943.4 secs   av.it.:  14.4
      thresh= 2.494E-07 alpha_mix =  0.700 |ddv_scf|^2 =  3.030E-13

     End of self-consistent calculation

     Convergence has been achieved 


     Representation #   5 mode #   5

     Self-consistent Calculation

     Pert. #  1: Fermi energy shift (Ry) =     2.3031E-01     0.0000E+00

      iter #   1 total cpu time :  1001.2 secs   av.it.:   6.5
      thresh= 1.000E-02 alpha_mix =  0.700 |ddv_scf|^2 =  2.363E-10

     Pert. #  1: Fermi energy shift (Ry) =    -1.1909E-01     0.0000E+00

      iter #   2 total cpu time :  1046.1 secs   av.it.:  19.1
      thresh= 1.537E-06 alpha_mix =  0.700 |ddv_scf|^2 =  8.937E-11

     Pert. #  1: Fermi energy shift (Ry) =     5.5088E-02     0.0000E+00

      iter #   3 total cpu time :  1092.0 secs   av.it.:  19.1
      thresh= 9.453E-07 alpha_mix =  0.700 |ddv_scf|^2 =  6.042E-12

     Pert. #  1: Fermi energy shift (Ry) =     1.8236E-02     0.0000E+00

      iter #   4 total cpu time :  1139.9 secs   av.it.:  19.0
      thresh= 2.458E-07 alpha_mix =  0.700 |ddv_scf|^2 =  2.785E-13

     End of self-consistent calculation

     Convergence has been achieved 


     Representation #   6 mode #   6

     Self-consistent Calculation

     Pert. #  1: Fermi energy shift (Ry) =    -1.8662E-01     0.0000E+00

      iter #   1 total cpu time :  1198.5 secs   av.it.:   6.5
      thresh= 1.000E-02 alpha_mix =  0.700 |ddv_scf|^2 =  1.683E-10

     Pert. #  1: Fermi energy shift (Ry) =     1.2346E-01     0.0000E+00

      iter #   2 total cpu time :  1244.0 secs   av.it.:  19.1
      thresh= 1.297E-06 alpha_mix =  0.700 |ddv_scf|^2 =  8.603E-11

     Pert. #  1: Fermi energy shift (Ry) =    -3.9504E-02     0.0000E+00

      iter #   3 total cpu time :  1289.2 secs   av.it.:  19.1
      thresh= 9.275E-07 alpha_mix =  0.700 |ddv_scf|^2 =  4.005E-12

     Pert. #  1: Fermi energy shift (Ry) =    -1.7580E-02     0.0000E+00

      iter #   4 total cpu time :  1339.4 secs   av.it.:  18.0
      thresh= 2.001E-07 alpha_mix =  0.700 |ddv_scf|^2 =  5.328E-14

     End of self-consistent calculation

     Convergence has been achieved 


     Representation #   7 mode #   7

     Self-consistent Calculation

     Pert. #  1: Fermi energy shift (Ry) =     1.2936E-10     0.0000E+00

      iter #   1 total cpu time :  1396.9 secs   av.it.:   4.0
      thresh= 1.000E-02 alpha_mix =  0.700 |ddv_scf|^2 =  5.731E-11

     Pert. #  1: Fermi energy shift (Ry) =    -1.5060E-11     0.0000E+00

      iter #   2 total cpu time :  1438.6 secs   av.it.:  14.5
      thresh= 7.570E-07 alpha_mix =  0.700 |ddv_scf|^2 =  6.219E-12

     Pert. #  1: Fermi energy shift (Ry) =    -2.0300E-09     0.0000E+00

      iter #   3 total cpu time :  1481.6 secs   av.it.:  14.2
      thresh= 2.494E-07 alpha_mix =  0.700 |ddv_scf|^2 =  3.029E-13

     End of self-consistent calculation

     Convergence has been achieved 


     Representation #   8 mode #   8

     Self-consistent Calculation

     Pert. #  1: Fermi energy shift (Ry) =    -2.3031E-01     0.0000E+00

      iter #   1 total cpu time :  1540.1 secs   av.it.:   6.5
      thresh= 1.000E-02 alpha_mix =  0.700 |ddv_scf|^2 =  2.363E-10

     Pert. #  1: Fermi energy shift (Ry) =     1.1909E-01     0.0000E+00

      iter #   2 total cpu time :  1585.0 secs   av.it.:  19.1
      thresh= 1.537E-06 alpha_mix =  0.700 |ddv_scf|^2 =  8.937E-11

     Pert. #  1: Fermi energy shift (Ry) =    -5.5083E-02     0.0000E+00

      iter #   3 total cpu time :  1631.1 secs   av.it.:  19.1
      thresh= 9.453E-07 alpha_mix =  0.700 |ddv_scf|^2 =  6.041E-12

     Pert. #  1: Fermi energy shift (Ry) =    -1.8237E-02     0.0000E+00

      iter #   4 total cpu time :  1681.1 secs   av.it.:  19.0
      thresh= 2.458E-07 alpha_mix =  0.700 |ddv_scf|^2 =  2.785E-13

     End of self-consistent calculation

     Convergence has been achieved 


     Representation #   9 mode #   9

     Self-consistent Calculation

     Pert. #  1: Fermi energy shift (Ry) =    -1.8662E-01     0.0000E+00

      iter #   1 total cpu time :  1739.7 secs   av.it.:   6.5
      thresh= 1.000E-02 alpha_mix =  0.700 |ddv_scf|^2 =  1.682E-10

     Pert. #  1: Fermi energy shift (Ry) =     1.2346E-01     0.0000E+00

      iter #   2 total cpu time :  1787.0 secs   av.it.:  19.1
      thresh= 1.297E-06 alpha_mix =  0.700 |ddv_scf|^2 =  8.603E-11

     Pert. #  1: Fermi energy shift (Ry) =    -3.9476E-02     0.0000E+00

      iter #   3 total cpu time :  1834.5 secs   av.it.:  19.1
      thresh= 9.275E-07 alpha_mix =  0.700 |ddv_scf|^2 =  4.001E-12

     Pert. #  1: Fermi energy shift (Ry) =    -1.7580E-02     0.0000E+00

      iter #   4 total cpu time :  1886.2 secs   av.it.:  18.0
      thresh= 2.000E-07 alpha_mix =  0.700 |ddv_scf|^2 =  5.326E-14

     End of self-consistent calculation

     Convergence has been achieved 

     Number of q in the star =    1
     List of q in the star:
          1   0.000000000   0.000000000   0.000000000

     Diagonalizing the dynamical matrix

     q = (    0.000000000   0.000000000   0.000000000 ) 

 **************************************************************************
     freq (    1) =     -21.311370 [THz] =    -710.870793 [cm-1]
     freq (    2) =      -8.429750 [THz] =    -281.186188 [cm-1]
     freq (    3) =       4.680280 [THz] =     156.117328 [cm-1]
     freq (    4) =       8.214633 [THz] =     274.010654 [cm-1]
     freq (    5) =       9.016438 [THz] =     300.756007 [cm-1]
     freq (    6) =      21.952818 [THz] =     732.267193 [cm-1]
     freq (    7) =      45.951663 [THz] =    1532.782497 [cm-1]
     freq (    8) =      99.365405 [THz] =    3314.473129 [cm-1]
     freq (    9) =     100.403303 [THz] =    3349.093684 [cm-1]
 **************************************************************************

     Mode symmetry, C_1 (1)     point group:

     freq (   1-   1) =       -710.9  [cm-1]   --> A               I+R
     freq (   2-   2) =       -281.2  [cm-1]   --> A               I+R
     freq (   3-   3) =        156.1  [cm-1]   --> A               I+R
     freq (   4-   4) =        274.0  [cm-1]   --> A               I+R
     freq (   5-   5) =        300.8  [cm-1]   --> A               I+R
     freq (   6-   6) =        732.3  [cm-1]   --> A               I+R
     freq (   7-   7) =       1532.8  [cm-1]   --> A               I+R
     freq (   8-   8) =       3314.5  [cm-1]   --> A               I+R
     freq (   9-   9) =       3349.1  [cm-1]   --> A               I+R

     PHONON       :  27m52.72s CPU  31m51.34s WALL

     INITIALIZATION: 
     phq_setup    :     12.96s CPU     14.67s WALL (       1 calls)
     phq_init     :    148.70s CPU    152.16s WALL (       1 calls)

     phq_init     :    148.70s CPU    152.16s WALL (       1 calls)
     set_drhoc    :     24.26s CPU     24.37s WALL (       3 calls)
     init_vloc    :      0.32s CPU      0.32s WALL (       1 calls)
     init_us_1    :      0.03s CPU      0.03s WALL (       1 calls)
     newd         :      0.81s CPU      0.84s WALL (       1 calls)
     dvanqq       :     57.60s CPU     58.22s WALL (       1 calls)
     drho         :     43.78s CPU     45.78s WALL (       1 calls)

     DYNAMICAL MATRIX:
     dynmat0      :     24.68s CPU     25.41s WALL (       1 calls)
     phqscf       :   1493.23s CPU   1716.26s WALL (       1 calls)
     dynmatrix    :      0.03s CPU      0.09s WALL (       1 calls)

     phqscf       :   1493.23s CPU   1716.26s WALL (       1 calls)
     solve_linter :   1483.05s CPU   1684.91s WALL (       9 calls)
     drhodv       :     10.17s CPU     10.42s WALL (       9 calls)

     dynmat0      :     24.68s CPU     25.41s WALL (       1 calls)
     dynmat_us    :      1.88s CPU      1.95s WALL (       1 calls)
     d2ionq       :      0.51s CPU      0.51s WALL (       1 calls)
     dynmatcc     :     22.16s CPU     22.81s WALL (       1 calls)

     dynmat_us    :      1.88s CPU      1.95s WALL (       1 calls)
     addusdynmat  :      0.00s CPU      0.00s WALL (       1 calls)

     phqscf       :   1493.23s CPU   1716.26s WALL (       1 calls)
     solve_linter :   1483.05s CPU   1684.91s WALL (       9 calls)

     solve_linter :   1483.05s CPU   1684.91s WALL (       9 calls)
     dvqpsi_us    :     18.40s CPU     18.85s WALL (      27 calls)
     ortho        :      3.02s CPU      3.11s WALL (     105 calls)
     cgsolve      :    497.97s CPU    504.29s WALL (     105 calls)
     incdrhoscf   :     29.28s CPU     29.82s WALL (     105 calls)
     addusddens   :     85.14s CPU     91.57s WALL (      44 calls)
     vpsifft      :     22.75s CPU     23.18s WALL (      78 calls)
     dv_of_drho   :    235.92s CPU    244.62s WALL (      35 calls)
     mix_pot      :     11.50s CPU     42.46s WALL (      35 calls)
     ef_shift     :     34.54s CPU     35.52s WALL (      44 calls)
     localdos     :     46.72s CPU     48.62s WALL (       9 calls)
     psymdvscf    :    168.58s CPU    253.53s WALL (      35 calls)
     newdq        :    107.60s CPU    112.74s WALL (      35 calls)
     adddvscf     :      0.76s CPU      0.77s WALL (      78 calls)
     drhodvus     :      7.82s CPU     37.93s WALL (       9 calls)

     dvqpsi_us    :     18.40s CPU     18.85s WALL (      27 calls)
     dvqpsi_us_on :      0.29s CPU      0.32s WALL (      27 calls)

     cgsolve      :    497.97s CPU    504.29s WALL (     105 calls)
     ch_psi       :    482.02s CPU    488.16s WALL (    1886 calls)

     ch_psi       :    482.02s CPU    488.16s WALL (    1886 calls)
     h_psi        :    437.01s CPU    442.60s WALL (    1886 calls)
     last         :     31.25s CPU     31.63s WALL (    1886 calls)

     h_psi        :    437.01s CPU    442.60s WALL (    1886 calls)
     add_vuspsi   :      8.83s CPU      8.93s WALL (    1886 calls)

     incdrhoscf   :     29.28s CPU     29.82s WALL (     105 calls)
     addusdbec    :      1.44s CPU      1.45s WALL (     132 calls)

     drhodvus     :      7.82s CPU     37.93s WALL (       9 calls)

      General routines
     calbec       :     20.30s CPU     20.73s WALL (    4174 calls)
     fft          :    423.62s CPU    431.15s WALL (    1543 calls)
     ffts         :     31.22s CPU     31.88s WALL (     403 calls)
     fftw         :    402.44s CPU    407.67s WALL (   14474 calls)
     davcio       :      0.22s CPU     56.22s WALL (     803 calls)
     write_rec    :      0.01s CPU     30.03s WALL (      44 calls)


     PHONON       :  27m52.72s CPU  31m51.35s WALL


   This run was terminated on:   1:23:37  29Sep2022            

=------------------------------------------------------------------------------=
   JOB DONE.
=------------------------------------------------------------------------------=
