     Message from routine get_command_line:
     unexpected argument # 4     :-in

     Program PWSCF v.6.7MaX starts on  8Jul2022 at 18:25:36 

     This program is part of the open-source Quantum ESPRESSO suite
     for quantum simulation of materials; please cite
         "P. Giannozzi et al., J. Phys.:Condens. Matter 21 395502 (2009);
         "P. Giannozzi et al., J. Phys.:Condens. Matter 29 465901 (2017);
          URL http://www.quantum-espresso.org", 
     in publications or presentations arising from this work. More details at
     http://www.quantum-espresso.org/quote

     Parallel version (MPI), running on   120 processors

     MPI processes distributed on     1 nodes
     K-points division:     npool     =       8
     R & G space division:  proc/nbgrp/npool/nimage =      15
     Waiting for input...
     Reading input from standard input
Warning: card &CELL ignored
Warning: card / ignored

     Current dimensions of program PWSCF are:
     Max number of different atomic species (ntypx) = 10
     Max number of k-points (npk) =  40000
     Max angular momentum in pseudopotentials (lmaxx) =  3

     IMPORTANT: XC functional enforced from input :
     Exchange-correlation= PBE
                           (   1   4   3   4   0   0   0)
     Any further DFT definition will be discarded
     Please, verify this is what you really want


     -------------------------------------------------
     Parameters for Dispersion (Grimme-D2) Correction:
     -------------------------------------------------
       atom      VdW radius       C_6     

        H          1.892          4.857

     Subspace diagonalization in iterative solution of the eigenvalue problem:
     one sub-group per band group will be used
     scalapack distributed-memory algorithm (size of sub-group:  3*  3 procs)


     Parallelization info
     --------------------
     sticks:   dense  smooth     PW     G-vecs:    dense   smooth      PW
     Min        3636    1818    468               639190   225950   29545
     Max        3637    1819    470               639197   225953   29547
     Sum       54553   27281   7033              9587919  3389267  443191



     bravais-lattice index     =            0
     lattice parameter (alat)  =      37.7945  a.u.
     unit-cell volume          =   53986.6760 (a.u.)^3
     number of atoms/cell      =            1
     number of atomic types    =            1
     number of electrons       =         1.00
     number of Kohn-Sham states=            5
     kinetic-energy cutoff     =      60.0000  Ry
     charge density cutoff     =     480.0000  Ry
     scf convergence threshold =      1.0E-08
     mixing beta               =       0.7000
     number of iterations used =           10  plain     mixing
     energy convergence thresh.=      7.3E-07
     force convergence thresh. =      3.9E-04
     Exchange-correlation= PBE
                           (   1   4   3   4   0   0   0)
     nstep                     =           50


     Effective Screening Medium Method
     =================================
     Boundary Conditions: Metal-Slab-Metal
     field strength                   =     0.00 Ry/a.u.
     grid points for fit at edges     =        4 


     celldm(1)=  37.794522  celldm(2)=   0.000000  celldm(3)=   0.000000
     celldm(4)=   0.000000  celldm(5)=   0.000000  celldm(6)=   0.000000

     crystal axes: (cart. coord. in units of alat)
               a(1) = (   1.000000   0.000000   0.000000 )  
               a(2) = (   0.000000   1.000000   0.000000 )  
               a(3) = (   0.000000   0.000000   1.000000 )  

     reciprocal axes: (cart. coord. in units 2 pi/alat)
               b(1) = (  1.000000  0.000000  0.000000 )  
               b(2) = (  0.000000  1.000000  0.000000 )  
               b(3) = (  0.000000  0.000000  1.000000 )  


     PseudoPot. # 1 for H  read from file:
     ../../SSSP/H.pbe-rrkjus_psl.1.0.0.UPF
     MD5 check sum: f52b6d4d1c606e5624b1dc7b2218f220
     Pseudo is Ultrasoft, Zval =  1.0
     Generated using "atomic" code by A. Dal Corso  v.5.1
     Using radial grid of  929 points,  2 beta functions with: 
                l(1) =   0
                l(2) =   0
     Q(r) pseudized with 0 coefficients 


     atomic species   valence    mass     pseudopotential
        H              1.00     1.00800     H ( 1.00)

     Starting magnetic structure 
     atomic species   magnetization
        H            0.100

     No symmetry found



   Cartesian axes

     site n.     atom                  positions (alat units)
         1           H   tau(   1) = (   0.5000000   0.5000000   0.0000000  )

     number of k points=    10  Methfessel-Paxton smearing, width (Ry)=  0.0100
                       cart. coord. in units 2pi/alat
        k(    1) = (   0.0000000   0.0000000   0.0000000), wk =   0.0625000
        k(    2) = (   0.0000000   0.2500000   0.0000000), wk =   0.1250000
        k(    3) = (   0.0000000  -0.5000000   0.0000000), wk =   0.0625000
        k(    4) = (   0.2500000   0.0000000   0.0000000), wk =   0.1250000
        k(    5) = (   0.2500000   0.2500000   0.0000000), wk =   0.1250000
        k(    6) = (   0.2500000  -0.5000000   0.0000000), wk =   0.1250000
        k(    7) = (   0.2500000  -0.2500000   0.0000000), wk =   0.1250000
        k(    8) = (  -0.5000000   0.0000000   0.0000000), wk =   0.0625000
        k(    9) = (  -0.5000000   0.2500000   0.0000000), wk =   0.1250000
        k(   10) = (  -0.5000000  -0.5000000   0.0000000), wk =   0.0625000

     Dense  grid:  9587919 G-vectors     FFT dimensions: ( 270, 270, 270)

     Smooth grid:  3389267 G-vectors     FFT dimensions: ( 192, 192, 192)

     Estimated max dynamical RAM per process >     315.63 MB

     Estimated total dynamical RAM >      36.99 GB
     Generating pointlists ...
     new r_m :   0.4125 (alat units) 15.5902 (a.u.) for type    1

     Initial potential from superposition of free atoms

     starting charge    0.99999, renormalised to    1.00000

     negative rho (up, down):  1.968E-05 1.610E-05
     Starting wfcs are    1 randomized atomic wfcs +    4 random wfcs

     total cpu time spent up to now is       20.3 secs

     Self-consistent Calculation

     iteration #  1     ecut=    60.00 Ry     beta= 0.70
     CG style diagonalization
     c_bands:  2 eigenvalues not converged
     c_bands:  2 eigenvalues not converged
     ethr =  1.00E-04,  avg # of iterations = 16.2

     negative rho (up, down):  3.762E-05 4.364E-06

     total cpu time spent up to now is       48.4 secs

     total energy              =      -0.99010644 Ry
     estimated scf accuracy    <       0.00934976 Ry

     total magnetization       =     1.03 Bohr mag/cell
     absolute magnetization    =     1.03 Bohr mag/cell

     iteration #  2     ecut=    60.00 Ry     beta= 0.70
     CG style diagonalization
     ethr =  9.35E-04,  avg # of iterations =  3.1

     negative rho (up, down):  4.825E-05 1.526E-05

     total cpu time spent up to now is       62.8 secs

     total energy              =      -0.99898756 Ry
     estimated scf accuracy    <       0.00171018 Ry

     total magnetization       =     1.00 Bohr mag/cell
     absolute magnetization    =     1.00 Bohr mag/cell

     iteration #  3     ecut=    60.00 Ry     beta= 0.70
     CG style diagonalization
     ethr =  1.71E-04,  avg # of iterations =  3.5

     negative rho (up, down):  4.903E-05 9.955E-04

     total cpu time spent up to now is       77.8 secs

     total energy              =      -1.03173515 Ry
     estimated scf accuracy    <       0.00005533 Ry

     total magnetization       =     1.00 Bohr mag/cell
     absolute magnetization    =     1.00 Bohr mag/cell

     iteration #  4     ecut=    60.00 Ry     beta= 0.70
     CG style diagonalization
     c_bands:  2 eigenvalues not converged
     ethr =  5.53E-06,  avg # of iterations =  8.4

     negative rho (up, down):  5.084E-05 6.737E-04

     total cpu time spent up to now is       98.2 secs

     total energy              =      -1.03200221 Ry
     estimated scf accuracy    <       0.00004993 Ry

     total magnetization       =     1.00 Bohr mag/cell
     absolute magnetization    =     1.00 Bohr mag/cell

     iteration #  5     ecut=    60.00 Ry     beta= 0.70
     CG style diagonalization
     ethr =  4.99E-06,  avg # of iterations =  3.1

     negative rho (up, down):  4.972E-05 4.533E-07

     total cpu time spent up to now is      113.0 secs

     total energy              =      -0.99970044 Ry
     estimated scf accuracy    <       0.00011385 Ry

     total magnetization       =     1.00 Bohr mag/cell
     absolute magnetization    =     1.00 Bohr mag/cell

     iteration #  6     ecut=    60.00 Ry     beta= 0.70
     CG style diagonalization
     ethr =  4.99E-06,  avg # of iterations =  8.7

     negative rho (up, down):  4.951E-05 1.531E-07

     total cpu time spent up to now is      134.0 secs

     total energy              =      -0.99983655 Ry
     estimated scf accuracy    <       0.00001878 Ry

     total magnetization       =     1.00 Bohr mag/cell
     absolute magnetization    =     1.00 Bohr mag/cell

     iteration #  7     ecut=    60.00 Ry     beta= 0.70
     CG style diagonalization
     ethr =  1.88E-06,  avg # of iterations =  6.9

     negative rho (up, down):  4.950E-05 4.565E-08

     total cpu time spent up to now is      153.5 secs

     total energy              =      -0.99984164 Ry
     estimated scf accuracy    <       0.00000780 Ry

     total magnetization       =     1.00 Bohr mag/cell
     absolute magnetization    =     1.00 Bohr mag/cell

     iteration #  8     ecut=    60.00 Ry     beta= 0.70
     CG style diagonalization
     ethr =  7.80E-07,  avg # of iterations =  4.6

     negative rho (up, down):  4.940E-05 1.321E-08

     total cpu time spent up to now is      170.3 secs

     total energy              =      -0.99984342 Ry
     estimated scf accuracy    <       0.00000429 Ry

     total magnetization       =     1.00 Bohr mag/cell
     absolute magnetization    =     1.00 Bohr mag/cell

     iteration #  9     ecut=    60.00 Ry     beta= 0.70
     CG style diagonalization
     ethr =  4.29E-07,  avg # of iterations =  4.0

     negative rho (up, down):  4.928E-05 1.649E-05

     total cpu time spent up to now is      186.7 secs

     total energy              =      -1.03214645 Ry
     estimated scf accuracy    <       0.00000187 Ry

     total magnetization       =     1.00 Bohr mag/cell
     absolute magnetization    =     1.00 Bohr mag/cell

     iteration # 10     ecut=    60.00 Ry     beta= 0.70
     CG style diagonalization
     ethr =  1.87E-07,  avg # of iterations = 10.5

     negative rho (up, down):  5.026E-05 3.307E-10

     total cpu time spent up to now is      210.2 secs

     total energy              =      -0.99974359 Ry
     estimated scf accuracy    <       0.00005227 Ry

     total magnetization       =     1.00 Bohr mag/cell
     absolute magnetization    =     1.00 Bohr mag/cell

     iteration # 11     ecut=    60.00 Ry     beta= 0.70
     CG style diagonalization
     ethr =  1.87E-07,  avg # of iterations =  9.4

     negative rho (up, down):  4.945E-05 1.567E-09

     total cpu time spent up to now is      232.4 secs

     total energy              =      -0.99984365 Ry
     estimated scf accuracy    <       0.00000096 Ry

     total magnetization       =     1.00 Bohr mag/cell
     absolute magnetization    =     1.00 Bohr mag/cell

     iteration # 12     ecut=    60.00 Ry     beta= 0.70
     CG style diagonalization
     ethr =  9.59E-08,  avg # of iterations =  4.1

     negative rho (up, down):  4.937E-05 1.603E-10

     total cpu time spent up to now is      249.1 secs

     total energy              =      -1.00072378 Ry
     estimated scf accuracy    <       0.00000091 Ry

     total magnetization       =     1.00 Bohr mag/cell
     absolute magnetization    =     1.00 Bohr mag/cell

     iteration # 13     ecut=    60.00 Ry     beta= 0.70
     CG style diagonalization
     ethr =  9.11E-08,  avg # of iterations =  4.4

     negative rho (up, down):  4.928E-05 4.550E-11

     total cpu time spent up to now is      265.8 secs

     total energy              =      -0.99995724 Ry
     estimated scf accuracy    <       0.00000519 Ry

     total magnetization       =     1.00 Bohr mag/cell
     absolute magnetization    =     1.00 Bohr mag/cell

     iteration # 14     ecut=    60.00 Ry     beta= 0.70
     CG style diagonalization
     ethr =  9.11E-08,  avg # of iterations =  3.6

     negative rho (up, down):  4.934E-05 9.951E-12

     total cpu time spent up to now is      281.7 secs

     total energy              =      -0.99984300 Ry
     estimated scf accuracy    <       0.00000073 Ry

     total magnetization       =     1.00 Bohr mag/cell
     absolute magnetization    =     1.00 Bohr mag/cell

     iteration # 15     ecut=    60.00 Ry     beta= 0.70
     CG style diagonalization
     ethr =  7.27E-08,  avg # of iterations =  4.3

     negative rho (up, down):  4.948E-05 3.664E-08

     total cpu time spent up to now is      298.5 secs

     total energy              =      -1.03215512 Ry
     estimated scf accuracy    <       0.00000037 Ry

     total magnetization       =     1.00 Bohr mag/cell
     absolute magnetization    =     1.00 Bohr mag/cell

     iteration # 16     ecut=    60.00 Ry     beta= 0.70
     CG style diagonalization
     ethr =  3.73E-08,  avg # of iterations = 10.2

     negative rho (up, down):  5.057E-05 3.664E-08

     total cpu time spent up to now is      321.9 secs

     total energy              =      -1.03225165 Ry
     estimated scf accuracy    <       0.00002320 Ry

     total magnetization       =     1.00 Bohr mag/cell
     absolute magnetization    =     1.00 Bohr mag/cell

     iteration # 17     ecut=    60.00 Ry     beta= 0.70
     CG style diagonalization
     ethr =  3.73E-08,  avg # of iterations =  4.3

     negative rho (up, down):  5.127E-05 3.776E-12

     total cpu time spent up to now is      338.9 secs

     total energy              =      -0.99974833 Ry
     estimated scf accuracy    <       0.00003782 Ry

     total magnetization       =     1.00 Bohr mag/cell
     absolute magnetization    =     1.00 Bohr mag/cell

     iteration # 18     ecut=    60.00 Ry     beta= 0.70
     CG style diagonalization
     ethr =  3.73E-08,  avg # of iterations =  8.4

     negative rho (up, down):  4.939E-05 0.000E+00

     Magnetic moment per site:
     atom:    1    charge:    1.0000    magn:    1.0000    constr:    0.0000

     total cpu time spent up to now is      357.2 secs

     End of self-consistent calculation

 ------ SPIN UP ------------


          k = 0.0000 0.0000 0.0000 (423701 PWs)   bands (ev):

    -6.7801   0.4524   0.7702   0.8314   0.8578

          k = 0.0000 0.2500 0.0000 (423725 PWs)   bands (ev):

    -6.7801   0.4744   0.6618   0.8286   0.8534

          k = 0.0000-0.5000 0.0000 (423542 PWs)   bands (ev):

    -6.7801   0.5222   0.5704   0.8641   0.9007

          k = 0.2500 0.0000 0.0000 (423725 PWs)   bands (ev):

    -6.7801   0.4744   0.6618   0.8286   0.8534

          k = 0.2500 0.2500 0.0000 (423766 PWs)   bands (ev):

    -6.7801   0.4961   0.6698   0.7038   0.8740

          k = 0.2500-0.5000 0.0000 (423782 PWs)   bands (ev):

    -6.7801   0.5424   0.5938   0.7379   0.7815

          k = 0.2500-0.2500 0.0000 (423766 PWs)   bands (ev):

    -6.7801   0.4961   0.6698   0.7038   0.8740

          k =-0.5000 0.0000 0.0000 (423542 PWs)   bands (ev):

    -6.7801   0.5222   0.5704   0.8641   0.9007

          k =-0.5000 0.2500 0.0000 (423782 PWs)   bands (ev):

    -6.7801   0.5424   0.5937   0.7379   0.7815

          k =-0.5000-0.5000 0.0000 (423708 PWs)   bands (ev):

    -6.7801   0.5799   0.6573   0.6572   0.6714

 ------ SPIN DOWN ----------


          k = 0.0000 0.0000 0.0000 (423701 PWs)   bands (ev):

     0.4948   0.8721   0.8695   0.8695   0.9096

          k = 0.0000 0.2500 0.0000 (423725 PWs)   bands (ev):

     0.5183   0.7063   0.8930   0.8955   1.0776

          k = 0.0000-0.5000 0.0000 (423542 PWs)   bands (ev):

     0.5906   0.5870   0.9666   0.9602   1.0247

          k = 0.2500 0.0000 0.0000 (423725 PWs)   bands (ev):

     0.5183   0.7063   0.8930   0.8955   1.0777

          k = 0.2500 0.2500 0.0000 (423766 PWs)   bands (ev):

     0.5418   0.7298   0.7298   0.9177   1.1058

          k = 0.2500-0.5000 0.0000 (423782 PWs)   bands (ev):

     0.6105   0.6141   0.8022   0.7983   1.1738

          k = 0.2500-0.2500 0.0000 (423766 PWs)   bands (ev):

     0.5418   0.7298   0.7298   0.9177   1.1058

          k =-0.5000 0.0000 0.0000 (423542 PWs)   bands (ev):

     0.5906   0.5869   0.9666   0.9611   1.0245

          k =-0.5000 0.2500 0.0000 (423782 PWs)   bands (ev):

     0.6105   0.6141   0.8022   0.7983   1.1738

          k =-0.5000-0.5000 0.0000 (423708 PWs)   bands (ev):

     0.6828   0.6828   0.6864   0.6790   1.2495

     the Fermi energy is    -2.7653 ev

!    total energy              =      -0.99984375 Ry
     estimated scf accuracy    <          3.6E-09 Ry
     smearing contrib. (-TS)   =       0.00000000 Ry
     internal energy E=F+TS    =      -0.99984375 Ry

     The total energy is F=E-TS. E is the sum of the following terms:
     one-electron contribution =      -0.89787456 Ry
     hartree contribution      =       0.59298981 Ry
     xc contribution           =      -0.61454764 Ry
     ewald contribution        =      -0.08041136 Ry
     Dispersion Correction     =      -0.00000001 Ry

     total magnetization       =     1.00 Bohr mag/cell
     absolute magnetization    =     1.00 Bohr mag/cell

     convergence has been achieved in  18 iterations

     Forces acting on atoms (cartesian axes, Ry/au):

     atom    1 type  1   force =     0.00000000    0.00000000   -0.00000149

     Total force =     0.000000     Total SCF correction =     0.000000

     BFGS Geometry Optimization
     Energy error            =      0.0E+00
     Gradient error          =      0.0E+00

     bfgs converged in   1 scf cycles and   0 bfgs steps
     (criteria: energy <  7.3E-07 Ry, force <  3.9E-04 Ry/Bohr)

     End of BFGS Geometry Optimization

     Final energy   =      -0.9998437522 Ry
Begin final coordinates

ATOMIC_POSITIONS (angstrom)
H            10.0000000000       10.0000000000        0.0000000000    0   0   0
End final coordinates



     Writing output data file ./H_ESM_std.save/

     init_run     :     18.92s CPU     20.05s WALL (       1 calls)
     electrons    :    317.82s CPU    339.78s WALL (       1 calls)
     forces       :      1.70s CPU      1.74s WALL (       1 calls)

     Called by init_run:
     wfcinit      :      1.10s CPU      1.15s WALL (       1 calls)
     potinit      :      7.31s CPU      8.01s WALL (       1 calls)
     hinit0       :      0.72s CPU      0.85s WALL (       1 calls)

     Called by electrons:
     c_bands      :    125.13s CPU    126.70s WALL (      18 calls)
     sum_band     :     30.10s CPU     30.54s WALL (      18 calls)
     v_of_rho     :    109.25s CPU    118.99s WALL (      19 calls)
     newd         :     11.02s CPU     11.36s WALL (      19 calls)
     mix_rho      :     29.43s CPU     36.24s WALL (      18 calls)

     Called by c_bands:
     init_us_2    :      0.13s CPU      0.15s WALL (     114 calls)
     ccgdiagg     :     77.11s CPU     77.96s WALL (      54 calls)
     wfcrot       :     18.20s CPU     18.40s WALL (      54 calls)

     Called by *cgdiagg:
     h_psi        :     90.88s CPU     91.86s WALL (    1280 calls)
     s_psi        :      0.27s CPU      0.27s WALL (    2506 calls)

     Called by h_psi:
     h_psi:calbec :      0.99s CPU      1.01s WALL (    1280 calls)
     vloc_psi     :     89.07s CPU     90.03s WALL (    1280 calls)
     add_vuspsi   :      0.50s CPU      0.51s WALL (    1280 calls)
     hs_1psi      :     73.59s CPU     74.39s WALL (    1226 calls)
     s_1psi       :      0.50s CPU      0.50s WALL (    1226 calls)

     General routines
     calbec       :      1.35s CPU      1.37s WALL (    2572 calls)
     fft          :    108.81s CPU    111.77s WALL (     472 calls)
     ffts         :      5.92s CPU      5.98s WALL (      74 calls)
     fftw         :     80.38s CPU     81.23s WALL (    3262 calls)
     interpolate  :     12.93s CPU     14.10s WALL (      38 calls)
     davcio       :      0.07s CPU      4.11s WALL (     467 calls)

     Parallel routines
     fft_scatt_xy :     30.51s CPU     30.84s WALL (    3808 calls)
     fft_scatt_yz :     69.69s CPU     70.42s WALL (    3808 calls)

     PWSCF        :   5m39.12s CPU   6m 3.03s WALL


   This run was terminated on:  18:31:39   8Jul2022            

=------------------------------------------------------------------------------=
   JOB DONE.
=------------------------------------------------------------------------------=
