
     Program PWSCF v.6.7MaX starts on 16Jun2022 at 19:30:17 

     This program is part of the open-source Quantum ESPRESSO suite
     for quantum simulation of materials; please cite
         "P. Giannozzi et al., J. Phys.:Condens. Matter 21 395502 (2009);
         "P. Giannozzi et al., J. Phys.:Condens. Matter 29 465901 (2017);
          URL http://www.quantum-espresso.org", 
     in publications or presentations arising from this work. More details at
     http://www.quantum-espresso.org/quote

     Parallel version (MPI), running on   256 processors

     MPI processes distributed on     2 nodes
     K-points division:     npool     =       8
     R & G space division:  proc/nbgrp/npool/nimage =      32
     Waiting for input...
     Reading input from standard input
Warning: card &CELL ignored
Warning: card / ignored

     Current dimensions of program PWSCF are:
     Max number of different atomic species (ntypx) = 10
     Max number of k-points (npk) =  40000
     Max angular momentum in pseudopotentials (lmaxx) =  3
     file Fe.pbe-spn-kjpaw_psl.0.2.1.UPF: wavefunction(s)  3D renormalized

     IMPORTANT: XC functional enforced from input :
     Exchange-correlation= PBE
                           (   1   4   3   4   0   0   0)
     Any further DFT definition will be discarded
     Please, verify this is what you really want


     -------------------------------------------------
     Parameters for Dispersion (Grimme-D2) Correction:
     -------------------------------------------------
       atom      VdW radius       C_6     

        Fe         2.952        374.666
        N          2.640         42.670
        H          1.892          4.857

     Subspace diagonalization in iterative solution of the eigenvalue problem:
     one sub-group per band group will be used
     scalapack distributed-memory algorithm (size of sub-group:  5*  5 procs)


     Parallelization info
     --------------------
     sticks:   dense  smooth     PW     G-vecs:    dense   smooth      PW
     Min         396     198     52                90796    32100    4368
     Max         397     199     53                90807    32109    4377
     Sum       12685    6351   1677              2905599  1027285  139897



     bravais-lattice index     =            0
     lattice parameter (alat)  =      18.7640  a.u.
     unit-cell volume          =   16360.3161 (a.u.)^3
     number of atoms/cell      =           68
     number of atomic types    =            3
     number of electrons       =      1032.00
     number of Kohn-Sham states=          619
     kinetic-energy cutoff     =      60.0000  Ry
     charge density cutoff     =     480.0000  Ry
     scf convergence threshold =      1.0E-08
     mixing beta               =       0.2000
     number of iterations used =           10  local-TF  mixing
     energy convergence thresh.=      7.3E-07
     force convergence thresh. =      3.9E-04
     Exchange-correlation= PBE
                           (   1   4   3   4   0   0   0)
     nstep                     =           50


     Effective Screening Medium Method
     =================================
     Boundary Conditions: Metal-Slab-Metal
     field strength                   =     0.02 Ry/a.u.
     grid points for fit at edges     =        4 


     celldm(1)=  18.764036  celldm(2)=   0.000000  celldm(3)=   0.000000
     celldm(4)=   0.000000  celldm(5)=   0.000000  celldm(6)=   0.000000

     crystal axes: (cart. coord. in units of alat)
               a(1) = (   1.000000   0.000000   0.000000 )  
               a(2) = (   0.333330   0.942807   0.000000 )  
               a(3) = (   0.000000   0.000000   2.626577 )  

     reciprocal axes: (cart. coord. in units 2 pi/alat)
               b(1) = (  1.000000 -0.353551  0.000000 )  
               b(2) = (  0.000000  1.060663  0.000000 )  
               b(3) = (  0.000000  0.000000  0.380724 )  


     PseudoPot. # 1 for Fe read from file:
     ../../SSSP/Fe.pbe-spn-kjpaw_psl.0.2.1.UPF
     MD5 check sum: e86618425769142926afa95317d90200
     Pseudo is Projector augmented-wave + core cor, Zval = 16.0
     Generated using "atomic" code by A. Dal Corso  v.5.0.99 svn rev. 10869
     Shape of augmentation charge: PSQ
     Using radial grid of 1191 points,  6 beta functions with: 
                l(1) =   0
                l(2) =   0
                l(3) =   1
                l(4) =   1
                l(5) =   2
                l(6) =   2
     Q(r) pseudized with 0 coefficients 


     PseudoPot. # 2 for N  read from file:
     ../../SSSP/N.pbe-n-radius_5.UPF
     MD5 check sum: 16739722b17309cd8fe442a2ace49922
     Pseudo is Ultrasoft + core correction, Zval =  5.0
     Generated using "atomic" code by A. Dal Corso  v.5.1
     Using radial grid of 1085 points,  4 beta functions with: 
                l(1) =   0
                l(2) =   0
                l(3) =   1
                l(4) =   1
     Q(r) pseudized with 0 coefficients 


     PseudoPot. # 3 for H  read from file:
     ../../SSSP/H.pbe-rrkjus_psl.1.0.0.UPF
     MD5 check sum: f52b6d4d1c606e5624b1dc7b2218f220
     Pseudo is Ultrasoft, Zval =  1.0
     Generated using "atomic" code by A. Dal Corso  v.5.1
     Using radial grid of  929 points,  2 beta functions with: 
                l(1) =   0
                l(2) =   0
     Q(r) pseudized with 0 coefficients 


     atomic species   valence    mass     pseudopotential
        Fe            16.00    55.84500     Fe( 1.00)
        N              5.00    14.00700     N ( 1.00)
        H              1.00     1.00800     H ( 1.00)

     Starting magnetic structure 
     atomic species   magnetization
        Fe           0.100
        N            0.100
        H            0.100

     No symmetry found



   Cartesian axes

     site n.     atom                  positions (alat units)
         1           Fe  tau(   1) = (   0.1666663   0.1178509   0.0000000  )
         2           Fe  tau(   2) = (   0.0000000   0.0000000   0.2041376  )
         3           Fe  tau(   3) = (   0.4999989   0.3535526   0.0000000  )
         4           Fe  tau(   4) = (   0.3333326   0.2357017   0.2041376  )
         5           Fe  tau(   5) = (   0.1668249   0.1179532   0.4059662  )
         6           Fe  tau(   6) = (   0.3333785   0.9428338   0.6047282  )
         7           Fe  tau(   7) = (   0.5004123   0.3538396   0.4050795  )
         8           Fe  tau(   8) = (   0.3334145   0.2357667   0.6051093  )
         9           Fe  tau(   9) = (   0.2499989   0.3535526   0.0000000  )
        10           Fe  tau(  10) = (   0.4166663   0.1178509   0.0000000  )
        11           Fe  tau(  11) = (   0.0833326   0.2357017   0.2041376  )
        12           Fe  tau(  12) = (   0.2500000   0.0000000   0.2041376  )
        13           Fe  tau(  13) = (   0.2499771   0.3536664   0.4059905  )
        14           Fe  tau(  14) = (   0.4167776   0.1177975   0.4060003  )
        15           Fe  tau(  15) = (   0.0833593   0.2360960   0.6063028  )
        16           Fe  tau(  16) = (   0.2503907  -0.0001207   0.6063032  )
        17           Fe  tau(  17) = (   0.6666663   0.1178509   0.0000000  )
        18           Fe  tau(  18) = (   0.5000000   0.0000000   0.2041376  )
        19           Fe  tau(  19) = (   0.9999989   0.3535526   0.0000000  )
        20           Fe  tau(  20) = (   0.8333326   0.2357017   0.2041376  )
        21           Fe  tau(  21) = (   0.6669341   0.1174471   0.4048465  )
        22           Fe  tau(  22) = (   0.4999757  -0.0002191   0.6074057  )
        23           Fe  tau(  23) = (   1.0002044   0.3531334   0.4049112  )
        24           Fe  tau(  24) = (   0.8340435   0.2346135   0.6000708  )
        25           Fe  tau(  25) = (   0.7499989   0.3535526   0.0000000  )
        26           Fe  tau(  26) = (   0.9166663   0.1178509   0.0000000  )
        27           Fe  tau(  27) = (   0.5833326   0.2357017   0.2041376  )
        28           Fe  tau(  28) = (   0.7500000   0.0000000   0.2041376  )
        29           Fe  tau(  29) = (   0.7488335   0.3550697   0.4063707  )
        30           Fe  tau(  30) = (   0.9170880   0.1172556   0.4044106  )
        31           Fe  tau(  31) = (   0.5835334   0.2346375   0.6017975  )
        32           Fe  tau(  32) = (   1.0829358   0.9427144   0.6060846  )
        33           Fe  tau(  33) = (   0.3333315   0.5892543   0.0000000  )
        34           Fe  tau(  34) = (   0.1666652   0.4714034   0.2041376  )
        35           Fe  tau(  35) = (   0.6666640   0.8249560   0.0000000  )
        36           Fe  tau(  36) = (   0.4999978   0.7071052   0.2041376  )
        37           Fe  tau(  37) = (   0.3330389   0.5896649   0.4048328  )
        38           Fe  tau(  38) = (   1.1664811   0.4714203   0.6074061  )
        39           Fe  tau(  39) = (   0.6663263   0.8253041   0.4048998  )
        40           Fe  tau(  40) = (   0.4992745   0.7080793   0.6002154  )
        41           Fe  tau(  41) = (   0.4166640   0.8249560   0.0000000  )
        42           Fe  tau(  42) = (   0.5833315   0.5892543   0.0000000  )
        43           Fe  tau(  43) = (   0.2499978   0.7071052   0.2041376  )
        44           Fe  tau(  44) = (   0.4166652   0.4714034   0.2041376  )
        45           Fe  tau(  45) = (   0.4162494   0.8255522   0.4044337  )
        46           Fe  tau(  46) = (   0.5843626   0.5876739   0.4063456  )
        47           Fe  tau(  47) = (   1.2498143   0.7067507   0.6060826  )
        48           Fe  tau(  48) = (   0.4156733   0.4719457   0.6017034  )
        49           Fe  tau(  49) = (   0.8333315   0.5892543   0.0000000  )
        50           Fe  tau(  50) = (   0.6666652   0.4714034   0.2041376  )
        51           Fe  tau(  51) = (   1.1666640   0.8249560   0.0000000  )
        52           Fe  tau(  52) = (   0.9999978   0.7071052   0.2041376  )
        53           Fe  tau(  53) = (   0.8328637   0.5889089   0.4051824  )
        54           Fe  tau(  54) = (   0.6663832   0.4713924   0.6180021  )
        55           Fe  tau(  55) = (   1.1664919   0.8248224   0.4058443  )
        56           Fe  tau(  56) = (   0.9999094   0.7070341   0.6048719  )
        57           Fe  tau(  57) = (   0.9166640   0.8249560   0.0000000  )
        58           Fe  tau(  58) = (   1.0833315   0.5892543   0.0000000  )
        59           Fe  tau(  59) = (   0.7499978   0.7071052   0.2041376  )
        60           Fe  tau(  60) = (   0.9166652   0.4714034   0.2041376  )
        61           Fe  tau(  61) = (   0.9164799   0.8249391   0.4059278  )
        62           Fe  tau(  62) = (   1.0832494   0.5890708   0.4059374  )
        63           Fe  tau(  63) = (   0.7496123   0.7079819   0.6019909  )
        64           Fe  tau(  64) = (   0.9173109   0.4707053   0.6020957  )
        65           N   tau(  65) = (   0.6673229   0.4715362   0.8274342  )
        66           H   tau(  66) = (   0.6648116   0.5683547   0.8625546  )
        67           H   tau(  67) = (   0.5836529   0.4210554   0.8603163  )
        68           H   tau(  68) = (   0.7518327   0.4239311   0.8621579  )

     number of k points=    10  Methfessel-Paxton smearing, width (Ry)=  0.0100
                       cart. coord. in units 2pi/alat
        k(    1) = (   0.0000000   0.0000000   0.0000000), wk =   0.0625000
        k(    2) = (   0.0000000   0.2651656   0.0000000), wk =   0.1250000
        k(    3) = (   0.0000000  -0.5303313   0.0000000), wk =   0.0625000
        k(    4) = (   0.2500000  -0.0883878   0.0000000), wk =   0.1250000
        k(    5) = (   0.2500000   0.1767779   0.0000000), wk =   0.1250000
        k(    6) = (   0.2500000  -0.6187190   0.0000000), wk =   0.1250000
        k(    7) = (   0.2500000  -0.3535534   0.0000000), wk =   0.1250000
        k(    8) = (  -0.5000000   0.1767755   0.0000000), wk =   0.0625000
        k(    9) = (  -0.5000000   0.4419412   0.0000000), wk =   0.1250000
        k(   10) = (  -0.5000000  -0.3535558   0.0000000), wk =   0.0625000

     Dense  grid:  2905599 G-vectors     FFT dimensions: ( 135, 135, 360)

     Smooth grid:  1027285 G-vectors     FFT dimensions: (  96,  96, 243)

     Estimated max dynamical RAM per process >     641.09 MB

     Estimated total dynamical RAM >     160.27 GB

     Check: negative core charge=   -0.000039
     Generating pointlists ...
     new r_m :   0.0864 (alat units)  1.6211 (a.u.) for type    1
     new r_m :   0.0425 (alat units)  0.7974 (a.u.) for type    2
     new r_m :   0.0425 (alat units)  0.7974 (a.u.) for type    3

     Initial potential from superposition of free atoms

     starting charge 1031.97191, renormalised to 1032.00000

     negative rho (up, down):  1.308E-02 1.070E-02
     Starting wfcs are  839 randomized atomic wfcs
     Checking if some PAW data can be deallocated... 

     total cpu time spent up to now is       34.4 secs

     Self-consistent Calculation

     iteration #  1     ecut=    60.00 Ry     beta= 0.20
     Davidson diagonalization with overlap
     ethr =  1.00E-04,  avg # of iterations = 18.6

     negative rho (up, down):  6.796E-03 5.418E-03

     total cpu time spent up to now is      336.2 secs

     total energy              =  -21079.44503913 Ry
     estimated scf accuracy    <    1277.87144294 Ry

     total magnetization       =    66.76 Bohr mag/cell
     absolute magnetization    =    68.73 Bohr mag/cell

     iteration #  2     ecut=    60.00 Ry     beta= 0.20
     Davidson diagonalization with overlap
     ethr =  1.00E-02,  avg # of iterations =  1.0

     negative rho (up, down):  5.371E-03 6.682E-03

     total cpu time spent up to now is      384.2 secs

     total energy              =  -21093.26070203 Ry
     estimated scf accuracy    <     373.23226143 Ry

     total magnetization       =    78.28 Bohr mag/cell
     absolute magnetization    =    80.61 Bohr mag/cell

     iteration #  3     ecut=    60.00 Ry     beta= 0.20
     Davidson diagonalization with overlap
     ethr =  1.00E-02,  avg # of iterations =  1.0

     negative rho (up, down):  6.173E-03 8.055E-03

     total cpu time spent up to now is      431.9 secs

     total energy              =  -21096.07038066 Ry
     estimated scf accuracy    <      15.17587420 Ry

     total magnetization       =   120.63 Bohr mag/cell
     absolute magnetization    =   121.28 Bohr mag/cell

     iteration #  4     ecut=    60.00 Ry     beta= 0.20
     Davidson diagonalization with overlap
     ethr =  1.47E-03,  avg # of iterations =  1.0

     negative rho (up, down):  4.631E-03 5.796E-03

     total cpu time spent up to now is      480.2 secs

     total energy              =  -21096.11269401 Ry
     estimated scf accuracy    <      18.80039275 Ry

     total magnetization       =   127.54 Bohr mag/cell
     absolute magnetization    =   128.13 Bohr mag/cell

     iteration #  5     ecut=    60.00 Ry     beta= 0.20
     Davidson diagonalization with overlap
     ethr =  1.47E-03,  avg # of iterations =  1.0

     negative rho (up, down):  3.053E-02 7.720E-02

     total cpu time spent up to now is      525.6 secs

     total energy              =  -21094.22648147 Ry
     estimated scf accuracy    <      23.91142448 Ry

     total magnetization       =   132.47 Bohr mag/cell
     absolute magnetization    =   133.08 Bohr mag/cell

     iteration #  6     ecut=    60.00 Ry     beta= 0.20
     Davidson diagonalization with overlap
     ethr =  1.47E-03,  avg # of iterations =  5.7

     negative rho (up, down):  1.511E-02 5.324E-02

     total cpu time spent up to now is      583.4 secs

     total energy              =  -21095.13643704 Ry
     estimated scf accuracy    <       7.88023047 Ry

     total magnetization       =   153.62 Bohr mag/cell
     absolute magnetization    =   154.91 Bohr mag/cell

     iteration #  7     ecut=    60.00 Ry     beta= 0.20
     Davidson diagonalization with overlap
     ethr =  7.64E-04,  avg # of iterations =  3.7

     negative rho (up, down):  1.046E-04 1.791E-02

     total cpu time spent up to now is      641.3 secs

     total energy              =  -21095.17450509 Ry
     estimated scf accuracy    <       2.70020175 Ry

     total magnetization       =   151.98 Bohr mag/cell
     absolute magnetization    =   153.81 Bohr mag/cell

     iteration #  8     ecut=    60.00 Ry     beta= 0.20
     Davidson diagonalization with overlap
     ethr =  2.62E-04,  avg # of iterations = 14.2

     negative rho (up, down):  1.539E-04 3.409E-03

     total cpu time spent up to now is      819.7 secs

     total energy              =  -21095.77185536 Ry
     estimated scf accuracy    <       8.13167485 Ry

     total magnetization       =   150.55 Bohr mag/cell
     absolute magnetization    =   155.84 Bohr mag/cell

     iteration #  9     ecut=    60.00 Ry     beta= 0.20
     Davidson diagonalization with overlap
     ethr =  2.62E-04,  avg # of iterations =  3.2

     negative rho (up, down):  1.215E-04 1.388E-03

     total cpu time spent up to now is      876.4 secs

     total energy              =  -21096.04947635 Ry
     estimated scf accuracy    <       0.56713146 Ry

     total magnetization       =   147.76 Bohr mag/cell
     absolute magnetization    =   152.23 Bohr mag/cell

     iteration # 10     ecut=    60.00 Ry     beta= 0.20
     Davidson diagonalization with overlap
     ethr =  5.50E-05,  avg # of iterations =  9.9

     negative rho (up, down):  1.114E-04 1.145E-03

     total cpu time spent up to now is      977.2 secs

     total energy              =  -21096.13384986 Ry
     estimated scf accuracy    <       0.62251109 Ry

     total magnetization       =   147.76 Bohr mag/cell
     absolute magnetization    =   151.89 Bohr mag/cell

     iteration # 11     ecut=    60.00 Ry     beta= 0.20
     Davidson diagonalization with overlap
     ethr =  5.50E-05,  avg # of iterations =  5.5

     negative rho (up, down):  3.220E-04 1.381E-03

     total cpu time spent up to now is     1034.6 secs

     total energy              =  -21096.15300712 Ry
     estimated scf accuracy    <       0.31476220 Ry

     total magnetization       =   151.90 Bohr mag/cell
     absolute magnetization    =   156.05 Bohr mag/cell

     iteration # 12     ecut=    60.00 Ry     beta= 0.20
     Davidson diagonalization with overlap
     ethr =  3.05E-05,  avg # of iterations =  5.8

     negative rho (up, down):  3.051E-04 1.847E-03

     total cpu time spent up to now is     1098.7 secs

     total energy              =  -21096.15201551 Ry
     estimated scf accuracy    <       0.36642003 Ry

     total magnetization       =   156.01 Bohr mag/cell
     absolute magnetization    =   160.22 Bohr mag/cell

     iteration # 13     ecut=    60.00 Ry     beta= 0.20
     Davidson diagonalization with overlap
     ethr =  3.05E-05,  avg # of iterations =  6.4

     negative rho (up, down):  9.684E-04 2.303E-03

     total cpu time spent up to now is     1170.2 secs

     total energy              =  -21096.18568349 Ry
     estimated scf accuracy    <       0.57425006 Ry

     total magnetization       =   159.55 Bohr mag/cell
     absolute magnetization    =   163.93 Bohr mag/cell

     iteration # 14     ecut=    60.00 Ry     beta= 0.20
     Davidson diagonalization with overlap
     ethr =  3.05E-05,  avg # of iterations =  7.0

     negative rho (up, down):  6.280E-03 8.580E-03

     total cpu time spent up to now is     1251.6 secs

     total energy              =  -21096.19349354 Ry
     estimated scf accuracy    <       0.61961661 Ry

     total magnetization       =   161.17 Bohr mag/cell
     absolute magnetization    =   166.11 Bohr mag/cell

     iteration # 15     ecut=    60.00 Ry     beta= 0.20
     Davidson diagonalization with overlap
     ethr =  3.05E-05,  avg # of iterations =  2.4

     negative rho (up, down):  1.761E-02 2.175E-02

     total cpu time spent up to now is     1303.4 secs

     total energy              =  -21096.18947518 Ry
     estimated scf accuracy    <       0.64092803 Ry

     total magnetization       =   162.89 Bohr mag/cell
     absolute magnetization    =   167.88 Bohr mag/cell

     iteration # 16     ecut=    60.00 Ry     beta= 0.20
     Davidson diagonalization with overlap
     ethr =  3.05E-05,  avg # of iterations =  1.4

     negative rho (up, down):  3.776E-02 4.188E-02

     total cpu time spent up to now is     1353.0 secs

     total energy              =  -21096.15989433 Ry
     estimated scf accuracy    <       0.46583988 Ry

     total magnetization       =   162.73 Bohr mag/cell
     absolute magnetization    =   167.80 Bohr mag/cell

     iteration # 17     ecut=    60.00 Ry     beta= 0.20
     Davidson diagonalization with overlap
     ethr =  3.05E-05,  avg # of iterations =  1.3

     negative rho (up, down):  4.383E-02 4.838E-02

     total cpu time spent up to now is     1402.5 secs

     total energy              =  -21096.14431332 Ry
     estimated scf accuracy    <       0.30293881 Ry

     total magnetization       =   163.20 Bohr mag/cell
     absolute magnetization    =   168.31 Bohr mag/cell

     iteration # 18     ecut=    60.00 Ry     beta= 0.20
     Davidson diagonalization with overlap
     ethr =  2.94E-05,  avg # of iterations =  2.5

     negative rho (up, down):  1.933E-02 2.170E-02

     total cpu time spent up to now is     1452.7 secs

     total energy              =  -21096.08757755 Ry
     estimated scf accuracy    <       0.29590997 Ry

     total magnetization       =   163.51 Bohr mag/cell
     absolute magnetization    =   168.70 Bohr mag/cell

     iteration # 19     ecut=    60.00 Ry     beta= 0.20
     Davidson diagonalization with overlap
     ethr =  2.87E-05,  avg # of iterations = 16.1

     negative rho (up, down):  2.445E-02 2.486E-02

     total cpu time spent up to now is     1610.1 secs

     total energy              =  -21096.12044369 Ry
     estimated scf accuracy    <       0.07099813 Ry

     total magnetization       =   162.38 Bohr mag/cell
     absolute magnetization    =   167.95 Bohr mag/cell

     iteration # 20     ecut=    60.00 Ry     beta= 0.20
     Davidson diagonalization with overlap
     c_bands:  1 eigenvalues not converged
     c_bands:  1 eigenvalues not converged
     c_bands:  3 eigenvalues not converged
     ethr =  6.88E-06,  avg # of iterations = 17.9

     negative rho (up, down):  2.951E-02 3.061E-02

     total cpu time spent up to now is     1786.7 secs

     total energy              =  -21096.13428514 Ry
     estimated scf accuracy    <       0.03207111 Ry

     total magnetization       =   161.59 Bohr mag/cell
     absolute magnetization    =   167.45 Bohr mag/cell

     iteration # 21     ecut=    60.00 Ry     beta= 0.20
     Davidson diagonalization with overlap
     c_bands:  1 eigenvalues not converged
     c_bands:  1 eigenvalues not converged
     ethr =  3.11E-06,  avg # of iterations = 14.7

     negative rho (up, down):  4.426E-02 4.522E-02

     total cpu time spent up to now is     1941.7 secs

     total energy              =  -21096.13061276 Ry
     estimated scf accuracy    <       0.02941894 Ry

     total magnetization       =   161.46 Bohr mag/cell
     absolute magnetization    =   167.48 Bohr mag/cell

     iteration # 22     ecut=    60.00 Ry     beta= 0.20
     Davidson diagonalization with overlap
     c_bands:  1 eigenvalues not converged
     c_bands:  2 eigenvalues not converged
     ethr =  2.85E-06,  avg # of iterations = 12.8

     negative rho (up, down):  8.136E-02 8.165E-02

     total cpu time spent up to now is     2052.8 secs

     total energy              =  -21096.12239167 Ry
     estimated scf accuracy    <       0.02527882 Ry

     total magnetization       =   161.72 Bohr mag/cell
     absolute magnetization    =   167.92 Bohr mag/cell

     iteration # 23     ecut=    60.00 Ry     beta= 0.20
     Davidson diagonalization with overlap
     c_bands:  2 eigenvalues not converged
     c_bands:  4 eigenvalues not converged
     ethr =  2.45E-06,  avg # of iterations = 20.0

     negative rho (up, down):  6.577E-02 6.664E-02

     total cpu time spent up to now is     2205.5 secs

     total energy              =  -21096.12616289 Ry
     estimated scf accuracy    <       0.01762507 Ry

     total magnetization       =   161.51 Bohr mag/cell
     absolute magnetization    =   167.91 Bohr mag/cell

     iteration # 24     ecut=    60.00 Ry     beta= 0.20
     Davidson diagonalization with overlap
     c_bands:  1 eigenvalues not converged
     c_bands:  1 eigenvalues not converged
     c_bands:  1 eigenvalues not converged
     ethr =  1.71E-06,  avg # of iterations = 14.2

     negative rho (up, down):  3.636E-02 3.853E-02

     total cpu time spent up to now is     2295.0 secs

     total energy              =  -21096.12733437 Ry
     estimated scf accuracy    <       0.00638876 Ry

     total magnetization       =   161.68 Bohr mag/cell
     absolute magnetization    =   168.08 Bohr mag/cell

     iteration # 25     ecut=    60.00 Ry     beta= 0.20
     Davidson diagonalization with overlap
     c_bands:  1 eigenvalues not converged
     c_bands:  1 eigenvalues not converged
     ethr =  6.19E-07,  avg # of iterations = 12.7

     negative rho (up, down):  3.395E-02 3.617E-02

     total cpu time spent up to now is     2519.0 secs

     total energy              =  -21096.12926280 Ry
     estimated scf accuracy    <       0.00634236 Ry

     total magnetization       =   161.72 Bohr mag/cell
     absolute magnetization    =   168.32 Bohr mag/cell

     iteration # 26     ecut=    60.00 Ry     beta= 0.20
     Davidson diagonalization with overlap
     c_bands:  1 eigenvalues not converged
     ethr =  6.15E-07,  avg # of iterations =  4.6

     negative rho (up, down):  3.142E-02 3.372E-02

     total cpu time spent up to now is     2596.3 secs

     total energy              =  -21096.12944064 Ry
     estimated scf accuracy    <       0.00397403 Ry

     total magnetization       =   161.67 Bohr mag/cell
     absolute magnetization    =   168.26 Bohr mag/cell

     iteration # 27     ecut=    60.00 Ry     beta= 0.20
     Davidson diagonalization with overlap
     ethr =  3.85E-07,  avg # of iterations =  4.2

     negative rho (up, down):  2.735E-02 2.978E-02

     total cpu time spent up to now is     2650.2 secs

     total energy              =  -21096.12881229 Ry
     estimated scf accuracy    <       0.00322570 Ry

     total magnetization       =   161.67 Bohr mag/cell
     absolute magnetization    =   168.25 Bohr mag/cell

     iteration # 28     ecut=    60.00 Ry     beta= 0.20
     Davidson diagonalization with overlap
     ethr =  3.13E-07,  avg # of iterations =  8.0

     negative rho (up, down):  1.239E-02 1.594E-02

     total cpu time spent up to now is     2714.1 secs

     total energy              =  -21096.12912238 Ry
     estimated scf accuracy    <       0.00252261 Ry

     total magnetization       =   161.81 Bohr mag/cell
     absolute magnetization    =   168.42 Bohr mag/cell

     iteration # 29     ecut=    60.00 Ry     beta= 0.20
     Davidson diagonalization with overlap
     ethr =  2.44E-07,  avg # of iterations =  8.2

     negative rho (up, down):  1.456E-02 1.780E-02

     total cpu time spent up to now is     2822.0 secs

     total energy              =  -21096.12910635 Ry
     estimated scf accuracy    <       0.00200602 Ry

     total magnetization       =   161.98 Bohr mag/cell
     absolute magnetization    =   168.64 Bohr mag/cell

     iteration # 30     ecut=    60.00 Ry     beta= 0.20
     Davidson diagonalization with overlap
     c_bands:  1 eigenvalues not converged
     ethr =  1.94E-07,  avg # of iterations = 13.1

     negative rho (up, down):  1.420E-02 1.760E-02

     total cpu time spent up to now is     2912.3 secs

     total energy              =  -21096.12816151 Ry
     estimated scf accuracy    <       0.00107327 Ry

     total magnetization       =   161.98 Bohr mag/cell
     absolute magnetization    =   168.63 Bohr mag/cell

     iteration # 31     ecut=    60.00 Ry     beta= 0.20
     Davidson diagonalization with overlap
     c_bands:  1 eigenvalues not converged
     ethr =  1.04E-07,  avg # of iterations = 12.1

     negative rho (up, down):  1.237E-02 1.611E-02

     total cpu time spent up to now is     3031.1 secs

     total energy              =  -21096.12721352 Ry
     estimated scf accuracy    <       0.00076215 Ry

     total magnetization       =   162.01 Bohr mag/cell
     absolute magnetization    =   168.65 Bohr mag/cell

     iteration # 32     ecut=    60.00 Ry     beta= 0.20
     Davidson diagonalization with overlap
     c_bands:  1 eigenvalues not converged
     ethr =  7.39E-08,  avg # of iterations = 12.8

     negative rho (up, down):  1.295E-02 1.675E-02

     total cpu time spent up to now is     3189.0 secs

     total energy              =  -21096.12674566 Ry
     estimated scf accuracy    <       0.00027690 Ry

     total magnetization       =   162.11 Bohr mag/cell
     absolute magnetization    =   168.77 Bohr mag/cell

     iteration # 33     ecut=    60.00 Ry     beta= 0.20
     Davidson diagonalization with overlap
     ethr =  2.68E-08,  avg # of iterations = 11.7

     negative rho (up, down):  1.342E-02 1.725E-02

     total cpu time spent up to now is     3313.8 secs

     total energy              =  -21096.12587207 Ry
     estimated scf accuracy    <       0.00007612 Ry

     total magnetization       =   162.11 Bohr mag/cell
     absolute magnetization    =   168.78 Bohr mag/cell

     iteration # 34     ecut=    60.00 Ry     beta= 0.20
     Davidson diagonalization with overlap
     ethr =  7.38E-09,  avg # of iterations = 11.1

     negative rho (up, down):  1.313E-02 1.693E-02

     total cpu time spent up to now is     3501.2 secs

     total energy              =  -21096.12518337 Ry
     estimated scf accuracy    <       0.00007234 Ry

     total magnetization       =   162.12 Bohr mag/cell
     absolute magnetization    =   168.78 Bohr mag/cell

     iteration # 35     ecut=    60.00 Ry     beta= 0.20
     Davidson diagonalization with overlap
     ethr =  7.01E-09,  avg # of iterations =  4.0

     negative rho (up, down):  1.285E-02 1.663E-02

     total cpu time spent up to now is     3574.5 secs

     total energy              =  -21096.12430673 Ry
     estimated scf accuracy    <       0.00006148 Ry

     total magnetization       =   162.11 Bohr mag/cell
     absolute magnetization    =   168.77 Bohr mag/cell

     iteration # 36     ecut=    60.00 Ry     beta= 0.20
     Davidson diagonalization with overlap
     ethr =  5.96E-09,  avg # of iterations =  8.6

     negative rho (up, down):  1.141E-02 1.511E-02

     total cpu time spent up to now is     3656.7 secs

     total energy              =  -21096.12319583 Ry
     estimated scf accuracy    <       0.00003503 Ry

     total magnetization       =   162.11 Bohr mag/cell
     absolute magnetization    =   168.77 Bohr mag/cell

     iteration # 37     ecut=    60.00 Ry     beta= 0.20
     Davidson diagonalization with overlap
     ethr =  3.39E-09,  avg # of iterations = 10.2

     negative rho (up, down):  1.105E-02 1.475E-02

     total cpu time spent up to now is     3842.4 secs

     total energy              =  -21096.12307949 Ry
     estimated scf accuracy    <       0.00003583 Ry

     total magnetization       =   162.10 Bohr mag/cell
     absolute magnetization    =   168.76 Bohr mag/cell

     iteration # 38     ecut=    60.00 Ry     beta= 0.20
     Davidson diagonalization with overlap
     ethr =  3.39E-09,  avg # of iterations = 10.5

     negative rho (up, down):  1.074E-02 1.441E-02

     total cpu time spent up to now is     3950.7 secs

     total energy              =  -21096.12284382 Ry
     estimated scf accuracy    <       0.00000739 Ry

     total magnetization       =   162.10 Bohr mag/cell
     absolute magnetization    =   168.76 Bohr mag/cell

     iteration # 39     ecut=    60.00 Ry     beta= 0.20
     Davidson diagonalization with overlap
     ethr =  7.16E-10,  avg # of iterations =  8.3

     negative rho (up, down):  1.070E-02 1.436E-02

     total cpu time spent up to now is     4050.4 secs

     total energy              =  -21096.12275799 Ry
     estimated scf accuracy    <       0.00000193 Ry

     total magnetization       =   162.10 Bohr mag/cell
     absolute magnetization    =   168.76 Bohr mag/cell

     iteration # 40     ecut=    60.00 Ry     beta= 0.20
     Davidson diagonalization with overlap
     ethr =  1.87E-10,  avg # of iterations = 10.9

     negative rho (up, down):  1.078E-02 1.445E-02

     total cpu time spent up to now is     4198.7 secs

     total energy              =  -21096.12277827 Ry
     estimated scf accuracy    <       0.00000141 Ry

     total magnetization       =   162.11 Bohr mag/cell
     absolute magnetization    =   168.77 Bohr mag/cell

     iteration # 41     ecut=    60.00 Ry     beta= 0.20
     Davidson diagonalization with overlap
     ethr =  1.37E-10,  avg # of iterations =  8.4

     negative rho (up, down):  1.078E-02 1.444E-02

     total cpu time spent up to now is     4267.5 secs

     total energy              =  -21096.12271398 Ry
     estimated scf accuracy    <       0.00000056 Ry

     total magnetization       =   162.12 Bohr mag/cell
     absolute magnetization    =   168.78 Bohr mag/cell

     iteration # 42     ecut=    60.00 Ry     beta= 0.20
     Davidson diagonalization with overlap
     ethr =  5.46E-11,  avg # of iterations =  9.3

     negative rho (up, down):  1.078E-02 1.444E-02

     total cpu time spent up to now is     4410.7 secs

     total energy              =  -21096.12271307 Ry
     estimated scf accuracy    <       0.00000049 Ry

     total magnetization       =   162.12 Bohr mag/cell
     absolute magnetization    =   168.79 Bohr mag/cell

     iteration # 43     ecut=    60.00 Ry     beta= 0.20
     Davidson diagonalization with overlap
     ethr =  4.77E-11,  avg # of iterations =  1.0

     negative rho (up, down):  1.080E-02 1.446E-02

     total cpu time spent up to now is     4457.7 secs

     total energy              =  -21096.12271489 Ry
     estimated scf accuracy    <       0.00000041 Ry

     total magnetization       =   162.12 Bohr mag/cell
     absolute magnetization    =   168.79 Bohr mag/cell

     iteration # 44     ecut=    60.00 Ry     beta= 0.20
     Davidson diagonalization with overlap
     ethr =  3.97E-11,  avg # of iterations =  7.0

     negative rho (up, down):  1.079E-02 1.445E-02

     total cpu time spent up to now is     4519.4 secs

     total energy              =  -21096.12271382 Ry
     estimated scf accuracy    <       0.00000033 Ry

     total magnetization       =   162.12 Bohr mag/cell
     absolute magnetization    =   168.79 Bohr mag/cell

     iteration # 45     ecut=    60.00 Ry     beta= 0.20
     Davidson diagonalization with overlap
     ethr =  3.24E-11,  avg # of iterations =  2.0

     negative rho (up, down):  1.079E-02 1.445E-02

     total cpu time spent up to now is     4575.6 secs

     total energy              =  -21096.12273664 Ry
     estimated scf accuracy    <       0.00000039 Ry

     total magnetization       =   162.12 Bohr mag/cell
     absolute magnetization    =   168.79 Bohr mag/cell

     iteration # 46     ecut=    60.00 Ry     beta= 0.20
     Davidson diagonalization with overlap
     ethr =  3.24E-11,  avg # of iterations =  1.4

     negative rho (up, down):  1.072E-02 1.439E-02

     total cpu time spent up to now is     4626.6 secs

     total energy              =  -21096.12279867 Ry
     estimated scf accuracy    <       0.00000027 Ry

     total magnetization       =   162.12 Bohr mag/cell
     absolute magnetization    =   168.79 Bohr mag/cell

     iteration # 47     ecut=    60.00 Ry     beta= 0.20
     Davidson diagonalization with overlap
     ethr =  2.61E-11,  avg # of iterations =  8.0

     negative rho (up, down):  1.072E-02 1.439E-02

     total cpu time spent up to now is     4731.6 secs

     total energy              =  -21096.12276037 Ry
     estimated scf accuracy    <       0.00000013 Ry

     total magnetization       =   162.13 Bohr mag/cell
     absolute magnetization    =   168.80 Bohr mag/cell

     iteration # 48     ecut=    60.00 Ry     beta= 0.20
     Davidson diagonalization with overlap
     ethr =  1.29E-11,  avg # of iterations =  9.9

     negative rho (up, down):  1.074E-02 1.440E-02

     total cpu time spent up to now is     4872.7 secs

     total energy              =  -21096.12275843 Ry
     estimated scf accuracy    <       0.00000005 Ry

     total magnetization       =   162.13 Bohr mag/cell
     absolute magnetization    =   168.80 Bohr mag/cell

     iteration # 49     ecut=    60.00 Ry     beta= 0.20
     Davidson diagonalization with overlap
     ethr =  5.33E-12,  avg # of iterations =  7.0

     negative rho (up, down):  1.074E-02 1.440E-02

     total cpu time spent up to now is     4987.0 secs

     total energy              =  -21096.12275368 Ry
     estimated scf accuracy    <       0.00000003 Ry

     total magnetization       =   162.13 Bohr mag/cell
     absolute magnetization    =   168.80 Bohr mag/cell

     iteration # 50     ecut=    60.00 Ry     beta= 0.20
     Davidson diagonalization with overlap
     ethr =  2.47E-12,  avg # of iterations =  8.8

     negative rho (up, down):  1.075E-02 1.442E-02

     total cpu time spent up to now is     5095.2 secs

     total energy              =  -21096.12276245 Ry
     estimated scf accuracy    <       0.00000002 Ry

     total magnetization       =   162.13 Bohr mag/cell
     absolute magnetization    =   168.80 Bohr mag/cell

     iteration # 51     ecut=    60.00 Ry     beta= 0.20
     Davidson diagonalization with overlap
     ethr =  1.96E-12,  avg # of iterations =  8.2

     negative rho (up, down):  1.077E-02 1.443E-02

     total cpu time spent up to now is     5177.9 secs

     total energy              =  -21096.12275553 Ry
     estimated scf accuracy    <       0.00000002 Ry

     total magnetization       =   162.13 Bohr mag/cell
     absolute magnetization    =   168.80 Bohr mag/cell

     iteration # 52     ecut=    60.00 Ry     beta= 0.20
     Davidson diagonalization with overlap
     ethr =  1.75E-12,  avg # of iterations =  8.0

     negative rho (up, down):  1.075E-02 1.440E-02

     Magnetic moment per site:
     atom:    1    charge:   13.4622    magn:    2.5530    constr:    0.0000
     atom:    2    charge:   13.4735    magn:    2.3194    constr:    0.0000
     atom:    3    charge:   13.4612    magn:    2.5507    constr:    0.0000
     atom:    4    charge:   13.4716    magn:    2.3559    constr:    0.0000
     atom:    5    charge:   13.4758    magn:    2.3401    constr:    0.0000
     atom:    6    charge:   13.4620    magn:    2.5332    constr:    0.0000
     atom:    7    charge:   13.4814    magn:    2.2983    constr:    0.0000
     atom:    8    charge:   13.4621    magn:    2.5321    constr:    0.0000
     atom:    9    charge:   13.4619    magn:    2.5504    constr:    0.0000
     atom:   10    charge:   13.4619    magn:    2.5504    constr:    0.0000
     atom:   11    charge:   13.4725    magn:    2.3471    constr:    0.0000
     atom:   12    charge:   13.4726    magn:    2.3472    constr:    0.0000
     atom:   13    charge:   13.4750    magn:    2.3552    constr:    0.0000
     atom:   14    charge:   13.4750    magn:    2.3551    constr:    0.0000
     atom:   15    charge:   13.4627    magn:    2.5353    constr:    0.0000
     atom:   16    charge:   13.4627    magn:    2.5354    constr:    0.0000
     atom:   17    charge:   13.4619    magn:    2.5476    constr:    0.0000
     atom:   18    charge:   13.4717    magn:    2.3568    constr:    0.0000
     atom:   19    charge:   13.4619    magn:    2.5478    constr:    0.0000
     atom:   20    charge:   13.4713    magn:    2.3475    constr:    0.0000
     atom:   21    charge:   13.4780    magn:    2.3254    constr:    0.0000
     atom:   22    charge:   13.4638    magn:    2.5255    constr:    0.0000
     atom:   23    charge:   13.4779    magn:    2.3272    constr:    0.0000
     atom:   24    charge:   13.4705    magn:    2.4861    constr:    0.0000
     atom:   25    charge:   13.4613    magn:    2.5474    constr:    0.0000
     atom:   26    charge:   13.4620    magn:    2.5511    constr:    0.0000
     atom:   27    charge:   13.4721    magn:    2.3534    constr:    0.0000
     atom:   28    charge:   13.4726    magn:    2.3454    constr:    0.0000
     atom:   29    charge:   13.4710    magn:    2.3074    constr:    0.0000
     atom:   30    charge:   13.4812    magn:    2.2838    constr:    0.0000
     atom:   31    charge:   13.4670    magn:    2.5254    constr:    0.0000
     atom:   32    charge:   13.4629    magn:    2.5348    constr:    0.0000
     atom:   33    charge:   13.4619    magn:    2.5475    constr:    0.0000
     atom:   34    charge:   13.4717    magn:    2.3568    constr:    0.0000
     atom:   35    charge:   13.4619    magn:    2.5477    constr:    0.0000
     atom:   36    charge:   13.4713    magn:    2.3473    constr:    0.0000
     atom:   37    charge:   13.4781    magn:    2.3251    constr:    0.0000
     atom:   38    charge:   13.4638    magn:    2.5255    constr:    0.0000
     atom:   39    charge:   13.4779    magn:    2.3271    constr:    0.0000
     atom:   40    charge:   13.4702    magn:    2.4890    constr:    0.0000
     atom:   41    charge:   13.4620    magn:    2.5509    constr:    0.0000
     atom:   42    charge:   13.4613    magn:    2.5474    constr:    0.0000
     atom:   43    charge:   13.4727    magn:    2.3455    constr:    0.0000
     atom:   44    charge:   13.4721    magn:    2.3534    constr:    0.0000
     atom:   45    charge:   13.4811    magn:    2.2840    constr:    0.0000
     atom:   46    charge:   13.4711    magn:    2.3062    constr:    0.0000
     atom:   47    charge:   13.4629    magn:    2.5349    constr:    0.0000
     atom:   48    charge:   13.4673    magn:    2.5232    constr:    0.0000
     atom:   49    charge:   13.4612    magn:    2.5508    constr:    0.0000
     atom:   50    charge:   13.4717    magn:    2.3316    constr:    0.0000
     atom:   51    charge:   13.4622    magn:    2.5527    constr:    0.0000
     atom:   52    charge:   13.4716    magn:    2.3551    constr:    0.0000
     atom:   53    charge:   13.4810    magn:    2.3011    constr:    0.0000
     atom:   54    charge:   13.4613    magn:    2.2513    constr:    0.0000
     atom:   55    charge:   13.4761    magn:    2.3381    constr:    0.0000
     atom:   56    charge:   13.4625    magn:    2.5320    constr:    0.0000
     atom:   57    charge:   13.4619    magn:    2.5503    constr:    0.0000
     atom:   58    charge:   13.4619    magn:    2.5503    constr:    0.0000
     atom:   59    charge:   13.4720    magn:    2.3546    constr:    0.0000
     atom:   60    charge:   13.4720    magn:    2.3546    constr:    0.0000
     atom:   61    charge:   13.4753    magn:    2.3529    constr:    0.0000
     atom:   62    charge:   13.4753    magn:    2.3528    constr:    0.0000
     atom:   63    charge:   13.4673    magn:    2.5237    constr:    0.0000
     atom:   64    charge:   13.4670    magn:    2.5260    constr:    0.0000
     atom:   65    charge:    1.3549    magn:   -0.0030    constr:    0.0000
     atom:   66    charge:    0.4390    magn:    0.0006    constr:    0.0000
     atom:   67    charge:    0.4376    magn:    0.0015    constr:    0.0000
     atom:   68    charge:    0.4386    magn:    0.0004    constr:    0.0000

     total cpu time spent up to now is     5238.1 secs

     End of self-consistent calculation

 ------ SPIN UP ------------


          k = 0.0000 0.0000 0.0000 (128403 PWs)   bands (ev):

   -88.6958 -88.6799 -88.6784 -88.6776 -88.6769 -88.6758 -88.6669 -88.6654
   -88.6640 -88.6625 -88.6614 -88.6603 -88.6598 -88.6594 -88.6580 -88.6548
   -88.6532 -88.6500 -88.6481 -88.6475 -88.6466 -88.6459 -88.6457 -88.6440
   -88.6358 -88.6356 -88.6317 -88.6231 -88.6225 -88.5864 -88.5834 -88.5743
   -88.5513 -88.5358 -88.5334 -88.5275 -88.5273 -88.5220 -88.5178 -88.5166
   -88.5139 -88.5103 -88.5089 -88.5047 -88.5035 -88.5018 -88.5014 -88.5007
   -88.5000 -88.4997 -88.4990 -88.4973 -88.4962 -88.4917 -88.4901 -88.4858
   -88.4843 -88.4826 -88.4799 -88.4768 -88.4625 -88.4600 -88.4579 -88.4505
   -54.8935 -54.8714 -54.8692 -54.8688 -54.8661 -54.8654 -54.8627 -54.8599
   -54.8570 -54.8560 -54.8496 -54.8493 -54.8480 -54.8461 -54.8455 -54.8438
   -54.8425 -54.8410 -54.8409 -54.8389 -54.8385 -54.8356 -54.8311 -54.8285
   -54.8267 -54.8263 -54.8176 -54.8170 -54.8141 -54.8102 -54.8014 -54.8009
   -54.8005 -54.7997 -54.7888 -54.7887 -54.7791 -54.7786 -54.7781 -54.7781
   -54.7702 -54.7679 -54.7597 -54.7590 -54.7556 -54.7551 -54.7316 -54.7171
   -54.7065 -54.7028 -54.7025 -54.7016 -54.6992 -54.6987 -54.6974 -54.6973
   -54.6915 -54.6914 -54.6905 -54.6853 -54.6851 -54.6841 -54.6806 -54.6794
   -54.6779 -54.6751 -54.6723 -54.6683 -54.6674 -54.6666 -54.6655 -54.6642
   -54.6580 -54.6559 -54.6557 -54.6505 -54.6492 -54.6491 -54.6478 -54.6404
   -54.6327 -54.6322 -54.6313 -54.6307 -54.6269 -54.6243 -54.6234 -54.6232
   -54.6229 -54.6203 -54.6189 -54.6166 -54.6144 -54.6080 -54.6041 -54.6008
   -54.5998 -54.5990 -54.5933 -54.5928 -54.5907 -54.5900 -54.5858 -54.5818
   -54.5785 -54.5769 -54.5721 -54.5709 -54.5680 -54.5660 -54.5658 -54.5639
   -54.5627 -54.5622 -54.5602 -54.5592 -54.5548 -54.5548 -54.5543 -54.5520
   -54.5514 -54.5497 -54.5473 -54.5443 -54.5430 -54.5424 -54.5389 -54.5383
   -54.5363 -54.5346 -54.5338 -54.5311 -54.5306 -54.5251 -54.5247 -54.5223
   -54.5219 -54.5213 -54.5211 -54.5144 -54.5107 -54.5097 -54.5052 -54.5036
   -54.5002 -54.4948 -54.4941 -54.4934 -54.4927 -54.4917 -54.4888 -54.4787
   -54.4778 -54.4761 -54.4750 -54.4730 -54.4683 -54.4644 -54.4624 -54.4600
   -54.4574 -54.4564 -54.4543 -54.4510 -54.4508 -54.4502 -54.4482 -54.4478
   -54.4423 -54.4416 -54.4409 -54.4396 -54.4349 -54.4300 -54.4267 -54.4238
   -54.4186 -54.4116 -54.4100 -54.4096 -54.4032 -54.4014 -54.4009 -54.4007
   -54.4001 -54.3997 -54.3983 -54.3980 -54.3959 -54.3943 -54.3925 -54.3898
   -19.6510  -9.8728  -9.8667  -8.4574  -7.2580  -6.8280  -6.7754  -6.7726
    -6.7702  -6.4427  -6.3007  -6.2369  -5.8266  -5.7903  -5.7901  -5.7895
    -5.6600  -5.3662  -5.3543  -5.3176  -5.1477  -5.1476  -5.1287  -5.1271
    -5.1100  -5.0643  -5.0397  -4.9665  -4.9596  -4.7192  -4.7172  -4.7126
    -4.6891  -4.6712  -4.6283  -4.5777  -4.5711  -4.5703  -4.5690  -4.5663
    -4.5628  -4.5615  -4.5574  -4.5545  -4.5525  -4.5462  -4.5456  -4.5407
    -4.5246  -4.5093  -4.5012  -4.4958  -4.4791  -4.4741  -4.4716  -4.4686
    -4.4586  -4.4341  -4.3648  -4.3619  -4.3591  -4.3571  -4.2906  -4.2903
    -4.2825  -4.2703  -4.0083  -3.9993  -3.9800  -3.9746  -3.9727  -3.9584
    -3.8625  -3.8596  -3.8274  -3.8069  -3.8042  -3.8029  -3.7920  -3.7895
    -3.7806  -3.7794  -3.7761  -3.7759  -3.7585  -3.7573  -3.7533  -3.7502
    -3.7481  -3.7290  -3.7288  -3.7194  -3.7163  -3.7100  -3.7087  -3.6988
    -3.6969  -3.6950  -3.6881  -3.6629  -3.6625  -3.6611  -3.6516  -3.6434
    -3.6423  -3.6318  -3.6310  -3.6233  -3.6060  -3.5998  -3.5969  -3.5624
    -3.5216  -3.4650  -3.4529  -3.4252  -3.4187  -3.4162  -3.4010  -3.4001
    -3.3202  -3.3006  -3.2304  -3.2262  -3.2186  -3.2142  -3.2110  -3.2006
    -3.1929  -3.1837  -3.1827  -3.1513  -3.1462  -3.1426  -3.1306  -3.1302
    -3.1270  -3.0981  -3.0898  -3.0897  -3.0811  -3.0769  -3.0755  -3.0727
    -3.0692  -3.0463  -3.0158  -3.0106  -2.9458  -2.9406  -2.9356  -2.9315
    -2.9287  -2.9213  -2.9209  -2.8954  -2.8730  -2.8676  -2.8668  -2.8515
    -2.8366  -2.8055  -2.7831  -2.7811  -2.7802  -2.7776  -2.7639  -2.7531
    -2.7500  -2.7123  -2.7058  -2.7052  -2.7007  -2.6878  -2.6828  -2.6732
    -2.6713  -2.6603  -2.6538  -2.6528  -2.6520  -2.6353  -2.6310  -2.6250
    -2.6205  -2.6132  -2.5966  -2.5823  -2.5626  -2.5229  -2.4702  -2.4018
    -2.3925  -2.2590  -2.2298  -2.1272  -2.1201  -2.1123  -2.1096  -2.1091
    -2.1069  -2.0960  -2.0906  -2.0884  -2.0881  -2.0519  -2.0454  -2.0246
    -2.0233  -2.0201  -1.9866  -1.9789  -1.9469  -1.9435  -1.9388  -1.9375
    -1.9125  -1.9100  -1.9094  -1.8977  -1.8975  -1.8964  -1.8901  -1.8742
    -1.8510  -1.8335  -1.8296  -1.8084  -1.8048  -1.8044  -1.8037  -1.7987
    -1.7744  -1.7696  -1.7674  -1.7633  -1.7593  -1.7590  -1.7472  -1.7469
    -1.7272  -1.7206  -1.7149  -1.7132  -1.7036  -1.7033  -1.6986  -1.6899
    -1.6858  -1.6844  -1.6827  -1.6763  -1.6758  -1.6743  -1.6732  -1.6664
    -1.6628  -1.6542  -1.6498  -1.6477  -1.6464  -1.6334  -1.6294  -1.6275
    -1.6222  -1.6205  -1.6184  -1.6123  -1.6019  -1.5983  -1.5714  -1.5687
    -1.5681  -1.5671  -1.5660  -1.5658  -1.5573  -1.5538  -1.5523  -1.5430
    -1.5410  -1.5206  -1.5129  -1.5104  -1.5094  -1.4598  -1.4563  -1.4528
    -1.4527  -1.4489  -1.4301  -1.4260  -1.4108  -1.4087  -1.4026  -1.3025
    -1.3007  -1.2969  -1.2888  -1.2879  -1.2799  -1.2783  -1.2660  -1.2657
    -1.2649  -1.2630  -1.2619  -1.2473  -1.2426  -1.2266  -1.2246  -1.2208
    -1.2032  -1.2024  -1.2005  -1.1969  -1.1162  -1.1070  -1.0009  -0.8233
    -0.7867  -0.7707  -0.7648  -0.7543  -0.7383  -0.6841  -0.6820  -0.6728
    -0.6617  -0.6151  -0.6024  -0.5460  -0.5441  -0.5415  -0.5287  -0.4984
    -0.4855  -0.4700  -0.4585  -0.4450  -0.4214  -0.3210  -0.3193  -0.2524
    -0.2472  -0.2148  -0.1849  -0.1501   0.0005   0.4720   0.4912   0.5081
     0.5107   0.5169   0.5587   0.6840   1.1178   1.2574   1.2729   1.2841
     1.4275   1.4384   1.4395

          k = 0.0000 0.2652 0.0000 (128375 PWs)   bands (ev):

   -88.6945 -88.6850 -88.6780 -88.6758 -88.6757 -88.6715 -88.6707 -88.6670
   -88.6662 -88.6625 -88.6620 -88.6599 -88.6580 -88.6578 -88.6545 -88.6542
   -88.6531 -88.6527 -88.6497 -88.6480 -88.6473 -88.6465 -88.6439 -88.6429
   -88.6366 -88.6348 -88.6317 -88.6232 -88.6226 -88.5864 -88.5835 -88.5743
   -88.5499 -88.5403 -88.5305 -88.5294 -88.5259 -88.5203 -88.5182 -88.5160
   -88.5124 -88.5110 -88.5087 -88.5074 -88.5054 -88.5032 -88.5014 -88.5005
   -88.5001 -88.4987 -88.4965 -88.4960 -88.4953 -88.4925 -88.4907 -88.4864
   -88.4849 -88.4834 -88.4785 -88.4768 -88.4624 -88.4608 -88.4564 -88.4513
   -54.8915 -54.8775 -54.8704 -54.8668 -54.8660 -54.8640 -54.8618 -54.8581
   -54.8567 -54.8540 -54.8532 -54.8525 -54.8479 -54.8470 -54.8444 -54.8433
   -54.8429 -54.8409 -54.8397 -54.8381 -54.8354 -54.8350 -54.8307 -54.8294
   -54.8282 -54.8237 -54.8183 -54.8146 -54.8107 -54.8089 -54.8017 -54.7986
   -54.7956 -54.7918 -54.7857 -54.7851 -54.7809 -54.7801 -54.7743 -54.7734
   -54.7659 -54.7642 -54.7595 -54.7586 -54.7554 -54.7470 -54.7317 -54.7259
   -54.7224 -54.7189 -54.7135 -54.7103 -54.7091 -54.6999 -54.6971 -54.6963
   -54.6934 -54.6923 -54.6907 -54.6888 -54.6857 -54.6835 -54.6817 -54.6795
   -54.6786 -54.6766 -54.6735 -54.6720 -54.6701 -54.6685 -54.6660 -54.6646
   -54.6638 -54.6606 -54.6601 -54.6580 -54.6550 -54.6472 -54.6463 -54.6404
   -54.6397 -54.6378 -54.6355 -54.6296 -54.6272 -54.6249 -54.6231 -54.6213
   -54.6145 -54.6129 -54.6118 -54.6087 -54.6080 -54.6048 -54.6014 -54.6007
   -54.5989 -54.5965 -54.5954 -54.5930 -54.5908 -54.5870 -54.5825 -54.5809
   -54.5775 -54.5757 -54.5743 -54.5726 -54.5713 -54.5710 -54.5692 -54.5685
   -54.5653 -54.5633 -54.5622 -54.5610 -54.5582 -54.5574 -54.5566 -54.5546
   -54.5507 -54.5480 -54.5426 -54.5397 -54.5385 -54.5366 -54.5361 -54.5357
   -54.5337 -54.5315 -54.5309 -54.5261 -54.5260 -54.5247 -54.5232 -54.5212
   -54.5164 -54.5146 -54.5129 -54.5119 -54.5087 -54.5079 -54.5027 -54.4984
   -54.4976 -54.4970 -54.4947 -54.4930 -54.4921 -54.4896 -54.4871 -54.4785
   -54.4758 -54.4739 -54.4731 -54.4713 -54.4688 -54.4682 -54.4638 -54.4629
   -54.4598 -54.4583 -54.4537 -54.4508 -54.4492 -54.4478 -54.4443 -54.4431
   -54.4414 -54.4392 -54.4365 -54.4345 -54.4328 -54.4292 -54.4269 -54.4244
   -54.4187 -54.4157 -54.4138 -54.4114 -54.4086 -54.4066 -54.4062 -54.4050
   -54.4030 -54.4016 -54.4011 -54.3992 -54.3989 -54.3973 -54.3947 -54.3916
   -19.6510  -9.8729  -9.8667  -8.3411  -7.4634  -7.1507  -6.9289  -6.6834
    -6.5143  -6.4150  -6.2160  -6.0407  -5.8650  -5.8242  -5.7070  -5.6097
    -5.5113  -5.4379  -5.3681  -5.2804  -5.1888  -5.1431  -5.0886  -5.0691
    -5.0608  -5.0454  -5.0176  -5.0115  -4.9950  -4.8579  -4.7819  -4.7506
    -4.7154  -4.7129  -4.7028  -4.6812  -4.6713  -4.6683  -4.6570  -4.6463
    -4.6381  -4.6152  -4.6113  -4.6010  -4.5792  -4.5750  -4.5494  -4.5374
    -4.5250  -4.5132  -4.4935  -4.4898  -4.4689  -4.4482  -4.4261  -4.4170
    -4.3949  -4.3930  -4.3871  -4.3796  -4.3587  -4.2651  -4.2362  -4.2224
    -4.2143  -4.1943  -4.1669  -4.0848  -4.0511  -4.0320  -3.9814  -3.9634
    -3.9173  -3.9109  -3.8686  -3.8265  -3.8169  -3.8092  -3.7986  -3.7892
    -3.7850  -3.7756  -3.7619  -3.7562  -3.7484  -3.7447  -3.7434  -3.7395
    -3.7244  -3.7129  -3.7090  -3.7045  -3.6995  -3.6851  -3.6802  -3.6723
    -3.6669  -3.6629  -3.6557  -3.6544  -3.6492  -3.6450  -3.6434  -3.6239
    -3.6066  -3.5825  -3.5661  -3.5591  -3.5490  -3.5462  -3.5265  -3.5106
    -3.5077  -3.4940  -3.4888  -3.4824  -3.4103  -3.4005  -3.3855  -3.3528
    -3.3247  -3.3217  -3.3130  -3.2951  -3.2788  -3.2190  -3.2102  -3.2036
    -3.1965  -3.1920  -3.1864  -3.1736  -3.1719  -3.1632  -3.1604  -3.1455
    -3.1418  -3.1270  -3.1089  -3.1053  -3.0985  -3.0870  -3.0649  -3.0519
    -3.0476  -3.0103  -3.0060  -2.9770  -2.9728  -2.9612  -2.9488  -2.9400
    -2.9275  -2.9180  -2.9105  -2.9076  -2.8952  -2.8885  -2.8837  -2.8751
    -2.8635  -2.8593  -2.8536  -2.8403  -2.8352  -2.8065  -2.7895  -2.7846
    -2.7586  -2.7368  -2.7347  -2.7153  -2.7031  -2.6976  -2.6719  -2.6620
    -2.6590  -2.6431  -2.6364  -2.6252  -2.6176  -2.5811  -2.5637  -2.5386
    -2.5256  -2.5120  -2.4858  -2.4569  -2.4429  -2.4392  -2.4002  -2.3569
    -2.2516  -2.2349  -2.2244  -2.1970  -2.1855  -2.1665  -2.1614  -2.1273
    -2.1138  -2.1006  -2.0970  -2.0790  -2.0761  -2.0634  -2.0478  -2.0425
    -2.0410  -2.0302  -2.0272  -2.0136  -1.9943  -1.9806  -1.9577  -1.9328
    -1.9187  -1.9079  -1.8993  -1.8940  -1.8870  -1.8781  -1.8732  -1.8673
    -1.8657  -1.8616  -1.8495  -1.8441  -1.8376  -1.8307  -1.8077  -1.8038
    -1.7879  -1.7793  -1.7710  -1.7602  -1.7497  -1.7447  -1.7395  -1.7351
    -1.7305  -1.7248  -1.7192  -1.7156  -1.7138  -1.6988  -1.6980  -1.6930
    -1.6869  -1.6802  -1.6708  -1.6666  -1.6632  -1.6546  -1.6479  -1.6409
    -1.6309  -1.6303  -1.6261  -1.6229  -1.6199  -1.6166  -1.6143  -1.6125
    -1.5954  -1.5908  -1.5864  -1.5771  -1.5724  -1.5702  -1.5667  -1.5614
    -1.5548  -1.5523  -1.5521  -1.5490  -1.5281  -1.5259  -1.5141  -1.5053
    -1.4987  -1.4952  -1.4738  -1.4517  -1.4441  -1.4219  -1.4177  -1.4043
    -1.4006  -1.3972  -1.3892  -1.3804  -1.3732  -1.3721  -1.3654  -1.3616
    -1.3555  -1.3510  -1.3261  -1.2945  -1.2867  -1.2825  -1.2771  -1.2759
    -1.2691  -1.2571  -1.2509  -1.2346  -1.2330  -1.2274  -1.2103  -1.1990
    -1.1648  -1.1035  -1.0961  -1.0851  -1.0698  -0.8793  -0.8609  -0.8548
    -0.8423  -0.8220  -0.8095  -0.8055  -0.7895  -0.7785  -0.7455  -0.7024
    -0.6954  -0.6845  -0.6752  -0.6667  -0.6548  -0.6513  -0.6387  -0.6144
    -0.6078  -0.5683  -0.5626  -0.5445  -0.5132  -0.4792  -0.4495  -0.3858
    -0.3526  -0.2760  -0.1104   0.0261   0.1770   0.3340   0.3458   0.3776
     0.5690   0.6034   0.7600   0.7679   0.8582   0.9039   0.9551   1.0492
     1.1287   1.2425   1.3291

          k = 0.0000-0.5303 0.0000 (128388 PWs)   bands (ev):

   -88.6908 -88.6905 -88.6757 -88.6756 -88.6739 -88.6717 -88.6715 -88.6702
   -88.6653 -88.6650 -88.6625 -88.6570 -88.6569 -88.6559 -88.6551 -88.6537
   -88.6537 -88.6523 -88.6501 -88.6501 -88.6477 -88.6473 -88.6437 -88.6393
   -88.6391 -88.6340 -88.6318 -88.6234 -88.6225 -88.5864 -88.5835 -88.5743
   -88.5461 -88.5458 -88.5308 -88.5276 -88.5244 -88.5236 -88.5148 -88.5142
   -88.5130 -88.5115 -88.5091 -88.5079 -88.5075 -88.5047 -88.5013 -88.5007
   -88.4989 -88.4984 -88.4966 -88.4950 -88.4943 -88.4925 -88.4894 -88.4882
   -88.4864 -88.4829 -88.4779 -88.4767 -88.4623 -88.4612 -88.4546 -88.4528
   -54.8858 -54.8853 -54.8698 -54.8696 -54.8633 -54.8614 -54.8604 -54.8584
   -54.8583 -54.8560 -54.8526 -54.8524 -54.8474 -54.8472 -54.8466 -54.8428
   -54.8418 -54.8417 -54.8384 -54.8369 -54.8340 -54.8314 -54.8310 -54.8306
   -54.8299 -54.8214 -54.8195 -54.8149 -54.8078 -54.8023 -54.7953 -54.7950
   -54.7938 -54.7934 -54.7851 -54.7836 -54.7758 -54.7723 -54.7685 -54.7675
   -54.7599 -54.7582 -54.7559 -54.7523 -54.7516 -54.7502 -54.7441 -54.7367
   -54.7365 -54.7360 -54.7214 -54.7168 -54.7158 -54.7150 -54.7102 -54.7018
   -54.6933 -54.6910 -54.6893 -54.6866 -54.6861 -54.6841 -54.6814 -54.6792
   -54.6790 -54.6724 -54.6696 -54.6692 -54.6677 -54.6669 -54.6639 -54.6606
   -54.6604 -54.6586 -54.6573 -54.6564 -54.6554 -54.6496 -54.6490 -54.6470
   -54.6455 -54.6446 -54.6436 -54.6388 -54.6382 -54.6321 -54.6311 -54.6294
   -54.6276 -54.6188 -54.6135 -54.6113 -54.6039 -54.5985 -54.5977 -54.5976
   -54.5938 -54.5875 -54.5874 -54.5849 -54.5834 -54.5799 -54.5782 -54.5738
   -54.5737 -54.5729 -54.5722 -54.5710 -54.5702 -54.5679 -54.5675 -54.5665
   -54.5633 -54.5627 -54.5612 -54.5605 -54.5581 -54.5565 -54.5561 -54.5536
   -54.5523 -54.5491 -54.5486 -54.5472 -54.5467 -54.5404 -54.5391 -54.5336
   -54.5319 -54.5295 -54.5285 -54.5284 -54.5240 -54.5198 -54.5176 -54.5158
   -54.5120 -54.5112 -54.5109 -54.5085 -54.5077 -54.5007 -54.4990 -54.4971
   -54.4967 -54.4958 -54.4935 -54.4927 -54.4922 -54.4884 -54.4858 -54.4821
   -54.4803 -54.4755 -54.4716 -54.4712 -54.4699 -54.4673 -54.4633 -54.4613
   -54.4597 -54.4547 -54.4500 -54.4447 -54.4431 -54.4422 -54.4406 -54.4371
   -54.4359 -54.4319 -54.4314 -54.4309 -54.4298 -54.4281 -54.4276 -54.4267
   -54.4217 -54.4206 -54.4201 -54.4179 -54.4175 -54.4170 -54.4123 -54.4121
   -54.4110 -54.4080 -54.4026 -54.4015 -54.3993 -54.3979 -54.3944 -54.3928
   -19.6510  -9.8730  -9.8667  -8.0045  -7.9964  -6.9377  -6.8783  -6.8483
    -6.7958  -6.3333  -5.9770  -5.9626  -5.8283  -5.7664  -5.4678  -5.4642
    -5.4420  -5.4052  -5.3353  -5.3208  -5.1998  -5.1967  -5.1722  -5.1324
    -5.0466  -5.0413  -4.9271  -4.9262  -4.9163  -4.9144  -4.9024  -4.8961
    -4.8698  -4.8685  -4.8610  -4.8562  -4.7706  -4.7677  -4.7108  -4.6981
    -4.6961  -4.6701  -4.5505  -4.5453  -4.5433  -4.5376  -4.4725  -4.4718
    -4.4652  -4.4572  -4.4478  -4.4432  -4.4401  -4.4289  -4.4178  -4.4137
    -4.4084  -4.4023  -4.3074  -4.2944  -4.2931  -4.2888  -4.2768  -4.2760
    -4.2649  -4.2553  -4.1729  -4.1603  -4.1085  -4.0988  -4.0630  -4.0596
    -3.9925  -3.9798  -3.8499  -3.8359  -3.8102  -3.8090  -3.7833  -3.7802
    -3.7729  -3.7642  -3.7606  -3.7538  -3.7447  -3.7407  -3.7350  -3.7217
    -3.7179  -3.7027  -3.7017  -3.7006  -3.6949  -3.6924  -3.6871  -3.6848
    -3.6491  -3.6393  -3.6018  -3.5981  -3.5684  -3.5590  -3.5563  -3.5522
    -3.5299  -3.5245  -3.5121  -3.5119  -3.5048  -3.4977  -3.4973  -3.4966
    -3.4905  -3.4856  -3.4825  -3.4718  -3.4404  -3.4362  -3.4343  -3.4322
    -3.4231  -3.4154  -3.2934  -3.2666  -3.2446  -3.2246  -3.1814  -3.1795
    -3.1780  -3.1773  -3.1669  -3.1649  -3.1645  -3.1531  -3.1486  -3.1470
    -3.1454  -3.1383  -3.1303  -3.1271  -3.1192  -3.1159  -3.0874  -3.0866
    -3.0844  -3.0812  -3.0741  -3.0278  -3.0274  -3.0158  -3.0117  -3.0024
    -2.9894  -2.9885  -2.9583  -2.9520  -2.9442  -2.9430  -2.9194  -2.9189
    -2.9014  -2.8857  -2.8630  -2.8456  -2.8319  -2.8296  -2.7984  -2.7937
    -2.7048  -2.6970  -2.6879  -2.6822  -2.6763  -2.6669  -2.6509  -2.6461
    -2.6397  -2.6292  -2.6181  -2.5947  -2.5053  -2.5035  -2.3781  -2.3763
    -2.3690  -2.3636  -2.3566  -2.3537  -2.3167  -2.3047  -2.2969  -2.2721
    -2.2296  -2.2136  -2.2074  -2.2067  -2.1867  -2.1846  -2.1783  -2.1770
    -2.1713  -2.1703  -2.1603  -2.1500  -2.1444  -2.1431  -2.1274  -2.0962
    -2.0386  -2.0355  -2.0217  -2.0102  -2.0097  -2.0024  -1.9950  -1.9711
    -1.9668  -1.9459  -1.8957  -1.8942  -1.8757  -1.8752  -1.8706  -1.8635
    -1.8619  -1.8587  -1.8579  -1.8540  -1.8470  -1.8433  -1.8431  -1.8358
    -1.8297  -1.8251  -1.8216  -1.8179  -1.8076  -1.8041  -1.8032  -1.7723
    -1.7357  -1.7099  -1.7092  -1.6952  -1.6939  -1.6914  -1.6885  -1.6786
    -1.6730  -1.6694  -1.6605  -1.6575  -1.6544  -1.6506  -1.6475  -1.6425
    -1.6286  -1.6282  -1.6271  -1.6201  -1.6179  -1.6113  -1.6017  -1.5864
    -1.5735  -1.5629  -1.5623  -1.5533  -1.5503  -1.5137  -1.5094  -1.5018
    -1.4994  -1.4962  -1.4899  -1.4859  -1.4603  -1.4519  -1.4446  -1.4351
    -1.4195  -1.4135  -1.4128  -1.4111  -1.4072  -1.4053  -1.3989  -1.3952
    -1.3896  -1.3889  -1.3874  -1.3851  -1.3810  -1.3805  -1.3763  -1.3759
    -1.3705  -1.3591  -1.3568  -1.3178  -1.3087  -1.2832  -1.2741  -1.2132
    -1.2060  -1.2048  -1.1623  -1.1565  -1.1142  -1.1139  -1.1058  -1.1021
    -0.9916  -0.9873  -0.9854  -0.9832  -0.9619  -0.9582  -0.9165  -0.9151
    -0.9049  -0.9001  -0.8874  -0.8713  -0.8509  -0.8311  -0.8302  -0.8192
    -0.8157  -0.7815  -0.7392  -0.7174  -0.7009  -0.6895  -0.6622  -0.6533
    -0.6276  -0.6196  -0.6135  -0.6040  -0.5884  -0.5865  -0.5777  -0.5737
    -0.5634  -0.4218  -0.2341  -0.2239  -0.1184  -0.0543   0.4025   0.4075
     0.4357   0.5600   1.0022   1.0382   1.0550   1.0674   1.1590   1.1748
     1.2210   1.2221   1.2758

          k = 0.2500-0.0884 0.0000 (128371 PWs)   bands (ev):

   -88.6945 -88.6850 -88.6780 -88.6759 -88.6757 -88.6715 -88.6707 -88.6669
   -88.6662 -88.6627 -88.6620 -88.6599 -88.6580 -88.6578 -88.6543 -88.6542
   -88.6531 -88.6528 -88.6497 -88.6480 -88.6474 -88.6465 -88.6438 -88.6429
   -88.6366 -88.6347 -88.6318 -88.6232 -88.6226 -88.5864 -88.5835 -88.5743
   -88.5499 -88.5403 -88.5305 -88.5295 -88.5259 -88.5203 -88.5182 -88.5160
   -88.5124 -88.5110 -88.5087 -88.5074 -88.5054 -88.5032 -88.5014 -88.5005
   -88.5002 -88.4987 -88.4965 -88.4960 -88.4952 -88.4925 -88.4907 -88.4864
   -88.4849 -88.4834 -88.4785 -88.4768 -88.4624 -88.4608 -88.4564 -88.4513
   -54.8915 -54.8775 -54.8704 -54.8668 -54.8660 -54.8640 -54.8618 -54.8581
   -54.8567 -54.8540 -54.8532 -54.8524 -54.8479 -54.8471 -54.8444 -54.8433
   -54.8429 -54.8409 -54.8398 -54.8377 -54.8355 -54.8350 -54.8307 -54.8294
   -54.8282 -54.8237 -54.8182 -54.8146 -54.8107 -54.8089 -54.8017 -54.7986
   -54.7956 -54.7918 -54.7857 -54.7851 -54.7809 -54.7801 -54.7743 -54.7734
   -54.7659 -54.7642 -54.7594 -54.7587 -54.7554 -54.7470 -54.7317 -54.7259
   -54.7224 -54.7189 -54.7135 -54.7102 -54.7091 -54.6999 -54.6971 -54.6963
   -54.6934 -54.6923 -54.6907 -54.6888 -54.6857 -54.6834 -54.6818 -54.6795
   -54.6786 -54.6767 -54.6735 -54.6720 -54.6701 -54.6685 -54.6660 -54.6646
   -54.6638 -54.6606 -54.6601 -54.6580 -54.6550 -54.6472 -54.6463 -54.6405
   -54.6397 -54.6378 -54.6355 -54.6296 -54.6272 -54.6249 -54.6231 -54.6213
   -54.6145 -54.6129 -54.6118 -54.6087 -54.6080 -54.6048 -54.6014 -54.6007
   -54.5989 -54.5965 -54.5954 -54.5931 -54.5908 -54.5870 -54.5825 -54.5809
   -54.5775 -54.5756 -54.5743 -54.5726 -54.5713 -54.5709 -54.5692 -54.5685
   -54.5653 -54.5633 -54.5622 -54.5610 -54.5582 -54.5574 -54.5566 -54.5546
   -54.5507 -54.5480 -54.5426 -54.5397 -54.5385 -54.5366 -54.5361 -54.5357
   -54.5337 -54.5315 -54.5309 -54.5261 -54.5260 -54.5247 -54.5232 -54.5211
   -54.5164 -54.5146 -54.5129 -54.5119 -54.5087 -54.5079 -54.5027 -54.4984
   -54.4976 -54.4970 -54.4947 -54.4930 -54.4922 -54.4896 -54.4871 -54.4786
   -54.4758 -54.4739 -54.4731 -54.4713 -54.4688 -54.4682 -54.4638 -54.4629
   -54.4598 -54.4583 -54.4537 -54.4508 -54.4492 -54.4478 -54.4443 -54.4431
   -54.4414 -54.4392 -54.4365 -54.4345 -54.4328 -54.4292 -54.4269 -54.4244
   -54.4187 -54.4157 -54.4138 -54.4114 -54.4087 -54.4066 -54.4062 -54.4050
   -54.4030 -54.4016 -54.4010 -54.3992 -54.3989 -54.3973 -54.3947 -54.3916
   -19.6510  -9.8728  -9.8668  -8.3411  -7.4634  -7.1507  -6.9289  -6.6833
    -6.5143  -6.4150  -6.2160  -6.0407  -5.8650  -5.8242  -5.7070  -5.6097
    -5.5113  -5.4379  -5.3681  -5.2804  -5.1888  -5.1431  -5.0885  -5.0691
    -5.0608  -5.0454  -5.0176  -5.0115  -4.9950  -4.8579  -4.7819  -4.7506
    -4.7154  -4.7129  -4.7028  -4.6812  -4.6713  -4.6684  -4.6570  -4.6463
    -4.6381  -4.6152  -4.6113  -4.6010  -4.5792  -4.5750  -4.5493  -4.5374
    -4.5250  -4.5132  -4.4935  -4.4898  -4.4689  -4.4482  -4.4261  -4.4170
    -4.3949  -4.3930  -4.3871  -4.3796  -4.3587  -4.2651  -4.2362  -4.2224
    -4.2143  -4.1943  -4.1669  -4.0848  -4.0511  -4.0321  -3.9814  -3.9634
    -3.9173  -3.9109  -3.8686  -3.8265  -3.8169  -3.8093  -3.7987  -3.7892
    -3.7850  -3.7756  -3.7619  -3.7562  -3.7484  -3.7447  -3.7433  -3.7395
    -3.7244  -3.7129  -3.7090  -3.7045  -3.6996  -3.6851  -3.6802  -3.6723
    -3.6669  -3.6629  -3.6557  -3.6545  -3.6492  -3.6449  -3.6434  -3.6239
    -3.6066  -3.5825  -3.5661  -3.5591  -3.5490  -3.5462  -3.5265  -3.5106
    -3.5077  -3.4940  -3.4888  -3.4824  -3.4104  -3.4005  -3.3855  -3.3528
    -3.3247  -3.3217  -3.3130  -3.2951  -3.2788  -3.2190  -3.2102  -3.2036
    -3.1965  -3.1920  -3.1864  -3.1736  -3.1719  -3.1632  -3.1604  -3.1455
    -3.1418  -3.1270  -3.1089  -3.1053  -3.0985  -3.0870  -3.0649  -3.0519
    -3.0476  -3.0103  -3.0060  -2.9770  -2.9728  -2.9613  -2.9488  -2.9400
    -2.9275  -2.9180  -2.9106  -2.9076  -2.8952  -2.8885  -2.8838  -2.8752
    -2.8635  -2.8593  -2.8536  -2.8403  -2.8352  -2.8065  -2.7895  -2.7846
    -2.7586  -2.7368  -2.7347  -2.7153  -2.7031  -2.6976  -2.6719  -2.6620
    -2.6590  -2.6431  -2.6364  -2.6252  -2.6176  -2.5811  -2.5637  -2.5386
    -2.5256  -2.5120  -2.4858  -2.4569  -2.4429  -2.4391  -2.4002  -2.3569
    -2.2516  -2.2349  -2.2244  -2.1970  -2.1855  -2.1665  -2.1614  -2.1273
    -2.1138  -2.1006  -2.0970  -2.0790  -2.0761  -2.0634  -2.0478  -2.0425
    -2.0410  -2.0302  -2.0272  -2.0136  -1.9943  -1.9806  -1.9577  -1.9328
    -1.9187  -1.9079  -1.8993  -1.8940  -1.8870  -1.8781  -1.8732  -1.8673
    -1.8657  -1.8616  -1.8495  -1.8441  -1.8376  -1.8307  -1.8077  -1.8038
    -1.7879  -1.7793  -1.7710  -1.7602  -1.7497  -1.7447  -1.7395  -1.7351
    -1.7305  -1.7248  -1.7192  -1.7156  -1.7138  -1.6987  -1.6979  -1.6930
    -1.6869  -1.6802  -1.6707  -1.6665  -1.6633  -1.6546  -1.6479  -1.6409
    -1.6310  -1.6302  -1.6261  -1.6229  -1.6200  -1.6166  -1.6143  -1.6125
    -1.5954  -1.5908  -1.5864  -1.5771  -1.5724  -1.5701  -1.5667  -1.5614
    -1.5548  -1.5523  -1.5521  -1.5490  -1.5281  -1.5259  -1.5141  -1.5053
    -1.4987  -1.4952  -1.4738  -1.4517  -1.4441  -1.4219  -1.4177  -1.4043
    -1.4006  -1.3972  -1.3892  -1.3804  -1.3732  -1.3721  -1.3654  -1.3616
    -1.3555  -1.3510  -1.3261  -1.2945  -1.2867  -1.2825  -1.2771  -1.2759
    -1.2691  -1.2571  -1.2510  -1.2346  -1.2330  -1.2274  -1.2103  -1.1990
    -1.1648  -1.1035  -1.0962  -1.0851  -1.0698  -0.8793  -0.8609  -0.8548
    -0.8423  -0.8220  -0.8096  -0.8055  -0.7895  -0.7785  -0.7455  -0.7024
    -0.6954  -0.6845  -0.6753  -0.6667  -0.6548  -0.6513  -0.6387  -0.6144
    -0.6078  -0.5683  -0.5626  -0.5445  -0.5132  -0.4792  -0.4495  -0.3858
    -0.3526  -0.2760  -0.1104   0.0261   0.1769   0.3340   0.3459   0.3776
     0.5690   0.6034   0.7600   0.7678   0.8582   0.9040   0.9550   1.0493
     1.1288   1.2427   1.3291

          k = 0.2500 0.1768 0.0000 (128340 PWs)   bands (ev):

   -88.6936 -88.6838 -88.6814 -88.6773 -88.6752 -88.6722 -88.6697 -88.6671
   -88.6621 -88.6614 -88.6609 -88.6606 -88.6603 -88.6580 -88.6559 -88.6539
   -88.6536 -88.6535 -88.6528 -88.6465 -88.6455 -88.6443 -88.6439 -88.6420
   -88.6380 -88.6363 -88.6306 -88.6232 -88.6227 -88.5864 -88.5835 -88.5743
   -88.5493 -88.5376 -88.5354 -88.5318 -88.5234 -88.5215 -88.5166 -88.5147
   -88.5114 -88.5105 -88.5093 -88.5066 -88.5033 -88.5018 -88.5013 -88.5012
   -88.5001 -88.5000 -88.4987 -88.4974 -88.4948 -88.4944 -88.4918 -88.4858
   -88.4835 -88.4820 -88.4795 -88.4765 -88.4622 -88.4598 -88.4573 -88.4516
   -54.8911 -54.8745 -54.8734 -54.8718 -54.8643 -54.8633 -54.8613 -54.8562
   -54.8560 -54.8520 -54.8506 -54.8497 -54.8496 -54.8488 -54.8482 -54.8473
   -54.8409 -54.8402 -54.8387 -54.8377 -54.8363 -54.8337 -54.8313 -54.8293
   -54.8280 -54.8253 -54.8172 -54.8151 -54.8074 -54.8045 -54.8021 -54.7919
   -54.7914 -54.7895 -54.7806 -54.7786 -54.7734 -54.7731 -54.7717 -54.7709
   -54.7648 -54.7609 -54.7595 -54.7540 -54.7522 -54.7503 -54.7331 -54.7281
   -54.7257 -54.7223 -54.7207 -54.7202 -54.7169 -54.7163 -54.7124 -54.7100
   -54.7051 -54.7009 -54.6944 -54.6886 -54.6868 -54.6841 -54.6829 -54.6809
   -54.6781 -54.6772 -54.6760 -54.6710 -54.6703 -54.6701 -54.6688 -54.6649
   -54.6635 -54.6626 -54.6596 -54.6572 -54.6523 -54.6468 -54.6438 -54.6426
   -54.6399 -54.6329 -54.6315 -54.6275 -54.6251 -54.6242 -54.6240 -54.6217
   -54.6211 -54.6183 -54.6126 -54.6076 -54.6072 -54.6015 -54.5987 -54.5977
   -54.5957 -54.5934 -54.5914 -54.5896 -54.5891 -54.5875 -54.5847 -54.5841
   -54.5820 -54.5804 -54.5772 -54.5766 -54.5735 -54.5712 -54.5692 -54.5687
   -54.5657 -54.5651 -54.5600 -54.5593 -54.5591 -54.5563 -54.5521 -54.5496
   -54.5441 -54.5429 -54.5411 -54.5402 -54.5395 -54.5384 -54.5356 -54.5336
   -54.5307 -54.5284 -54.5271 -54.5266 -54.5264 -54.5249 -54.5228 -54.5196
   -54.5160 -54.5054 -54.5051 -54.5036 -54.5025 -54.5021 -54.5012 -54.5007
   -54.4991 -54.4978 -54.4957 -54.4906 -54.4902 -54.4860 -54.4852 -54.4826
   -54.4805 -54.4762 -54.4740 -54.4725 -54.4702 -54.4609 -54.4572 -54.4563
   -54.4551 -54.4540 -54.4509 -54.4487 -54.4472 -54.4457 -54.4456 -54.4423
   -54.4412 -54.4408 -54.4385 -54.4336 -54.4320 -54.4298 -54.4276 -54.4251
   -54.4196 -54.4163 -54.4150 -54.4140 -54.4119 -54.4089 -54.4084 -54.4077
   -54.4066 -54.4053 -54.4051 -54.4037 -54.4031 -54.4017 -54.3989 -54.3941
   -19.6510  -9.8729  -9.8668  -8.3019  -7.1827  -7.1486  -7.1426  -7.1002
    -6.4691  -6.1954  -6.1768  -6.0419  -6.0306  -5.9080  -5.6736  -5.5545
    -5.4321  -5.3961  -5.2624  -5.1155  -5.1061  -5.1053  -5.0729  -5.0690
    -5.0008  -4.9836  -4.9801  -4.9738  -4.8852  -4.8797  -4.8749  -4.8554
    -4.7833  -4.7658  -4.7479  -4.7402  -4.6668  -4.6590  -4.6525  -4.6348
    -4.6189  -4.6027  -4.6002  -4.5944  -4.5913  -4.5888  -4.5846  -4.5828
    -4.5767  -4.5717  -4.5592  -4.5106  -4.5015  -4.4899  -4.4877  -4.4214
    -4.4178  -4.4121  -4.4013  -4.3617  -4.2410  -4.2374  -4.2092  -4.2076
    -4.1502  -4.1236  -4.1181  -4.1129  -4.0917  -4.0843  -4.0842  -3.9448
    -3.9384  -3.9031  -3.9027  -3.8397  -3.8374  -3.8268  -3.8202  -3.8145
    -3.8114  -3.8106  -3.7989  -3.7972  -3.7931  -3.7902  -3.7783  -3.7773
    -3.7731  -3.7553  -3.7344  -3.7303  -3.6768  -3.6683  -3.6660  -3.6583
    -3.6577  -3.6145  -3.6125  -3.6051  -3.5995  -3.5974  -3.5901  -3.5822
    -3.5705  -3.5631  -3.5513  -3.5386  -3.5076  -3.4981  -3.4616  -3.4543
    -3.4510  -3.4336  -3.4214  -3.4156  -3.3976  -3.3973  -3.3950  -3.3823
    -3.3817  -3.3733  -3.3722  -3.3584  -3.3495  -3.2939  -3.2936  -3.2757
    -3.2652  -3.2051  -3.1969  -3.1873  -3.1870  -3.1815  -3.1780  -3.1684
    -3.1595  -3.1280  -3.1244  -3.1039  -3.1012  -3.1006  -3.0787  -3.0773
    -3.0690  -3.0442  -3.0409  -3.0298  -3.0211  -3.0161  -2.9930  -2.9560
    -2.9320  -2.9234  -2.9204  -2.9147  -2.8941  -2.8922  -2.8890  -2.8842
    -2.8439  -2.8122  -2.7994  -2.7968  -2.7864  -2.7805  -2.7776  -2.7715
    -2.7699  -2.7607  -2.7604  -2.7578  -2.7506  -2.7396  -2.7392  -2.7273
    -2.7083  -2.6918  -2.6804  -2.6794  -2.6167  -2.6130  -2.4879  -2.4598
    -2.4494  -2.4355  -2.4261  -2.4210  -2.4082  -2.3550  -2.2941  -2.2688
    -2.2598  -2.2346  -2.1929  -2.1904  -2.1893  -2.1754  -2.1670  -2.1595
    -2.1255  -2.1134  -2.0997  -2.0903  -2.0834  -2.0771  -2.0601  -2.0379
    -2.0109  -2.0103  -2.0000  -1.9846  -1.9841  -1.9678  -1.9667  -1.9604
    -1.9601  -1.9483  -1.9329  -1.9240  -1.9146  -1.9143  -1.8795  -1.8531
    -1.8491  -1.8428  -1.8296  -1.8273  -1.8256  -1.8200  -1.8164  -1.8102
    -1.8042  -1.7984  -1.7898  -1.7631  -1.7471  -1.7447  -1.7354  -1.7324
    -1.7292  -1.7233  -1.7168  -1.7127  -1.7065  -1.7013  -1.6794  -1.6692
    -1.6647  -1.6588  -1.6587  -1.6490  -1.6428  -1.6387  -1.6239  -1.6146
    -1.6068  -1.6022  -1.5911  -1.5905  -1.5828  -1.5744  -1.5676  -1.5626
    -1.5601  -1.5448  -1.5376  -1.5291  -1.5204  -1.5158  -1.5127  -1.5110
    -1.5079  -1.5072  -1.5019  -1.5009  -1.4864  -1.4791  -1.4725  -1.4650
    -1.4566  -1.4534  -1.4448  -1.4333  -1.4248  -1.4231  -1.4207  -1.4162
    -1.4145  -1.4037  -1.4026  -1.3952  -1.3911  -1.3735  -1.3723  -1.3705
    -1.3503  -1.3482  -1.3390  -1.3154  -1.3088  -1.2796  -1.2707  -1.2620
    -1.2428  -1.2384  -1.2214  -1.2097  -1.1875  -1.1797  -1.1792  -1.1524
    -1.1259  -1.0884  -1.0828  -1.0698  -1.0541  -0.9221  -0.9218  -0.8933
    -0.8353  -0.8220  -0.8111  -0.7705  -0.7400  -0.7397  -0.6978  -0.6798
    -0.6637  -0.6546  -0.6469  -0.6441  -0.6434  -0.6308  -0.6291  -0.6145
    -0.5640  -0.5494  -0.5435  -0.4579  -0.4476  -0.4364  -0.3354  -0.2522
    -0.2329  -0.2325  -0.0989   0.0259   0.1906   0.1990   0.2876   0.3364
     0.3391   0.4351   0.4503   0.4651   0.4775   0.5210   0.5324   0.7476
     0.8188   0.9695   0.9966

          k = 0.2500-0.6187 0.0000 (128424 PWs)   bands (ev):

   -88.6902 -88.6886 -88.6819 -88.6781 -88.6731 -88.6698 -88.6693 -88.6656
   -88.6648 -88.6641 -88.6633 -88.6598 -88.6590 -88.6576 -88.6573 -88.6549
   -88.6534 -88.6510 -88.6491 -88.6472 -88.6464 -88.6455 -88.6446 -88.6409
   -88.6392 -88.6354 -88.6305 -88.6236 -88.6225 -88.5864 -88.5835 -88.5743
   -88.5464 -88.5431 -88.5353 -88.5309 -88.5226 -88.5188 -88.5163 -88.5142
   -88.5126 -88.5104 -88.5093 -88.5080 -88.5066 -88.5047 -88.5010 -88.5006
   -88.4995 -88.4974 -88.4969 -88.4965 -88.4944 -88.4935 -88.4929 -88.4871
   -88.4840 -88.4829 -88.4783 -88.4764 -88.4617 -88.4606 -88.4556 -88.4528
   -54.8867 -54.8812 -54.8777 -54.8675 -54.8623 -54.8616 -54.8580 -54.8574
   -54.8559 -54.8553 -54.8535 -54.8520 -54.8511 -54.8494 -54.8469 -54.8429
   -54.8407 -54.8392 -54.8372 -54.8366 -54.8351 -54.8337 -54.8306 -54.8304
   -54.8297 -54.8237 -54.8177 -54.8143 -54.8076 -54.8019 -54.7883 -54.7875
   -54.7871 -54.7815 -54.7806 -54.7735 -54.7715 -54.7672 -54.7637 -54.7622
   -54.7611 -54.7589 -54.7569 -54.7551 -54.7500 -54.7491 -54.7475 -54.7462
   -54.7401 -54.7368 -54.7323 -54.7275 -54.7226 -54.7175 -54.7121 -54.7116
   -54.7073 -54.7061 -54.6971 -54.6950 -54.6923 -54.6843 -54.6839 -54.6789
   -54.6783 -54.6781 -54.6758 -54.6717 -54.6648 -54.6639 -54.6616 -54.6605
   -54.6597 -54.6581 -54.6567 -54.6548 -54.6540 -54.6522 -54.6504 -54.6489
   -54.6456 -54.6419 -54.6406 -54.6370 -54.6325 -54.6282 -54.6269 -54.6262
   -54.6234 -54.6222 -54.6182 -54.6157 -54.6114 -54.6045 -54.5976 -54.5956
   -54.5918 -54.5894 -54.5875 -54.5837 -54.5817 -54.5798 -54.5785 -54.5775
   -54.5745 -54.5743 -54.5726 -54.5716 -54.5689 -54.5686 -54.5667 -54.5652
   -54.5624 -54.5603 -54.5577 -54.5558 -54.5550 -54.5546 -54.5539 -54.5509
   -54.5498 -54.5488 -54.5476 -54.5468 -54.5426 -54.5406 -54.5371 -54.5342
   -54.5323 -54.5313 -54.5244 -54.5223 -54.5193 -54.5181 -54.5168 -54.5149
   -54.5119 -54.5099 -54.5087 -54.5052 -54.5037 -54.5025 -54.4995 -54.4983
   -54.4959 -54.4946 -54.4936 -54.4889 -54.4878 -54.4874 -54.4823 -54.4796
   -54.4786 -54.4743 -54.4736 -54.4713 -54.4671 -54.4646 -54.4624 -54.4529
   -54.4508 -54.4491 -54.4470 -54.4443 -54.4426 -54.4417 -54.4407 -54.4371
   -54.4360 -54.4336 -54.4315 -54.4308 -54.4304 -54.4288 -54.4280 -54.4273
   -54.4230 -54.4227 -54.4202 -54.4196 -54.4189 -54.4184 -54.4158 -54.4150
   -54.4124 -54.4101 -54.4075 -54.4062 -54.4057 -54.4038 -54.4008 -54.3965
   -19.6510  -9.8730  -9.8668  -8.0361  -7.7433  -7.4548  -6.8898  -6.6848
    -6.6112  -6.3952  -6.2187  -6.1169  -5.5942  -5.5337  -5.4686  -5.4133
    -5.3808  -5.3449  -5.2845  -5.2648  -5.1925  -5.1679  -5.0984  -5.0894
    -5.0795  -5.0391  -5.0283  -4.9499  -4.9401  -4.9289  -4.8984  -4.8913
    -4.8859  -4.8790  -4.8530  -4.7785  -4.7707  -4.7611  -4.7517  -4.7308
    -4.7006  -4.6802  -4.6578  -4.6477  -4.6366  -4.6179  -4.6065  -4.5236
    -4.5075  -4.4830  -4.4761  -4.4510  -4.4109  -4.3979  -4.3787  -4.3674
    -4.3232  -4.3185  -4.2963  -4.2898  -4.2788  -4.2530  -4.2407  -4.2231
    -4.2145  -4.1853  -4.1549  -4.1350  -4.1186  -4.1123  -4.1047  -4.0896
    -4.0175  -3.9973  -3.9853  -3.9239  -3.8475  -3.8376  -3.8229  -3.8195
    -3.8082  -3.8039  -3.7997  -3.7892  -3.7827  -3.7602  -3.7179  -3.7092
    -3.6785  -3.6738  -3.6687  -3.6467  -3.6413  -3.6382  -3.6085  -3.6075
    -3.6053  -3.5961  -3.5898  -3.5874  -3.5816  -3.5771  -3.5711  -3.5679
    -3.5521  -3.5343  -3.5151  -3.5136  -3.5093  -3.4949  -3.4751  -3.4698
    -3.4613  -3.4547  -3.4457  -3.4370  -3.4233  -3.4038  -3.3820  -3.3677
    -3.3579  -3.3538  -3.3433  -3.3337  -3.3280  -3.3254  -3.3192  -3.3094
    -3.2911  -3.2867  -3.2808  -3.2736  -3.2665  -3.2595  -3.2332  -3.2195
    -3.2144  -3.2092  -3.1917  -3.1670  -3.1572  -3.0678  -3.0439  -3.0404
    -3.0295  -3.0292  -3.0159  -2.9975  -2.9943  -2.9903  -2.9889  -2.9738
    -2.9698  -2.9636  -2.9558  -2.9456  -2.9437  -2.9370  -2.9257  -2.8997
    -2.8927  -2.8788  -2.8732  -2.8678  -2.8597  -2.8301  -2.7969  -2.7753
    -2.7415  -2.7217  -2.7062  -2.6894  -2.6766  -2.6333  -2.6204  -2.6070
    -2.5950  -2.5796  -2.5239  -2.5002  -2.4763  -2.4592  -2.4448  -2.4387
    -2.4050  -2.3587  -2.3511  -2.3343  -2.3241  -2.2937  -2.2910  -2.2813
    -2.2674  -2.2526  -2.2436  -2.2396  -2.2331  -2.2142  -2.2107  -2.1985
    -2.1495  -2.1369  -2.1268  -2.1049  -2.0968  -2.0752  -2.0705  -2.0507
    -2.0422  -2.0336  -2.0190  -2.0115  -2.0010  -1.9868  -1.9808  -1.9788
    -1.9723  -1.9558  -1.9415  -1.9312  -1.9103  -1.9017  -1.8929  -1.8858
    -1.8660  -1.8574  -1.8536  -1.8473  -1.8466  -1.8446  -1.8387  -1.8275
    -1.8175  -1.8091  -1.8023  -1.7883  -1.7741  -1.7582  -1.7394  -1.7356
    -1.7279  -1.7242  -1.7087  -1.7054  -1.6983  -1.6942  -1.6890  -1.6781
    -1.6739  -1.6681  -1.6562  -1.6356  -1.6321  -1.6251  -1.6214  -1.6184
    -1.6099  -1.6014  -1.5958  -1.5798  -1.5731  -1.5681  -1.5619  -1.5587
    -1.5532  -1.5448  -1.5296  -1.5262  -1.5253  -1.5206  -1.5091  -1.5035
    -1.4907  -1.4875  -1.4804  -1.4756  -1.4654  -1.4592  -1.4530  -1.4507
    -1.4437  -1.4369  -1.4292  -1.4237  -1.4200  -1.4126  -1.4121  -1.4057
    -1.4006  -1.3792  -1.3568  -1.3505  -1.3411  -1.3382  -1.3266  -1.3185
    -1.2930  -1.2854  -1.2730  -1.2642  -1.2518  -1.2107  -1.2017  -1.1623
    -1.1592  -1.1432  -1.1420  -1.1161  -1.0985  -1.0685  -1.0570  -1.0390
    -1.0070  -0.9982  -0.9916  -0.9788  -0.9547  -0.9202  -0.9161  -0.9069
    -0.8963  -0.8738  -0.8536  -0.8300  -0.8268  -0.8136  -0.7789  -0.7730
    -0.7636  -0.7407  -0.7134  -0.6982  -0.6871  -0.6858  -0.6696  -0.6534
    -0.6489  -0.6421  -0.6121  -0.6036  -0.5782  -0.5728  -0.5403  -0.5304
    -0.4013  -0.3867  -0.2645  -0.1681  -0.0754  -0.0107   0.0922   0.2317
     0.2735   0.2873   0.3448   0.4532   0.7306   0.7518   0.8994   0.9458
     1.0795   1.1480   1.2195

          k = 0.2500-0.3536 0.0000 (128397 PWs)   bands (ev):

   -88.6928 -88.6854 -88.6838 -88.6745 -88.6724 -88.6698 -88.6683 -88.6681
   -88.6663 -88.6650 -88.6646 -88.6605 -88.6600 -88.6560 -88.6539 -88.6537
   -88.6519 -88.6511 -88.6493 -88.6488 -88.6468 -88.6460 -88.6445 -88.6443
   -88.6371 -88.6337 -88.6319 -88.6235 -88.6224 -88.5864 -88.5835 -88.5743
   -88.5478 -88.5429 -88.5352 -88.5246 -88.5235 -88.5221 -88.5164 -88.5150
   -88.5129 -88.5114 -88.5107 -88.5078 -88.5063 -88.5055 -88.5014 -88.5000
   -88.4995 -88.4973 -88.4969 -88.4958 -88.4928 -88.4917 -88.4902 -88.4879
   -88.4873 -88.4833 -88.4774 -88.4771 -88.4621 -88.4612 -88.4552 -88.4524
   -54.8879 -54.8800 -54.8781 -54.8635 -54.8615 -54.8609 -54.8605 -54.8589
   -54.8579 -54.8559 -54.8554 -54.8542 -54.8495 -54.8480 -54.8456 -54.8414
   -54.8401 -54.8392 -54.8373 -54.8367 -54.8364 -54.8336 -54.8324 -54.8297
   -54.8285 -54.8214 -54.8197 -54.8139 -54.8090 -54.8038 -54.8014 -54.7909
[...]

   -85.8526 -85.7159 -85.7037 -85.7030 -85.6957 -85.6834 -85.6726 -85.6710
   -85.6709 -85.6673 -85.6661 -85.6647 -85.6597 -85.6569 -85.6558 -85.6546
   -85.6530 -85.6465 -85.6445 -85.6438 -85.6413 -85.6389 -85.6376 -85.6367
   -85.6352 -85.6335 -85.6332 -85.6326 -85.6292 -85.6187 -85.6120 -85.6118
   -85.6096 -85.6070 -85.6068 -85.6053 -85.6043 -85.6020 -85.6017 -85.6015
   -85.6003 -85.5963 -85.5859 -85.5857 -85.5830 -85.5823 -85.5807 -85.5803
   -85.5799 -85.5797 -85.5792 -85.5791 -85.5784 -85.5771 -85.5761 -85.5743
   -85.5673 -85.5598 -85.5583 -85.5577 -85.5576 -85.5571 -85.5565 -85.5562
   -52.1016 -52.0246 -51.9707 -51.9578 -51.9573 -51.9511 -51.9471 -51.9424
   -51.9409 -51.9396 -51.9376 -51.9374 -51.9356 -51.9352 -51.9348 -51.9347
   -51.9309 -51.9297 -51.9293 -51.9248 -51.9214 -51.9199 -51.9129 -51.9126
   -51.9090 -51.9025 -51.8981 -51.8978 -51.8957 -51.8950 -51.8914 -51.8912
   -51.8905 -51.8746 -51.8744 -51.8724 -51.8667 -51.8631 -51.8621 -51.8620
   -51.8604 -51.8595 -51.8582 -51.8574 -51.8568 -51.8556 -51.8536 -51.8524
   -51.8515 -51.8505 -51.8480 -51.8468 -51.8464 -51.8447 -51.8416 -51.8412
   -51.8410 -51.8391 -51.8384 -51.8375 -51.8371 -51.8370 -51.8364 -51.8045
   -51.8032 -51.7982 -51.7959 -51.7957 -51.7899 -51.7873 -51.7839 -51.7836
   -51.7792 -51.7772 -51.7731 -51.7636 -51.7625 -51.7565 -51.7550 -51.7505
   -51.7474 -51.7448 -51.7423 -51.7392 -51.7374 -51.7350 -51.7319 -51.7310
   -51.7308 -51.7299 -51.7288 -51.7282 -51.7269 -51.7260 -51.7176 -51.7156
   -51.7123 -51.7089 -51.7073 -51.7070 -51.7049 -51.7035 -51.7018 -51.7013
   -51.7010 -51.7000 -51.6958 -51.6923 -51.6921 -51.6887 -51.6882 -51.6879
   -51.6839 -51.6819 -51.6798 -51.6755 -51.6751 -51.6688 -51.6675 -51.6642
   -51.6616 -51.6611 -51.6610 -51.6595 -51.6593 -51.6562 -51.6558 -51.6501
   -51.6490 -51.6456 -51.6443 -51.6399 -51.6371 -51.6367 -51.6354 -51.6351
   -51.6340 -51.6330 -51.6317 -51.6314 -51.6314 -51.6297 -51.6295 -51.6293
   -51.6280 -51.6276 -51.6257 -51.6253 -51.6240 -51.6229 -51.6179 -51.6169
   -51.6158 -51.6154 -51.6129 -51.6115 -51.6113 -51.6104 -51.6102 -51.6097
   -51.6094 -51.6087 -51.6083 -51.6073 -51.6067 -51.6055 -51.6047 -51.6024
   -51.6018 -51.6014 -51.6007 -51.5988 -51.5973 -51.5966 -51.5961 -51.5957
   -51.5946 -51.5940 -51.5903 -51.5899 -51.5882 -51.5882 -51.5845 -51.5841
   -51.5820 -51.5806 -51.5806 -51.5776 -51.5762 -51.5739 -51.5731 -51.5692
   -19.6133  -9.8877  -9.8709  -7.6602  -7.6473  -7.0783  -7.0646  -6.4982
    -6.3604  -6.0749  -5.8183  -5.6760  -5.0653  -5.0579  -5.0570  -5.0400
    -4.6602  -4.6182  -4.2161  -4.2156  -4.2139  -4.2125  -4.2071  -4.1885
    -4.1248  -4.0952  -4.0771  -4.0768  -4.0738  -4.0535  -3.6571  -3.6550
    -3.6540  -3.6502  -3.6479  -3.6343  -3.4405  -3.4366  -3.1888  -3.1858
    -3.1559  -3.1514  -3.1479  -3.1322  -3.0916  -3.0867  -3.0495  -3.0489
    -3.0448  -3.0354  -2.8910  -2.8812  -2.8788  -2.8704  -2.8608  -2.8524
    -2.6123  -2.6092  -2.6010  -2.5977  -2.5970  -2.5905  -2.3827  -2.3805
    -2.3312  -2.3260  -2.2783  -2.2708  -2.1742  -2.1735  -2.0965  -2.0938
    -2.0898  -2.0840  -2.0808  -2.0711  -2.0623  -2.0610  -2.0558  -2.0479
    -1.9696  -1.9667  -1.9635  -1.9545  -1.9539  -1.9500  -1.9498  -1.9494
    -1.9442  -1.9424  -1.9411  -1.9386  -1.7389  -1.7339  -1.7193  -1.7191
    -1.5987  -1.5966  -1.5957  -1.5935  -1.5820  -1.5739  -1.5381  -1.5341
    -1.5332  -1.5282  -1.5278  -1.5192  -1.5157  -1.5069  -1.5001  -1.4962
    -1.4949  -1.4886  -1.4858  -1.4632  -1.4596  -1.4588  -1.4583  -1.4549
    -1.4520  -1.4473  -1.4467  -1.4416  -1.4324  -1.4166  -1.4130  -1.3992
    -1.3655  -1.3563  -1.3539  -1.3513  -1.3464  -1.3423  -1.3400  -1.3386
    -1.3383  -1.3360  -1.3298  -1.3127  -1.2821  -1.2666  -1.1420  -1.1363
    -1.0894  -1.0833  -1.0789  -1.0752  -1.0659  -1.0562  -1.0275  -1.0227
    -1.0143  -1.0121  -0.9554  -0.9322  -0.9024  -0.8988  -0.8950  -0.8879
    -0.8614  -0.8563  -0.8524  -0.8335  -0.8298  -0.8285  -0.8229  -0.8058
    -0.6687  -0.6632  -0.6518  -0.6435  -0.6411  -0.6207  -0.5609  -0.5591
    -0.5541  -0.5507  -0.5437  -0.5097  -0.5051  -0.5037  -0.4464  -0.4430
    -0.4394  -0.4346  -0.4338  -0.4330  -0.4134  -0.4100  -0.1842  -0.1541
    -0.1244  -0.0873  -0.0598  -0.0455   0.0075   0.0254   0.1941   0.1975
     0.2129   0.2325   0.2532   0.2738   0.3216   0.3485   0.3616   0.3679
     0.3761   0.3940   0.4418   0.4532   0.4542   0.4560   0.4903   0.5013
     0.5047   0.5181   0.5655   0.5849   0.5957   0.6140   0.6210   0.6547
     0.6964   0.6994   0.7040   0.7196   0.7209   0.7220   0.7241   0.7290
     0.7400   0.7490   0.7518   0.7589   0.8162   0.8267   0.8267   0.8453
     0.8720   0.8839   0.8848   0.8894   0.9084   0.9142   0.9572   0.9663
     1.0054   1.0224   1.0568   1.0755   1.1282   1.1355   1.1393   1.1457
     1.1505   1.1537   1.1549   1.1629   1.1658   1.1659   1.1920   1.1999
     1.2028   1.2121   1.2148   1.2172   1.2212   1.2215   1.2227   1.2238
     1.2450   1.2517   1.2761   1.2802   1.2806   1.2953   1.3011   1.3033
     1.3055   1.3223   1.3227   1.3255   1.3264   1.3355   1.3392   1.3405
     1.3636   1.3657   1.3672   1.3709   1.3845   1.3882   1.3891   1.3937
     1.3952   1.3983   1.4064   1.4087   1.4110   1.4371   1.4870   1.5087
     1.5102   1.5195   1.5259   1.5321   1.5422   1.5458   1.5467   1.5653
     1.5821   1.5839   1.5871   1.5907   1.5948   1.5979   1.6018   1.6040
     1.6078   1.6110   1.6116   1.6121   1.6148   1.6170   1.6204   1.6246
     1.6670   1.6718   1.6720   1.6807   1.6854   1.6867   1.6910   1.6971
     1.6979   1.6984   1.7042   1.7431   1.7724   1.7827   1.7895   1.7908
     1.7974   1.8005   1.9455   1.9919   2.0076   2.0428   2.0582   2.0942
     2.2072   2.2132   2.2189   2.2210   2.2499   2.2551   2.2739   2.2760
     2.3038   2.3063   2.3107

     the Fermi energy is    -0.5465 ev

!    total energy              =  -21096.12295713 Ry
     estimated scf accuracy    <          7.6E-11 Ry
     smearing contrib. (-TS)   =       0.00093389 Ry
     internal energy E=F+TS    =  -21096.12389102 Ry

     The total energy is F=E-TS. E is the sum of the following terms:
     one-electron contribution = -743422.04111027 Ry
     hartree contribution      =  371686.12775345 Ry
     xc contribution           =   -2235.74542566 Ry
     ewald contribution        =  357750.35855649 Ry
     Dispersion Correction     =      -1.39556567 Ry
     one-center paw contrib.   =   -4873.42809936 Ry

     total magnetization       =   162.38 Bohr mag/cell
     absolute magnetization    =   169.08 Bohr mag/cell

     convergence has been achieved in  13 iterations

     negative rho (up, down):  1.076E-02 1.429E-02

     Forces acting on atoms (cartesian axes, Ry/au):

     atom    1 type  1   force =    -0.00004435   -0.00002939    0.00877288
     atom    2 type  1   force =    -0.00001540   -0.00003323   -0.01018877
     atom    3 type  1   force =     0.00050181    0.00035270    0.00901847
     atom    4 type  1   force =    -0.00003644   -0.00001811   -0.00784606
     atom    5 type  1   force =    -0.00000349   -0.00000283    0.00002366
     atom    6 type  1   force =     0.00000392    0.00000440    0.00007546
     atom    7 type  1   force =    -0.00006792   -0.00004841   -0.00011123
     atom    8 type  1   force =     0.00003145    0.00002247   -0.00001823
     atom    9 type  1   force =     0.00003684   -0.00005726    0.00861021
     atom   10 type  1   force =    -0.00002901    0.00003140    0.00862307
     atom   11 type  1   force =     0.00011498   -0.00055253   -0.00922260
     atom   12 type  1   force =    -0.00048374    0.00030593   -0.00926713
     atom   13 type  1   force =     0.00000332    0.00000382   -0.00004707
     atom   14 type  1   force =     0.00000460    0.00000147   -0.00004558
     atom   15 type  1   force =    -0.00001615    0.00002166    0.00003284
     atom   16 type  1   force =     0.00001609   -0.00001934    0.00003449
     atom   17 type  1   force =    -0.00036456    0.00034999    0.00943115
     atom   18 type  1   force =    -0.00005342    0.00006648   -0.00873756
     atom   19 type  1   force =    -0.00017992    0.00050051    0.00941925
     atom   20 type  1   force =    -0.00058002    0.00079626   -0.00760449
     atom   21 type  1   force =     0.00001851    0.00000839   -0.00002883
     atom   22 type  1   force =     0.00000193   -0.00000049   -0.00002036
     atom   23 type  1   force =    -0.00001145   -0.00001533   -0.00002856
     atom   24 type  1   force =     0.00002669   -0.00003604   -0.00007158
     atom   25 type  1   force =     0.00005167   -0.00002937    0.00911385
     atom   26 type  1   force =    -0.00019120    0.00025840    0.00917113
     atom   27 type  1   force =     0.00042798   -0.00020152   -0.00987276
     atom   28 type  1   force =     0.00045835   -0.00031790   -0.00946712
     atom   29 type  1   force =     0.00003460   -0.00004682   -0.00018807
     atom   30 type  1   force =     0.00002200   -0.00002984   -0.00003219
     atom   31 type  1   force =    -0.00000025   -0.00002569   -0.00001417
     atom   32 type  1   force =    -0.00000998    0.00001710    0.00003472
     atom   33 type  1   force =     0.00020696   -0.00046743    0.00943615
     atom   34 type  1   force =     0.00005721   -0.00006184   -0.00873396
     atom   35 type  1   force =     0.00040211   -0.00035221    0.00941635
     atom   36 type  1   force =     0.00057819   -0.00082387   -0.00756702
     atom   37 type  1   force =     0.00001268    0.00001459   -0.00003055
     atom   38 type  1   force =     0.00000031    0.00000303   -0.00002103
     atom   39 type  1   force =    -0.00001874   -0.00000439   -0.00002987
     atom   40 type  1   force =    -0.00002394    0.00003729   -0.00006636
     atom   41 type  1   force =     0.00017972   -0.00025376    0.00917466
     atom   42 type  1   force =    -0.00000498    0.00005997    0.00910971
     atom   43 type  1   force =    -0.00016691    0.00052643   -0.00950465
     atom   44 type  1   force =    -0.00006587    0.00045603   -0.00989127
     atom   45 type  1   force =    -0.00002110    0.00003025   -0.00003197
     atom   46 type  1   force =    -0.00003573    0.00005003   -0.00019269
     atom   47 type  1   force =     0.00001264   -0.00001452    0.00003576
     atom   48 type  1   force =    -0.00002743    0.00001149   -0.00002102
     atom   49 type  1   force =    -0.00052809   -0.00037267    0.00899392
     atom   50 type  1   force =     0.00000200    0.00000169   -0.00736652
     atom   51 type  1   force =     0.00003516    0.00002453    0.00881027
     atom   52 type  1   force =     0.00006150    0.00005233   -0.00808207
     atom   53 type  1   force =     0.00006698    0.00004520   -0.00011129
     atom   54 type  1   force =    -0.00000677    0.00000334    0.00001460
     atom   55 type  1   force =     0.00000705    0.00000375    0.00002239
     atom   56 type  1   force =    -0.00002632   -0.00001798   -0.00001196
     atom   57 type  1   force =     0.00006245   -0.00003995    0.00862017
     atom   58 type  1   force =    -0.00001260    0.00006787    0.00862976
     atom   59 type  1   force =    -0.00044392    0.00008062   -0.00973332
     atom   60 type  1   force =    -0.00007881   -0.00046204   -0.00971937
     atom   61 type  1   force =    -0.00000081    0.00000331   -0.00004629
     atom   62 type  1   force =     0.00000251   -0.00000179   -0.00004525
     atom   63 type  1   force =    -0.00000480    0.00002749   -0.00002891
     atom   64 type  1   force =     0.00002064   -0.00001167   -0.00001826
     atom   65 type  2   force =     0.00013313   -0.00009249   -0.00004734
     atom   66 type  3   force =    -0.00002809    0.00011885   -0.00012009
     atom   67 type  3   force =     0.00000383   -0.00003311   -0.00015701
     atom   68 type  3   force =    -0.00001761    0.00011478   -0.00018039

     Total force =     0.000550     Total SCF correction =     0.000041
     Energy error            =      3.1E-07
     Gradient error          =      1.9E-04

     bfgs converged in  14 scf cycles and  13 bfgs steps
     (criteria: energy <  7.3E-07 Ry, force <  3.9E-04 Ry/Bohr)

     End of BFGS Geometry Optimization

     Final energy   =  -21096.1229571295 Ry

     File ./Fe_NH3_paper_480c_ESM_p5.bfgs deleted, as requested
Begin final coordinates

ATOMIC_POSITIONS (angstrom)
Fe            1.6549129530        1.1702001330        0.0000000000    0   0   0
Fe            0.0000000000        0.0000000000        2.0269842320    0   0   0
Fe            4.9647388580        3.5106003990        0.0000000000    0   0   0
Fe            3.3098259060        2.3404002660        2.0269842320    0   0   0
Fe            1.6562365620        1.1710832795        4.0354080848
Fe            3.3102840135        9.3617920044        6.0109301173
Fe            4.9684743781        3.5132413968        4.0262330604
Fe            3.3104313762        2.3409245387        6.0210002433
Fe            2.4823638580        3.5106003990        0.0000000000    0   0   0
Fe            4.1372879530        1.1702001330        0.0000000000    0   0   0
Fe            0.8274509060        2.3404002660        2.0269842320    0   0   0
Fe            2.4823750000        0.0000000000        2.0269842320    0   0   0
Fe            2.4824287119        3.5115571721        4.0365412159
Fe            4.1382872813        1.1700373307        4.0366217930
Fe            0.8275266412        2.3435095627        6.0297725962
Fe            2.4854564059       -0.0010957520        6.0296808463
Fe            6.6196629530        1.1702001330        0.0000000000    0   0   0
Fe            4.9647500000        0.0000000000        2.0269842320    0   0   0
Fe            9.9294888580        3.5106003990        0.0000000000    0   0   0
Fe            8.2745759060        2.3404002660        2.0269842320    0   0   0
Fe            6.6221434227        1.1662680583        4.0250077601
Fe            4.9646927928       -0.0020928680        6.0415400906
Fe            9.9315824741        3.5065096992        4.0257151730
Fe            8.2817784568        2.3294706180        5.9716401208
Fe            7.4471138580        3.5106003990        0.0000000000    0   0   0
Fe            9.1020379530        1.1702001330        0.0000000000    0   0   0
Fe            5.7922009060        2.3404002660        2.0269842320    0   0   0
Fe            7.4471250000        0.0000000000        2.0269842320    0   0   0
Fe            7.4365850293        3.5243585502        4.0381522253
Fe            9.1053911646        1.1654442923        4.0201641369
Fe            5.7933453528        2.3296548661        5.9858041907
Fe           10.7538844424        9.3604508822        6.0272478197
Fe            3.3098147640        5.8510006640        0.0000000000    0   0   0
Fe            1.6549018110        4.6808005310        2.0269842320    0   0   0
Fe            6.6196406700        8.1914009300        0.0000000000    0   0   0
Fe            4.9647277170        7.0212007970        2.0269842320    0   0   0
Fe            3.3069539012        5.8548585599        4.0248764683
Fe           11.5826624754        4.6811411462        6.0415537091
Fe            6.6163857311        8.1948583045        4.0255940749
Fe            4.9574225053        7.0310935937        5.9728803550
Fe            4.1372656700        8.1914009300        0.0000000000    0   0   0
Fe            5.7921897640        5.8510006640        0.0000000000    0   0   0
Fe            2.4823527170        7.0212007970        2.0269842320    0   0   0
Fe            4.1372768110        4.6808005310        2.0269842320    0   0   0
Fe            4.1339289805        8.1961971713        4.0203080703
Fe            5.8015538597        5.8367223541        4.0378802747
Fe           12.4100709059        7.0185580081        6.0271497744
Fe            4.1268848380        4.6854306379        5.9850863244
Fe            8.2745647640        5.8510006640        0.0000000000    0   0   0
Fe            6.6196518110        4.6808005310        2.0269842320    0   0   0
Fe           11.5843906700        8.1914009300        0.0000000000    0   0   0
Fe            9.9294777170        7.0212007970        2.0269842320    0   0   0
Fe            8.2703979224        5.8479711431        4.0272694526
Fe            6.6171017790        4.6808963612        6.1281478786
Fe           11.5828822063        8.1902468284        4.0340318951
Fe            9.9288173006        7.0206918433        6.0180303731
Fe            9.1020156700        8.1914009300        0.0000000000    0   0   0
Fe           10.7569397640        5.8510006640        0.0000000000    0   0   0
Fe            7.4471027170        7.0212007970        2.0269842320    0   0   0
Fe            9.1020268110        4.6808005310        2.0269842320    0   0   0
Fe            9.1001669858        8.1910755703        4.0357093227
Fe           10.7559470292        5.8492434155        4.0358109324
Fe            7.4440706157        7.0306990021        5.9879848027
Fe            9.1093233632        4.6743771250        5.9888226048
N             6.6266014588        4.6828309573        8.2159755267
H             6.6004422612        5.6491891459        8.5514374938
H             5.7923368733        4.1779511798        8.5290952096
H             7.4708659741        4.2088117215        8.5474772741
End final coordinates



     Writing output data file ./Fe_NH3_paper_480c_ESM_p5.save/

     init_run     :     31.83s CPU     33.53s WALL (       1 calls)
     electrons    :  35448.56s CPU  36069.90s WALL (      14 calls)
     update_pot   :     75.72s CPU     76.43s WALL (      13 calls)
     forces       :    252.56s CPU    257.26s WALL (      14 calls)

     Called by init_run:
     wfcinit      :     21.74s CPU     22.91s WALL (       1 calls)
     potinit      :      2.83s CPU      2.98s WALL (       1 calls)
     hinit0       :      5.20s CPU      5.45s WALL (       1 calls)

     Called by electrons:
     c_bands      :  31739.71s CPU  32243.06s WALL (     366 calls)
     sum_band     :   1768.99s CPU   1843.95s WALL (     366 calls)
     v_of_rho     :    310.67s CPU    314.56s WALL (     367 calls)
     newd         :     64.49s CPU     65.21s WALL (     367 calls)
     PAW_pot      :     70.55s CPU     71.18s WALL (     380 calls)
     mix_rho      :   1345.14s CPU   1368.95s WALL (     366 calls)

     Called by c_bands:
     init_us_2    :    162.05s CPU    171.84s WALL (    2280 calls)
     cegterg      :  26197.55s CPU  26547.88s WALL (    1099 calls)

     Called by *egterg:
     cdiaghg      :   7509.33s CPU   7564.01s WALL (    9376 calls)
     h_psi        :   8044.60s CPU   8170.33s WALL (    9457 calls)
     s_psi        :   2105.67s CPU   2119.82s WALL (    9457 calls)
     g_psi        :     38.82s CPU     39.42s WALL (    8355 calls)

     Called by h_psi:
     h_psi:calbec :   2335.99s CPU   2351.82s WALL (    9457 calls)
     vloc_psi     :   3538.49s CPU   3580.17s WALL (    9457 calls)
     add_vuspsi   :   2107.00s CPU   2121.17s WALL (    9457 calls)

     General routines
     calbec       :   3340.21s CPU   3362.59s WALL (   10762 calls)
     fft          :    204.89s CPU    207.05s WALL (    9396 calls)
     ffts         :    601.80s CPU    607.09s WALL (  229681 calls)
     fftw         :   3863.09s CPU   3908.48s WALL ( 4278200 calls)
     interpolate  :     24.17s CPU     24.41s WALL (     734 calls)
     davcio       :      1.48s CPU    171.54s WALL (    9949 calls)

     Parallel routines
     fft_scatt_xy :    540.70s CPU    546.52s WALL ( 4517277 calls)
     fft_scatt_yz :   2177.85s CPU   2203.53s WALL ( 4517277 calls)

     PWSCF        :      9h58m CPU     10h 8m WALL


   This run was terminated on:   5:38:58  17Jun2022            

=------------------------------------------------------------------------------=
   JOB DONE.
=------------------------------------------------------------------------------=
