     Message from routine get_command_line:
     unexpected argument # 4     :-in

     Program PWSCF v.6.7MaX starts on  5Jul2022 at 22:16:48 

     This program is part of the open-source Quantum ESPRESSO suite
     for quantum simulation of materials; please cite
         "P. Giannozzi et al., J. Phys.:Condens. Matter 21 395502 (2009);
         "P. Giannozzi et al., J. Phys.:Condens. Matter 29 465901 (2017);
          URL http://www.quantum-espresso.org", 
     in publications or presentations arising from this work. More details at
     http://www.quantum-espresso.org/quote

     Parallel version (MPI), running on   120 processors

     MPI processes distributed on     1 nodes
     K-points division:     npool     =       8
     R & G space division:  proc/nbgrp/npool/nimage =      15
     Waiting for input...
     Reading input from standard input
Warning: card &CELL ignored
Warning: card / ignored

     Current dimensions of program PWSCF are:
     Max number of different atomic species (ntypx) = 10
     Max number of k-points (npk) =  40000
     Max angular momentum in pseudopotentials (lmaxx) =  3

     IMPORTANT: XC functional enforced from input :
     Exchange-correlation= PBE
                           (   1   4   3   4   0   0   0)
     Any further DFT definition will be discarded
     Please, verify this is what you really want


     -------------------------------------------------
     Parameters for Dispersion (Grimme-D2) Correction:
     -------------------------------------------------
       atom      VdW radius       C_6     

        N          2.640         42.670

     Subspace diagonalization in iterative solution of the eigenvalue problem:
     one sub-group per band group will be used
     scalapack distributed-memory algorithm (size of sub-group:  3*  3 procs)


     Parallelization info
     --------------------
     sticks:   dense  smooth     PW     G-vecs:    dense   smooth      PW
     Min        3636    1818    468               639190   225950   29545
     Max        3637    1819    470               639197   225953   29547
     Sum       54553   27281   7033              9587919  3389267  443191



     bravais-lattice index     =            0
     lattice parameter (alat)  =      37.7945  a.u.
     unit-cell volume          =   53986.6760 (a.u.)^3
     number of atoms/cell      =            2
     number of atomic types    =            1
     number of electrons       =        10.00
     number of Kohn-Sham states=            9
     kinetic-energy cutoff     =      60.0000  Ry
     charge density cutoff     =     480.0000  Ry
     scf convergence threshold =      1.0E-08
     mixing beta               =       0.7000
     number of iterations used =           10  plain     mixing
     energy convergence thresh.=      7.3E-07
     force convergence thresh. =      3.9E-04
     Exchange-correlation= PBE
                           (   1   4   3   4   0   0   0)
     nstep                     =           50


     Effective Screening Medium Method
     =================================
     Boundary Conditions: Metal-Slab-Metal
     field strength                   =    -0.05 Ry/a.u.
     grid points for fit at edges     =        4 


     celldm(1)=  37.794522  celldm(2)=   0.000000  celldm(3)=   0.000000
     celldm(4)=   0.000000  celldm(5)=   0.000000  celldm(6)=   0.000000

     crystal axes: (cart. coord. in units of alat)
               a(1) = (   1.000000   0.000000   0.000000 )  
               a(2) = (   0.000000   1.000000   0.000000 )  
               a(3) = (   0.000000   0.000000   1.000000 )  

     reciprocal axes: (cart. coord. in units 2 pi/alat)
               b(1) = (  1.000000  0.000000  0.000000 )  
               b(2) = (  0.000000  1.000000  0.000000 )  
               b(3) = (  0.000000  0.000000  1.000000 )  


     PseudoPot. # 1 for N  read from file:
     ../../SSSP/N.pbe-n-radius_5.UPF
     MD5 check sum: 16739722b17309cd8fe442a2ace49922
     Pseudo is Ultrasoft + core correction, Zval =  5.0
     Generated using "atomic" code by A. Dal Corso  v.5.1
     Using radial grid of 1085 points,  4 beta functions with: 
                l(1) =   0
                l(2) =   0
                l(3) =   1
                l(4) =   1
     Q(r) pseudized with 0 coefficients 


     atomic species   valence    mass     pseudopotential
        N              5.00    14.00700     N ( 1.00)

     Starting magnetic structure 
     atomic species   magnetization
        N            0.100

     No symmetry found



   Cartesian axes

     site n.     atom                  positions (alat units)
         1           N   tau(   1) = (   0.5000000   0.5000000   0.0000000  )
         2           N   tau(   2) = (   0.5000000   0.5000000   0.0565000  )

     number of k points=    10  Methfessel-Paxton smearing, width (Ry)=  0.0100
                       cart. coord. in units 2pi/alat
        k(    1) = (   0.0000000   0.0000000   0.0000000), wk =   0.0625000
        k(    2) = (   0.0000000   0.2500000   0.0000000), wk =   0.1250000
        k(    3) = (   0.0000000  -0.5000000   0.0000000), wk =   0.0625000
        k(    4) = (   0.2500000   0.0000000   0.0000000), wk =   0.1250000
        k(    5) = (   0.2500000   0.2500000   0.0000000), wk =   0.1250000
        k(    6) = (   0.2500000  -0.5000000   0.0000000), wk =   0.1250000
        k(    7) = (   0.2500000  -0.2500000   0.0000000), wk =   0.1250000
        k(    8) = (  -0.5000000   0.0000000   0.0000000), wk =   0.0625000
        k(    9) = (  -0.5000000   0.2500000   0.0000000), wk =   0.1250000
        k(   10) = (  -0.5000000  -0.5000000   0.0000000), wk =   0.0625000

     Dense  grid:  9587919 G-vectors     FFT dimensions: ( 270, 270, 270)

     Smooth grid:  3389267 G-vectors     FFT dimensions: ( 192, 192, 192)

     Estimated max dynamical RAM per process >     370.17 MB

     Estimated total dynamical RAM >      43.38 GB
     Generating pointlists ...
     new r_m :   0.0233 (alat units)  0.8808 (a.u.) for type    1

     Initial potential from superposition of free atoms

     starting charge    9.99999, renormalised to   10.00000

     negative rho (up, down):  1.327E-04 1.086E-04
     Starting wfcs are    8 randomized atomic wfcs +    1 random wfcs

     total cpu time spent up to now is       21.8 secs

     Self-consistent Calculation

     iteration #  1     ecut=    60.00 Ry     beta= 0.70
     CG style diagonalization
     c_bands:  2 eigenvalues not converged
     c_bands:  2 eigenvalues not converged
     c_bands:  2 eigenvalues not converged
     ethr =  1.00E-04,  avg # of iterations = 11.0

     negative rho (up, down):  2.313E-04 2.234E-04

     total cpu time spent up to now is       59.4 secs

     total energy              =     -40.31201433 Ry
     estimated scf accuracy    <       0.22207940 Ry

     total magnetization       =    -0.00 Bohr mag/cell
     absolute magnetization    =     0.06 Bohr mag/cell

     iteration #  2     ecut=    60.00 Ry     beta= 0.70
     CG style diagonalization
     ethr =  2.22E-03,  avg # of iterations =  3.5

     negative rho (up, down):  7.311E-04 7.161E-04

     total cpu time spent up to now is       79.6 secs

     total energy              =     -40.10620442 Ry
     estimated scf accuracy    <       2.96476404 Ry

     total magnetization       =    -0.08 Bohr mag/cell
     absolute magnetization    =     0.17 Bohr mag/cell

     iteration #  3     ecut=    60.00 Ry     beta= 0.70
     CG style diagonalization
     ethr =  2.22E-03,  avg # of iterations =  3.4

     negative rho (up, down):  2.612E-04 2.567E-04

     total cpu time spent up to now is       99.8 secs

     total energy              =     -40.38669350 Ry
     estimated scf accuracy    <       0.08441035 Ry

     total magnetization       =    -0.02 Bohr mag/cell
     absolute magnetization    =     0.05 Bohr mag/cell

     iteration #  4     ecut=    60.00 Ry     beta= 0.70
     CG style diagonalization
     ethr =  8.44E-04,  avg # of iterations =  3.0

     negative rho (up, down):  1.626E-04 1.577E-04

     total cpu time spent up to now is      119.1 secs

     total energy              =     -40.39966981 Ry
     estimated scf accuracy    <       0.05098052 Ry

     total magnetization       =    -0.01 Bohr mag/cell
     absolute magnetization    =     0.07 Bohr mag/cell

     iteration #  5     ecut=    60.00 Ry     beta= 0.70
     CG style diagonalization
     ethr =  5.10E-04,  avg # of iterations =  3.0

     negative rho (up, down):  1.769E-04 1.740E-04

     total cpu time spent up to now is      138.4 secs

     total energy              =     -40.39697281 Ry
     estimated scf accuracy    <       0.02880128 Ry

     total magnetization       =     0.05 Bohr mag/cell
     absolute magnetization    =     0.06 Bohr mag/cell

     iteration #  6     ecut=    60.00 Ry     beta= 0.70
     CG style diagonalization
     ethr =  2.88E-04,  avg # of iterations =  3.1

     negative rho (up, down):  1.911E-04 3.853E-04

     total cpu time spent up to now is      158.2 secs

     total energy              =     -40.40012897 Ry
     estimated scf accuracy    <       0.16794852 Ry

     total magnetization       =     0.39 Bohr mag/cell
     absolute magnetization    =     0.50 Bohr mag/cell

     iteration #  7     ecut=    60.00 Ry     beta= 0.70
     CG style diagonalization
     ethr =  2.88E-04,  avg # of iterations =  3.8

     negative rho (up, down):  1.806E-04 4.296E-04

     total cpu time spent up to now is      179.9 secs

     total energy              =     -40.39999250 Ry
     estimated scf accuracy    <       0.06484982 Ry

     total magnetization       =     0.39 Bohr mag/cell
     absolute magnetization    =     0.47 Bohr mag/cell

     iteration #  8     ecut=    60.00 Ry     beta= 0.70
     CG style diagonalization
     ethr =  2.88E-04,  avg # of iterations =  3.6

     negative rho (up, down):  1.831E-04 3.731E-04

     total cpu time spent up to now is      201.1 secs

     total energy              =     -40.40026560 Ry
     estimated scf accuracy    <       0.04479643 Ry

     total magnetization       =     0.26 Bohr mag/cell
     absolute magnetization    =     0.32 Bohr mag/cell

     iteration #  9     ecut=    60.00 Ry     beta= 0.70
     CG style diagonalization
     ethr =  2.88E-04,  avg # of iterations =  4.4

     negative rho (up, down):  1.820E-04 3.723E-04

     total cpu time spent up to now is      224.5 secs

     total energy              =     -40.39932128 Ry
     estimated scf accuracy    <       0.05797190 Ry

     total magnetization       =     0.28 Bohr mag/cell
     absolute magnetization    =     0.33 Bohr mag/cell

     iteration # 10     ecut=    60.00 Ry     beta= 0.70
     CG style diagonalization
     ethr =  2.88E-04,  avg # of iterations =  3.1

     negative rho (up, down):  1.812E-04 3.155E-04

     total cpu time spent up to now is      244.5 secs

     total energy              =     -40.39983853 Ry
     estimated scf accuracy    <       0.02778555 Ry

     total magnetization       =     0.47 Bohr mag/cell
     absolute magnetization    =     0.47 Bohr mag/cell

     iteration # 11     ecut=    60.00 Ry     beta= 0.70
     CG style diagonalization
     ethr =  2.78E-04,  avg # of iterations =  3.0

     negative rho (up, down):  1.817E-04 2.989E-04

     total cpu time spent up to now is      264.4 secs

     total energy              =     -40.39979505 Ry
     estimated scf accuracy    <       0.02752126 Ry

     total magnetization       =     0.43 Bohr mag/cell
     absolute magnetization    =     0.43 Bohr mag/cell

     iteration # 12     ecut=    60.00 Ry     beta= 0.70
     CG style diagonalization
     ethr =  2.75E-04,  avg # of iterations =  3.0

     negative rho (up, down):  1.823E-04 2.990E-04

     total cpu time spent up to now is      284.4 secs

     total energy              =     -40.39994969 Ry
     estimated scf accuracy    <       0.03160133 Ry

     total magnetization       =     0.36 Bohr mag/cell
     absolute magnetization    =     0.36 Bohr mag/cell

     iteration # 13     ecut=    60.00 Ry     beta= 0.70
     CG style diagonalization
     ethr =  2.75E-04,  avg # of iterations =  3.0

     negative rho (up, down):  2.708E-04 1.705E-02

     total cpu time spent up to now is      304.0 secs

     total energy              =     -40.39909988 Ry
     estimated scf accuracy    <       0.04127411 Ry

     total magnetization       =     0.38 Bohr mag/cell
     absolute magnetization    =     0.38 Bohr mag/cell

     iteration # 14     ecut=    60.00 Ry     beta= 0.70
     CG style diagonalization
     ethr =  2.75E-04,  avg # of iterations =  3.1

     negative rho (up, down):  2.685E-04 2.208E-02

     total cpu time spent up to now is      323.6 secs

     total energy              =     -40.40293574 Ry
     estimated scf accuracy    <       0.10656626 Ry

     total magnetization       =     0.70 Bohr mag/cell
     absolute magnetization    =     0.70 Bohr mag/cell

     iteration # 15     ecut=    60.00 Ry     beta= 0.70
     CG style diagonalization
     ethr =  2.75E-04,  avg # of iterations =  3.1

     negative rho (up, down):  3.180E-04 2.333E-02

     total cpu time spent up to now is      343.4 secs

     total energy              =     -40.40292156 Ry
     estimated scf accuracy    <       0.20585890 Ry

     total magnetization       =     0.84 Bohr mag/cell
     absolute magnetization    =     0.84 Bohr mag/cell

     iteration # 16     ecut=    60.00 Ry     beta= 0.70
     CG style diagonalization
     ethr =  2.75E-04,  avg # of iterations =  3.1

     negative rho (up, down):  3.338E-04 7.853E-03

     total cpu time spent up to now is      363.3 secs

     total energy              =     -40.39849718 Ry
     estimated scf accuracy    <       0.18570209 Ry

     total magnetization       =     0.77 Bohr mag/cell
     absolute magnetization    =     0.79 Bohr mag/cell

     iteration # 17     ecut=    60.00 Ry     beta= 0.70
     CG style diagonalization
     ethr =  2.75E-04,  avg # of iterations =  3.1

     negative rho (up, down):  3.545E-03 2.341E-02

     total cpu time spent up to now is      383.0 secs

     total energy              =     -40.39849059 Ry
     estimated scf accuracy    <       0.02855700 Ry

     total magnetization       =     0.49 Bohr mag/cell
     absolute magnetization    =     0.49 Bohr mag/cell

     iteration # 18     ecut=    60.00 Ry     beta= 0.70
     CG style diagonalization
     ethr =  2.75E-04,  avg # of iterations =  3.1

     negative rho (up, down):  8.141E-03 1.480E-02

     total cpu time spent up to now is      402.7 secs

     total energy              =     -40.39990318 Ry
     estimated scf accuracy    <       0.05049954 Ry

     total magnetization       =    -0.06 Bohr mag/cell
     absolute magnetization    =     0.32 Bohr mag/cell

     iteration # 19     ecut=    60.00 Ry     beta= 0.70
     CG style diagonalization
     ethr =  2.75E-04,  avg # of iterations =  3.1

     negative rho (up, down):  2.665E-02 3.999E-03

     total cpu time spent up to now is      422.6 secs

     total energy              =     -40.39981664 Ry
     estimated scf accuracy    <       0.06087509 Ry

     total magnetization       =    -0.18 Bohr mag/cell
     absolute magnetization    =     0.35 Bohr mag/cell

     iteration # 20     ecut=    60.00 Ry     beta= 0.70
     CG style diagonalization
     ethr =  2.75E-04,  avg # of iterations =  3.3

     negative rho (up, down):  3.537E-02 2.576E-04

     total cpu time spent up to now is      443.0 secs

     total energy              =     -40.39976526 Ry
     estimated scf accuracy    <       0.08807795 Ry

     total magnetization       =    -0.40 Bohr mag/cell
     absolute magnetization    =     0.57 Bohr mag/cell

     iteration # 21     ecut=    60.00 Ry     beta= 0.70
     CG style diagonalization
     ethr =  2.75E-04,  avg # of iterations =  3.1

     negative rho (up, down):  3.753E-02 2.040E-04

     total cpu time spent up to now is      462.7 secs

     total energy              =     -40.40038928 Ry
     estimated scf accuracy    <       0.02951454 Ry

     total magnetization       =    -0.45 Bohr mag/cell
     absolute magnetization    =     0.45 Bohr mag/cell

     iteration # 22     ecut=    60.00 Ry     beta= 0.70
     CG style diagonalization
     ethr =  2.75E-04,  avg # of iterations =  3.1

     negative rho (up, down):  1.994E-02 3.106E-04

     total cpu time spent up to now is      482.5 secs

     total energy              =     -40.40023682 Ry
     estimated scf accuracy    <       0.03787043 Ry

     total magnetization       =    -0.55 Bohr mag/cell
     absolute magnetization    =     0.55 Bohr mag/cell

     iteration # 23     ecut=    60.00 Ry     beta= 0.70
     CG style diagonalization
     ethr =  2.75E-04,  avg # of iterations =  3.0

     negative rho (up, down):  6.095E-02 1.811E-04

     total cpu time spent up to now is      502.2 secs

     total energy              =     -40.39971694 Ry
     estimated scf accuracy    <       0.04159033 Ry

     total magnetization       =    -0.50 Bohr mag/cell
     absolute magnetization    =     0.51 Bohr mag/cell

     iteration # 24     ecut=    60.00 Ry     beta= 0.70
     CG style diagonalization
     ethr =  2.75E-04,  avg # of iterations =  3.1

     negative rho (up, down):  4.622E-02 2.117E-04

     total cpu time spent up to now is      522.0 secs

     total energy              =     -40.40047124 Ry
     estimated scf accuracy    <       0.01664313 Ry

     total magnetization       =    -0.38 Bohr mag/cell
     absolute magnetization    =     0.38 Bohr mag/cell

     iteration # 25     ecut=    60.00 Ry     beta= 0.70
     CG style diagonalization
     ethr =  1.66E-04,  avg # of iterations =  3.1

     negative rho (up, down):  4.826E-02 2.274E-04

     total cpu time spent up to now is      541.7 secs

     total energy              =     -40.40049310 Ry
     estimated scf accuracy    <       0.01748357 Ry

     total magnetization       =    -0.39 Bohr mag/cell
     absolute magnetization    =     0.39 Bohr mag/cell

     iteration # 26     ecut=    60.00 Ry     beta= 0.70
     CG style diagonalization
     ethr =  1.66E-04,  avg # of iterations =  3.1

     negative rho (up, down):  9.395E-03 1.032E-03

     total cpu time spent up to now is      561.6 secs

     total energy              =     -40.39988579 Ry
     estimated scf accuracy    <       0.01785460 Ry

     total magnetization       =    -0.38 Bohr mag/cell
     absolute magnetization    =     0.39 Bohr mag/cell

     iteration # 27     ecut=    60.00 Ry     beta= 0.70
     CG style diagonalization
     ethr =  1.66E-04,  avg # of iterations =  3.1

     negative rho (up, down):  1.744E-04 2.107E-03

     total cpu time spent up to now is      581.6 secs

     total energy              =     -40.39584745 Ry
     estimated scf accuracy    <       0.00559939 Ry

     total magnetization       =    -0.30 Bohr mag/cell
     absolute magnetization    =     0.30 Bohr mag/cell

     iteration # 28     ecut=    60.00 Ry     beta= 0.70
     CG style diagonalization
     ethr =  5.60E-05,  avg # of iterations =  3.5

     negative rho (up, down):  9.025E-04 1.889E-04

     total cpu time spent up to now is      602.7 secs

     total energy              =     -40.39879457 Ry
     estimated scf accuracy    <       0.00910571 Ry

     total magnetization       =     0.10 Bohr mag/cell
     absolute magnetization    =     0.10 Bohr mag/cell

     iteration # 29     ecut=    60.00 Ry     beta= 0.70
     CG style diagonalization
     ethr =  5.60E-05,  avg # of iterations =  3.4

     negative rho (up, down):  3.155E-04 1.741E-04

     total cpu time spent up to now is      623.7 secs

     total energy              =     -40.39948541 Ry
     estimated scf accuracy    <       0.00248173 Ry

     total magnetization       =    -0.16 Bohr mag/cell
     absolute magnetization    =     0.17 Bohr mag/cell

     iteration # 30     ecut=    60.00 Ry     beta= 0.70
     CG style diagonalization
     ethr =  2.48E-05,  avg # of iterations =  4.7

     negative rho (up, down):  5.300E-03 5.294E-04

     total cpu time spent up to now is      647.5 secs

     total energy              =     -40.40009639 Ry
     estimated scf accuracy    <       0.00531659 Ry

     total magnetization       =    -0.14 Bohr mag/cell
     absolute magnetization    =     0.14 Bohr mag/cell

     iteration # 31     ecut=    60.00 Ry     beta= 0.70
     CG style diagonalization
     ethr =  2.48E-05,  avg # of iterations =  4.2

     negative rho (up, down):  1.896E-03 1.153E-03

     total cpu time spent up to now is      670.0 secs

     total energy              =     -40.39987660 Ry
     estimated scf accuracy    <       0.02070861 Ry

     total magnetization       =    -0.41 Bohr mag/cell
     absolute magnetization    =     0.41 Bohr mag/cell

     iteration # 32     ecut=    60.00 Ry     beta= 0.70
     CG style diagonalization
     c_bands:  1 eigenvalues not converged
     ethr =  2.48E-05,  avg # of iterations =  4.1

     negative rho (up, down):  1.203E-03 1.042E-03

     total cpu time spent up to now is      692.5 secs

     total energy              =     -40.40023101 Ry
     estimated scf accuracy    <       0.00407441 Ry

     total magnetization       =    -0.27 Bohr mag/cell
     absolute magnetization    =     0.30 Bohr mag/cell

     iteration # 33     ecut=    60.00 Ry     beta= 0.70
     CG style diagonalization
     ethr =  2.48E-05,  avg # of iterations =  3.5

     negative rho (up, down):  2.084E-04 2.459E-03

     total cpu time spent up to now is      713.6 secs

     total energy              =     -40.39916405 Ry
     estimated scf accuracy    <       0.00298556 Ry

     total magnetization       =    -0.26 Bohr mag/cell
     absolute magnetization    =     0.30 Bohr mag/cell

     iteration # 34     ecut=    60.00 Ry     beta= 0.70
     CG style diagonalization
     ethr =  2.48E-05,  avg # of iterations =  3.5

     negative rho (up, down):  1.700E-04 3.073E-02

     total cpu time spent up to now is      734.3 secs

     total energy              =     -40.39828877 Ry
     estimated scf accuracy    <       0.00717647 Ry

     total magnetization       =    -0.11 Bohr mag/cell
     absolute magnetization    =     0.13 Bohr mag/cell

     iteration # 35     ecut=    60.00 Ry     beta= 0.70
     CG style diagonalization
     ethr =  2.48E-05,  avg # of iterations =  4.2

     negative rho (up, down):  1.699E-04 3.552E-02

     total cpu time spent up to now is      756.8 secs

     total energy              =     -40.40090665 Ry
     estimated scf accuracy    <       0.01940614 Ry

     total magnetization       =     0.41 Bohr mag/cell
     absolute magnetization    =     0.41 Bohr mag/cell

     iteration # 36     ecut=    60.00 Ry     beta= 0.70
     CG style diagonalization
     ethr =  2.48E-05,  avg # of iterations =  4.6

     negative rho (up, down):  1.909E-04 1.629E-02

     total cpu time spent up to now is      780.1 secs

     total energy              =     -40.40158228 Ry
     estimated scf accuracy    <       0.04691950 Ry

     total magnetization       =     0.51 Bohr mag/cell
     absolute magnetization    =     0.51 Bohr mag/cell

     iteration # 37     ecut=    60.00 Ry     beta= 0.70
     CG style diagonalization
     ethr =  2.48E-05,  avg # of iterations =  3.7

     negative rho (up, down):  2.051E-04 6.362E-03

     total cpu time spent up to now is      801.5 secs

     total energy              =     -40.40084885 Ry
     estimated scf accuracy    <       0.05077356 Ry

     total magnetization       =     0.49 Bohr mag/cell
     absolute magnetization    =     0.52 Bohr mag/cell

     iteration # 38     ecut=    60.00 Ry     beta= 0.70
     CG style diagonalization
     ethr =  2.48E-05,  avg # of iterations =  3.5

     negative rho (up, down):  1.951E-04 6.515E-03

     total cpu time spent up to now is      822.4 secs

     total energy              =     -40.40135524 Ry
     estimated scf accuracy    <       0.02488320 Ry

     total magnetization       =     0.40 Bohr mag/cell
     absolute magnetization    =     0.44 Bohr mag/cell

     iteration # 39     ecut=    60.00 Ry     beta= 0.70
     CG style diagonalization
     ethr =  2.48E-05,  avg # of iterations =  3.2

     negative rho (up, down):  2.129E-04 2.425E-04

     total cpu time spent up to now is      842.9 secs

     total energy              =     -40.39600078 Ry
     estimated scf accuracy    <       0.03452637 Ry

     total magnetization       =     0.42 Bohr mag/cell
     absolute magnetization    =     0.49 Bohr mag/cell

     iteration # 40     ecut=    60.00 Ry     beta= 0.70
     CG style diagonalization
     ethr =  2.48E-05,  avg # of iterations =  3.9

     negative rho (up, down):  1.706E-04 1.748E-04

     total cpu time spent up to now is      865.0 secs

     total energy              =     -40.39922076 Ry
     estimated scf accuracy    <       0.00926731 Ry

     total magnetization       =    -0.05 Bohr mag/cell
     absolute magnetization    =     0.05 Bohr mag/cell

     iteration # 41     ecut=    60.00 Ry     beta= 0.70
     CG style diagonalization
     ethr =  2.48E-05,  avg # of iterations =  4.0

     negative rho (up, down):  1.731E-04 2.384E-04

     total cpu time spent up to now is      887.4 secs

     total energy              =     -40.39923172 Ry
     estimated scf accuracy    <       0.01018627 Ry

     total magnetization       =    -0.09 Bohr mag/cell
     absolute magnetization    =     0.09 Bohr mag/cell

     iteration # 42     ecut=    60.00 Ry     beta= 0.70
     CG style diagonalization
     ethr =  2.48E-05,  avg # of iterations =  3.5

     negative rho (up, down):  1.729E-04 2.513E-03

     total cpu time spent up to now is      908.3 secs

     total energy              =     -40.39905892 Ry
     estimated scf accuracy    <       0.00732579 Ry

     total magnetization       =    -0.02 Bohr mag/cell
     absolute magnetization    =     0.08 Bohr mag/cell

     iteration # 43     ecut=    60.00 Ry     beta= 0.70
     CG style diagonalization
     ethr =  2.48E-05,  avg # of iterations =  4.1

     negative rho (up, down):  1.718E-04 2.905E-03

     total cpu time spent up to now is      930.7 secs

     total energy              =     -40.39965753 Ry
     estimated scf accuracy    <       0.00111543 Ry

     total magnetization       =     0.21 Bohr mag/cell
     absolute magnetization    =     0.23 Bohr mag/cell

     iteration # 44     ecut=    60.00 Ry     beta= 0.70
     CG style diagonalization
     ethr =  1.12E-05,  avg # of iterations =  4.6

     negative rho (up, down):  1.084E-03 6.044E-03

     total cpu time spent up to now is      954.2 secs

     total energy              =     -40.39988013 Ry
     estimated scf accuracy    <       0.00238742 Ry

     total magnetization       =     0.28 Bohr mag/cell
     absolute magnetization    =     0.28 Bohr mag/cell

     iteration # 45     ecut=    60.00 Ry     beta= 0.70
     CG style diagonalization
     c_bands:  1 eigenvalues not converged
     ethr =  1.12E-05,  avg # of iterations =  4.9

     negative rho (up, down):  2.152E-04 3.224E-03

     total cpu time spent up to now is      978.7 secs

     total energy              =     -40.39895309 Ry
     estimated scf accuracy    <       0.01473689 Ry

     total magnetization       =     0.35 Bohr mag/cell
     absolute magnetization    =     0.36 Bohr mag/cell

     iteration # 46     ecut=    60.00 Ry     beta= 0.70
     CG style diagonalization
     ethr =  1.12E-05,  avg # of iterations =  4.6

     negative rho (up, down):  1.695E-03 4.396E-03

     total cpu time spent up to now is     1002.2 secs

     total energy              =     -40.39948227 Ry
     estimated scf accuracy    <       0.00103931 Ry

     total magnetization       =     0.19 Bohr mag/cell
     absolute magnetization    =     0.22 Bohr mag/cell

     iteration # 47     ecut=    60.00 Ry     beta= 0.70
     CG style diagonalization
     ethr =  1.04E-05,  avg # of iterations =  4.1

     negative rho (up, down):  3.881E-03 1.802E-03

     total cpu time spent up to now is     1024.4 secs

     total energy              =     -40.39980995 Ry
     estimated scf accuracy    <       0.00652420 Ry

     total magnetization       =     0.25 Bohr mag/cell
     absolute magnetization    =     0.29 Bohr mag/cell

     iteration # 48     ecut=    60.00 Ry     beta= 0.70
     CG style diagonalization
     c_bands:  1 eigenvalues not converged
     ethr =  1.04E-05,  avg # of iterations =  5.5

     negative rho (up, down):  4.504E-03 4.081E-03

     total cpu time spent up to now is     1050.1 secs

     total energy              =     -40.40120030 Ry
     estimated scf accuracy    <       0.05890222 Ry

     total magnetization       =    -0.01 Bohr mag/cell
     absolute magnetization    =     0.57 Bohr mag/cell

     iteration # 49     ecut=    60.00 Ry     beta= 0.70
     CG style diagonalization
     ethr =  1.04E-05,  avg # of iterations =  4.5

     negative rho (up, down):  2.117E-04 8.411E-04

     total cpu time spent up to now is     1073.5 secs

     total energy              =     -40.39708020 Ry
     estimated scf accuracy    <       0.10551062 Ry

     total magnetization       =     0.11 Bohr mag/cell
     absolute magnetization    =     0.68 Bohr mag/cell

     iteration # 50     ecut=    60.00 Ry     beta= 0.70
     CG style diagonalization
     c_bands:  1 eigenvalues not converged
     c_bands:  1 eigenvalues not converged
     ethr =  1.04E-05,  avg # of iterations =  6.1

     negative rho (up, down):  1.966E-04 5.333E-04

     total cpu time spent up to now is     1100.6 secs

     total energy              =     -40.40069861 Ry
     estimated scf accuracy    <       0.02418318 Ry

     total magnetization       =     0.41 Bohr mag/cell
     absolute magnetization    =     0.42 Bohr mag/cell

     iteration # 51     ecut=    60.00 Ry     beta= 0.70
     CG style diagonalization
     ethr =  1.04E-05,  avg # of iterations =  3.7

     negative rho (up, down):  1.937E-04 1.262E-03

     total cpu time spent up to now is     1122.1 secs

     total energy              =     -40.39902824 Ry
     estimated scf accuracy    <       0.02186766 Ry

     total magnetization       =     0.39 Bohr mag/cell
     absolute magnetization    =     0.41 Bohr mag/cell

     iteration # 52     ecut=    60.00 Ry     beta= 0.70
     CG style diagonalization
     ethr =  1.04E-05,  avg # of iterations =  3.9

     negative rho (up, down):  1.733E-04 4.593E-04

     total cpu time spent up to now is     1144.1 secs

     total energy              =     -40.39933097 Ry
     estimated scf accuracy    <       0.00108028 Ry

     total magnetization       =     0.21 Bohr mag/cell
     absolute magnetization    =     0.21 Bohr mag/cell

     iteration # 53     ecut=    60.00 Ry     beta= 0.70
     CG style diagonalization
     ethr =  1.04E-05,  avg # of iterations =  3.8

     negative rho (up, down):  1.735E-04 4.504E-04

     total cpu time spent up to now is     1166.0 secs

     total energy              =     -40.39938843 Ry
     estimated scf accuracy    <       0.00187109 Ry

     total magnetization       =     0.14 Bohr mag/cell
     absolute magnetization    =     0.14 Bohr mag/cell

     iteration # 54     ecut=    60.00 Ry     beta= 0.70
     CG style diagonalization
     ethr =  1.04E-05,  avg # of iterations =  3.2

     negative rho (up, down):  1.757E-04 3.441E-04

     total cpu time spent up to now is     1186.4 secs

     total energy              =     -40.39941151 Ry
     estimated scf accuracy    <       0.00189889 Ry

     total magnetization       =     0.14 Bohr mag/cell
     absolute magnetization    =     0.14 Bohr mag/cell

     iteration # 55     ecut=    60.00 Ry     beta= 0.70
     CG style diagonalization
     ethr =  1.04E-05,  avg # of iterations =  3.6

     negative rho (up, down):  1.748E-04 2.993E-04

     total cpu time spent up to now is     1207.7 secs

     total energy              =     -40.39943669 Ry
     estimated scf accuracy    <       0.00093027 Ry

     total magnetization       =     0.21 Bohr mag/cell
     absolute magnetization    =     0.21 Bohr mag/cell

     iteration # 56     ecut=    60.00 Ry     beta= 0.70
     CG style diagonalization
     ethr =  9.30E-06,  avg # of iterations =  3.2

     negative rho (up, down):  2.018E-04 1.974E-04

     total cpu time spent up to now is     1228.1 secs

     total energy              =     -40.39932575 Ry
     estimated scf accuracy    <       0.00060830 Ry

     total magnetization       =     0.18 Bohr mag/cell
     absolute magnetization    =     0.19 Bohr mag/cell

     iteration # 57     ecut=    60.00 Ry     beta= 0.70
     CG style diagonalization
     ethr =  6.08E-06,  avg # of iterations =  4.0

     negative rho (up, down):  1.759E-04 1.774E-04

     total cpu time spent up to now is     1250.5 secs

     total energy              =     -40.39922998 Ry
     estimated scf accuracy    <       0.00012197 Ry

     total magnetization       =     0.04 Bohr mag/cell
     absolute magnetization    =     0.20 Bohr mag/cell

     iteration # 58     ecut=    60.00 Ry     beta= 0.70
     CG style diagonalization
     c_bands:  1 eigenvalues not converged
     ethr =  1.22E-06,  avg # of iterations =  7.0

     negative rho (up, down):  1.783E-04 1.785E-04

     total cpu time spent up to now is     1279.6 secs

     total energy              =     -40.39938358 Ry
     estimated scf accuracy    <       0.00058987 Ry

     total magnetization       =     0.09 Bohr mag/cell
     absolute magnetization    =     0.18 Bohr mag/cell

     iteration # 59     ecut=    60.00 Ry     beta= 0.70
     CG style diagonalization
     ethr =  1.22E-06,  avg # of iterations =  4.9

     negative rho (up, down):  1.906E-04 1.799E-04

     total cpu time spent up to now is     1304.0 secs

     total energy              =     -40.39950333 Ry
     estimated scf accuracy    <       0.00028246 Ry

     total magnetization       =     0.14 Bohr mag/cell
     absolute magnetization    =     0.20 Bohr mag/cell

     iteration # 60     ecut=    60.00 Ry     beta= 0.70
     CG style diagonalization
     ethr =  1.22E-06,  avg # of iterations =  5.8

     negative rho (up, down):  1.725E-04 3.335E-04

     total cpu time spent up to now is     1330.4 secs

     total energy              =     -40.39905875 Ry
     estimated scf accuracy    <       0.00152056 Ry

     total magnetization       =     0.04 Bohr mag/cell
     absolute magnetization    =     0.25 Bohr mag/cell

     iteration # 61     ecut=    60.00 Ry     beta= 0.70
     CG style diagonalization
     ethr =  1.22E-06,  avg # of iterations =  7.1

     negative rho (up, down):  1.747E-04 2.847E-04

     total cpu time spent up to now is     1359.8 secs

     total energy              =     -40.39979649 Ry
     estimated scf accuracy    <       0.00312686 Ry

     total magnetization       =     0.29 Bohr mag/cell
     absolute magnetization    =     0.29 Bohr mag/cell

     iteration # 62     ecut=    60.00 Ry     beta= 0.70
     CG style diagonalization
     c_bands:  1 eigenvalues not converged
     ethr =  1.22E-06,  avg # of iterations =  5.7

     negative rho (up, down):  1.726E-04 1.898E-04

     total cpu time spent up to now is     1386.3 secs

     total energy              =     -40.39886162 Ry
     estimated scf accuracy    <       0.00631968 Ry

     total magnetization       =     0.33 Bohr mag/cell
     absolute magnetization    =     0.33 Bohr mag/cell

     iteration # 63     ecut=    60.00 Ry     beta= 0.70
     CG style diagonalization
     c_bands:  1 eigenvalues not converged
     ethr =  1.22E-06,  avg # of iterations =  5.8

     negative rho (up, down):  1.720E-04 1.831E-04

     total cpu time spent up to now is     1412.9 secs

     total energy              =     -40.39915447 Ry
     estimated scf accuracy    <       0.00068040 Ry

     total magnetization       =     0.17 Bohr mag/cell
     absolute magnetization    =     0.17 Bohr mag/cell

     iteration # 64     ecut=    60.00 Ry     beta= 0.70
     CG style diagonalization
     ethr =  1.22E-06,  avg # of iterations =  5.2

     negative rho (up, down):  1.734E-04 1.817E-04

     total cpu time spent up to now is     1438.4 secs

     total energy              =     -40.39927913 Ry
     estimated scf accuracy    <       0.00113486 Ry

     total magnetization       =     0.13 Bohr mag/cell
     absolute magnetization    =     0.14 Bohr mag/cell

     iteration # 65     ecut=    60.00 Ry     beta= 0.70
     CG style diagonalization
     ethr =  1.22E-06,  avg # of iterations =  3.5

     negative rho (up, down):  1.734E-04 1.817E-04

     total cpu time spent up to now is     1459.5 secs

     total energy              =     -40.39926326 Ry
     estimated scf accuracy    <       0.00094677 Ry

     total magnetization       =     0.13 Bohr mag/cell
     absolute magnetization    =     0.14 Bohr mag/cell

     iteration # 66     ecut=    60.00 Ry     beta= 0.70
     CG style diagonalization
     ethr =  1.22E-06,  avg # of iterations =  3.4

     negative rho (up, down):  1.737E-04 1.809E-04

     total cpu time spent up to now is     1480.4 secs

     total energy              =     -40.39920472 Ry
     estimated scf accuracy    <       0.00106896 Ry

     total magnetization       =     0.13 Bohr mag/cell
     absolute magnetization    =     0.14 Bohr mag/cell

     iteration # 67     ecut=    60.00 Ry     beta= 0.70
     CG style diagonalization
     ethr =  1.22E-06,  avg # of iterations =  3.5

     negative rho (up, down):  1.751E-04 1.805E-04

     total cpu time spent up to now is     1501.3 secs

     total energy              =     -40.39929461 Ry
     estimated scf accuracy    <       0.00119543 Ry

     total magnetization       =     0.10 Bohr mag/cell
     absolute magnetization    =     0.12 Bohr mag/cell

     iteration # 68     ecut=    60.00 Ry     beta= 0.70
     CG style diagonalization
     ethr =  1.22E-06,  avg # of iterations =  4.1

     negative rho (up, down):  1.775E-04 1.794E-04

     total cpu time spent up to now is     1523.9 secs

     total energy              =     -40.39918323 Ry
     estimated scf accuracy    <       0.00045246 Ry

     total magnetization       =     0.11 Bohr mag/cell
     absolute magnetization    =     0.14 Bohr mag/cell

     iteration # 69     ecut=    60.00 Ry     beta= 0.70
     CG style diagonalization
     ethr =  1.22E-06,  avg # of iterations =  6.8

     negative rho (up, down):  2.831E-04 1.940E-04

     total cpu time spent up to now is     1552.5 secs

     total energy              =     -40.39961954 Ry
     estimated scf accuracy    <       0.00127786 Ry

     total magnetization       =     0.05 Bohr mag/cell
     absolute magnetization    =     0.20 Bohr mag/cell

     iteration # 70     ecut=    60.00 Ry     beta= 0.70
     CG style diagonalization
     ethr =  1.22E-06,  avg # of iterations =  7.3

     negative rho (up, down):  3.038E-04 2.421E-04

     total cpu time spent up to now is     1582.3 secs

     total energy              =     -40.40012568 Ry
     estimated scf accuracy    <       0.00774703 Ry

     total magnetization       =     0.14 Bohr mag/cell
     absolute magnetization    =     0.27 Bohr mag/cell

     iteration # 71     ecut=    60.00 Ry     beta= 0.70
     CG style diagonalization
     ethr =  1.22E-06,  avg # of iterations =  7.2

     negative rho (up, down):  2.083E-04 2.239E-04

     total cpu time spent up to now is     1611.8 secs

     total energy              =     -40.40003824 Ry
     estimated scf accuracy    <       0.02652177 Ry

     total magnetization       =     0.14 Bohr mag/cell
     absolute magnetization    =     0.37 Bohr mag/cell

     iteration # 72     ecut=    60.00 Ry     beta= 0.70
     CG style diagonalization
     ethr =  1.22E-06,  avg # of iterations =  4.9

     negative rho (up, down):  1.915E-04 1.982E-04

     total cpu time spent up to now is     1636.2 secs

     total energy              =     -40.39869898 Ry
     estimated scf accuracy    <       0.01515779 Ry

     total magnetization       =     0.14 Bohr mag/cell
     absolute magnetization    =     0.32 Bohr mag/cell

     iteration # 73     ecut=    60.00 Ry     beta= 0.70
     CG style diagonalization
     ethr =  1.22E-06,  avg # of iterations =  7.9

     negative rho (up, down):  1.840E-04 1.834E-04

     total cpu time spent up to now is     1667.5 secs

     total energy              =     -40.39916329 Ry
     estimated scf accuracy    <       0.00033362 Ry

     total magnetization       =     0.04 Bohr mag/cell
     absolute magnetization    =     0.18 Bohr mag/cell

     iteration # 74     ecut=    60.00 Ry     beta= 0.70
     CG style diagonalization
     c_bands:  1 eigenvalues not converged
     ethr =  1.22E-06,  avg # of iterations =  6.6

     negative rho (up, down):  4.203E-04 1.806E-04

     total cpu time spent up to now is     1695.5 secs

     total energy              =     -40.39919080 Ry
     estimated scf accuracy    <       0.00004219 Ry

     total magnetization       =     0.04 Bohr mag/cell
     absolute magnetization    =     0.15 Bohr mag/cell

     iteration # 75     ecut=    60.00 Ry     beta= 0.70
     CG style diagonalization
     ethr =  4.22E-07,  avg # of iterations =  5.5

     negative rho (up, down):  8.029E-04 1.805E-04

     total cpu time spent up to now is     1721.5 secs

     total energy              =     -40.39921921 Ry
     estimated scf accuracy    <       0.00008974 Ry

     total magnetization       =     0.03 Bohr mag/cell
     absolute magnetization    =     0.14 Bohr mag/cell

     iteration # 76     ecut=    60.00 Ry     beta= 0.70
     CG style diagonalization
     ethr =  4.22E-07,  avg # of iterations =  4.3

     negative rho (up, down):  1.743E-04 1.796E-04

     total cpu time spent up to now is     1744.7 secs

     total energy              =     -40.39903763 Ry
     estimated scf accuracy    <       0.00016406 Ry

     total magnetization       =     0.03 Bohr mag/cell
     absolute magnetization    =     0.13 Bohr mag/cell

     iteration # 77     ecut=    60.00 Ry     beta= 0.70
     CG style diagonalization
     c_bands:  1 eigenvalues not converged
     ethr =  4.22E-07,  avg # of iterations =  6.8

     negative rho (up, down):  1.759E-04 1.796E-04

     total cpu time spent up to now is     1773.7 secs

     total energy              =     -40.39931304 Ry
     estimated scf accuracy    <       0.00032651 Ry

     total magnetization       =     0.03 Bohr mag/cell
     absolute magnetization    =     0.20 Bohr mag/cell

     iteration # 78     ecut=    60.00 Ry     beta= 0.70
     CG style diagonalization
     ethr =  4.22E-07,  avg # of iterations =  5.4

     negative rho (up, down):  1.283E-02 1.845E-04

     total cpu time spent up to now is     1799.0 secs

     total energy              =     -40.39904213 Ry
     estimated scf accuracy    <       0.00013985 Ry

     total magnetization       =    -0.01 Bohr mag/cell
     absolute magnetization    =     0.19 Bohr mag/cell

     iteration # 79     ecut=    60.00 Ry     beta= 0.70
     CG style diagonalization
     c_bands:  1 eigenvalues not converged
     c_bands:  2 eigenvalues not converged
     c_bands:  1 eigenvalues not converged
     ethr =  4.22E-07,  avg # of iterations =  9.4

     negative rho (up, down):  2.099E-02 1.954E-04

     total cpu time spent up to now is     1833.1 secs

     total energy              =     -40.39992609 Ry
     estimated scf accuracy    <       0.01291075 Ry

     total magnetization       =     0.13 Bohr mag/cell
     absolute magnetization    =     0.31 Bohr mag/cell

     iteration # 80     ecut=    60.00 Ry     beta= 0.70
     CG style diagonalization
     ethr =  4.22E-07,  avg # of iterations =  6.1

     negative rho (up, down):  2.873E-02 2.281E-04

     total cpu time spent up to now is     1860.2 secs

     total energy              =     -40.40059886 Ry
     estimated scf accuracy    <       0.02918443 Ry

     total magnetization       =     0.20 Bohr mag/cell
     absolute magnetization    =     0.40 Bohr mag/cell

     iteration # 81     ecut=    60.00 Ry     beta= 0.70
     CG style diagonalization
     ethr =  4.22E-07,  avg # of iterations =  6.2

     negative rho (up, down):  2.163E-04 2.489E-04

     total cpu time spent up to now is     1887.6 secs

     total energy              =     -40.39273101 Ry
     estimated scf accuracy    <       0.07101180 Ry

     total magnetization       =     0.35 Bohr mag/cell
     absolute magnetization    =     0.51 Bohr mag/cell

     iteration # 82     ecut=    60.00 Ry     beta= 0.70
     CG style diagonalization
     c_bands:  2 eigenvalues not converged
     c_bands:  3 eigenvalues not converged
     c_bands:  1 eigenvalues not converged
     ethr =  4.22E-07,  avg # of iterations = 10.4

     negative rho (up, down):  1.858E-04 1.984E-04

     total cpu time spent up to now is     1924.4 secs

     total energy              =     -40.39937532 Ry
     estimated scf accuracy    <       0.00318327 Ry

     total magnetization       =    -0.00 Bohr mag/cell
     absolute magnetization    =     0.26 Bohr mag/cell

     iteration # 83     ecut=    60.00 Ry     beta= 0.70
     CG style diagonalization
     ethr =  4.22E-07,  avg # of iterations =  7.1

     negative rho (up, down):  1.786E-04 1.846E-04

     total cpu time spent up to now is     1953.9 secs

     total energy              =     -40.39952251 Ry
     estimated scf accuracy    <       0.00091112 Ry

     total magnetization       =    -0.07 Bohr mag/cell
     absolute magnetization    =     0.22 Bohr mag/cell

     iteration # 84     ecut=    60.00 Ry     beta= 0.70
     CG style diagonalization
     ethr =  4.22E-07,  avg # of iterations =  5.1

     negative rho (up, down):  1.774E-04 1.824E-04

     total cpu time spent up to now is     1978.8 secs

     total energy              =     -40.39953664 Ry
     estimated scf accuracy    <       0.00110570 Ry

     total magnetization       =    -0.02 Bohr mag/cell
     absolute magnetization    =     0.23 Bohr mag/cell

     iteration # 85     ecut=    60.00 Ry     beta= 0.70
     CG style diagonalization
     ethr =  4.22E-07,  avg # of iterations =  4.8

     negative rho (up, down):  1.759E-04 1.853E-04

     total cpu time spent up to now is     2003.1 secs

     total energy              =     -40.39940169 Ry
     estimated scf accuracy    <       0.00157490 Ry

     total magnetization       =     0.05 Bohr mag/cell
     absolute magnetization    =     0.27 Bohr mag/cell

     iteration # 86     ecut=    60.00 Ry     beta= 0.70
     CG style diagonalization
     ethr =  4.22E-07,  avg # of iterations =  5.3

     negative rho (up, down):  1.757E-04 1.799E-04

     total cpu time spent up to now is     2028.5 secs

     total energy              =     -40.39947116 Ry
     estimated scf accuracy    <       0.00073755 Ry

     total magnetization       =    -0.03 Bohr mag/cell
     absolute magnetization    =     0.18 Bohr mag/cell

     iteration # 87     ecut=    60.00 Ry     beta= 0.70
     CG style diagonalization
     ethr =  4.22E-07,  avg # of iterations =  3.8

     negative rho (up, down):  1.749E-04 1.786E-04

     total cpu time spent up to now is     2050.4 secs

     total energy              =     -40.39941032 Ry
     estimated scf accuracy    <       0.00046650 Ry

     total magnetization       =    -0.05 Bohr mag/cell
     absolute magnetization    =     0.17 Bohr mag/cell

     iteration # 88     ecut=    60.00 Ry     beta= 0.70
     CG style diagonalization
     ethr =  4.22E-07,  avg # of iterations =  4.9

     negative rho (up, down):  1.743E-04 1.785E-04

     total cpu time spent up to now is     2074.7 secs

     total energy              =     -40.39932353 Ry
     estimated scf accuracy    <       0.00042577 Ry

     total magnetization       =    -0.07 Bohr mag/cell
     absolute magnetization    =     0.17 Bohr mag/cell

     iteration # 89     ecut=    60.00 Ry     beta= 0.70
     CG style diagonalization
     ethr =  4.22E-07,  avg # of iterations =  6.0

     negative rho (up, down):  1.410E-03 1.802E-04

     total cpu time spent up to now is     2101.5 secs

     total energy              =     -40.39932513 Ry
     estimated scf accuracy    <       0.00064322 Ry

     total magnetization       =    -0.08 Bohr mag/cell
     absolute magnetization    =     0.18 Bohr mag/cell

     iteration # 90     ecut=    60.00 Ry     beta= 0.70
     CG style diagonalization
     c_bands:  2 eigenvalues not converged
     c_bands:  2 eigenvalues not converged
     ethr =  4.22E-07,  avg # of iterations =  8.6

     negative rho (up, down):  3.966E-03 1.837E-04

     total cpu time spent up to now is     2134.5 secs

     total energy              =     -40.39970523 Ry
     estimated scf accuracy    <       0.00561781 Ry

     total magnetization       =    -0.12 Bohr mag/cell
     absolute magnetization    =     0.26 Bohr mag/cell

     iteration # 91     ecut=    60.00 Ry     beta= 0.70
     CG style diagonalization
     ethr =  4.22E-07,  avg # of iterations =  6.5

     negative rho (up, down):  2.658E-03 1.854E-04

     total cpu time spent up to now is     2162.3 secs

     total energy              =     -40.39974695 Ry
     estimated scf accuracy    <       0.00526608 Ry

     total magnetization       =    -0.13 Bohr mag/cell
     absolute magnetization    =     0.26 Bohr mag/cell

     iteration # 92     ecut=    60.00 Ry     beta= 0.70
     CG style diagonalization
     ethr =  4.22E-07,  avg # of iterations =  4.3

     negative rho (up, down):  4.306E-03 1.842E-04

     total cpu time spent up to now is     2185.0 secs

     total energy              =     -40.39984149 Ry
     estimated scf accuracy    <       0.00493295 Ry

     total magnetization       =    -0.16 Bohr mag/cell
     absolute magnetization    =     0.26 Bohr mag/cell

     iteration # 93     ecut=    60.00 Ry     beta= 0.70
     CG style diagonalization
     c_bands:  2 eigenvalues not converged
     c_bands:  1 eigenvalues not converged
     ethr =  4.22E-07,  avg # of iterations =  7.6

     negative rho (up, down):  3.597E-03 1.946E-04

     total cpu time spent up to now is     2215.7 secs

     total energy              =     -40.40006195 Ry
     estimated scf accuracy    <       0.01538019 Ry

     total magnetization       =    -0.06 Bohr mag/cell
     absolute magnetization    =     0.34 Bohr mag/cell

     iteration # 94     ecut=    60.00 Ry     beta= 0.70
     CG style diagonalization
     ethr =  4.22E-07,  avg # of iterations =  5.1

     negative rho (up, down):  1.519E-03 1.926E-04

     total cpu time spent up to now is     2240.3 secs

     total energy              =     -40.40001744 Ry
     estimated scf accuracy    <       0.01542582 Ry

     total magnetization       =    -0.14 Bohr mag/cell
     absolute magnetization    =     0.32 Bohr mag/cell

     iteration # 95     ecut=    60.00 Ry     beta= 0.70
     CG style diagonalization
     ethr =  4.22E-07,  avg # of iterations =  5.4

     negative rho (up, down):  1.969E-04 1.980E-04

     total cpu time spent up to now is     2265.6 secs

     total energy              =     -40.39956880 Ry
     estimated scf accuracy    <       0.01352071 Ry

     total magnetization       =    -0.14 Bohr mag/cell
     absolute magnetization    =     0.31 Bohr mag/cell

     iteration # 96     ecut=    60.00 Ry     beta= 0.70
     CG style diagonalization
     c_bands:  1 eigenvalues not converged
     c_bands:  1 eigenvalues not converged
     ethr =  4.22E-07,  avg # of iterations =  8.7

     negative rho (up, down):  1.946E-04 1.983E-04

     total cpu time spent up to now is     2298.7 secs

     total energy              =     -40.39947364 Ry
     estimated scf accuracy    <       0.01674214 Ry

     total magnetization       =     0.08 Bohr mag/cell
     absolute magnetization    =     0.34 Bohr mag/cell

     iteration # 97     ecut=    60.00 Ry     beta= 0.70
     CG style diagonalization
     c_bands:  1 eigenvalues not converged
     ethr =  4.22E-07,  avg # of iterations =  6.5

     negative rho (up, down):  1.881E-04 1.874E-04

     total cpu time spent up to now is     2327.0 secs

     total energy              =     -40.39972403 Ry
     estimated scf accuracy    <       0.00468802 Ry

     total magnetization       =    -0.03 Bohr mag/cell
     absolute magnetization    =     0.25 Bohr mag/cell

     iteration # 98     ecut=    60.00 Ry     beta= 0.70
     CG style diagonalization
     ethr =  4.22E-07,  avg # of iterations =  4.0

     negative rho (up, down):  8.708E-04 1.951E-04

     total cpu time spent up to now is     2349.1 secs

     total energy              =     -40.40075029 Ry
     estimated scf accuracy    <       0.00573552 Ry

     total magnetization       =    -0.03 Bohr mag/cell
     absolute magnetization    =     0.27 Bohr mag/cell

     iteration # 99     ecut=    60.00 Ry     beta= 0.70
     CG style diagonalization
     c_bands:  2 eigenvalues not converged
     c_bands:  1 eigenvalues not converged
     c_bands:  2 eigenvalues not converged
     ethr =  4.22E-07,  avg # of iterations =  8.4

     negative rho (up, down):  2.594E-04 2.459E-04

     total cpu time spent up to now is     2381.6 secs

     total energy              =     -40.39888849 Ry
     estimated scf accuracy    <       0.11710588 Ry

     total magnetization       =    -0.19 Bohr mag/cell
     absolute magnetization    =     0.61 Bohr mag/cell

     iteration #100     ecut=    60.00 Ry     beta= 0.70
     CG style diagonalization
     c_bands:  1 eigenvalues not converged
     c_bands:  1 eigenvalues not converged
     ethr =  4.22E-07,  avg # of iterations =  7.9

     negative rho (up, down):  2.131E-04 2.029E-04

     total cpu time spent up to now is     2412.9 secs

     total energy              =     -40.39972115 Ry
     estimated scf accuracy    <       0.01325601 Ry

     total magnetization       =    -0.04 Bohr mag/cell
     absolute magnetization    =     0.32 Bohr mag/cell

     iteration #101     ecut=    60.00 Ry     beta= 0.70
     CG style diagonalization
     ethr =  4.22E-07,  avg # of iterations =  5.2

     negative rho (up, down):  2.095E-04 1.887E-04

     total cpu time spent up to now is     2438.1 secs

     total energy              =     -40.40016221 Ry
     estimated scf accuracy    <       0.00615918 Ry

     total magnetization       =    -0.08 Bohr mag/cell
     absolute magnetization    =     0.26 Bohr mag/cell

     iteration #102     ecut=    60.00 Ry     beta= 0.70
     CG style diagonalization
     ethr =  4.22E-07,  avg # of iterations =  5.4

     negative rho (up, down):  2.039E-04 1.964E-04

     total cpu time spent up to now is     2463.6 secs

     total energy              =     -40.39962321 Ry
     estimated scf accuracy    <       0.02309972 Ry

     total magnetization       =    -0.23 Bohr mag/cell
     absolute magnetization    =     0.35 Bohr mag/cell

     iteration #103     ecut=    60.00 Ry     beta= 0.70
     CG style diagonalization
     ethr =  4.22E-07,  avg # of iterations =  6.2

     negative rho (up, down):  1.945E-04 1.861E-04

     total cpu time spent up to now is     2491.1 secs

     total energy              =     -40.39981619 Ry
     estimated scf accuracy    <       0.00651826 Ry

     total magnetization       =    -0.16 Bohr mag/cell
     absolute magnetization    =     0.26 Bohr mag/cell

     iteration #104     ecut=    60.00 Ry     beta= 0.70
     CG style diagonalization
     ethr =  4.22E-07,  avg # of iterations =  5.7

     negative rho (up, down):  1.921E-04 1.830E-04

     total cpu time spent up to now is     2517.3 secs

     total energy              =     -40.39984655 Ry
     estimated scf accuracy    <       0.00593391 Ry

     total magnetization       =    -0.17 Bohr mag/cell
     absolute magnetization    =     0.26 Bohr mag/cell

     iteration #105     ecut=    60.00 Ry     beta= 0.70
     CG style diagonalization
     ethr =  4.22E-07,  avg # of iterations =  3.2

     negative rho (up, down):  2.486E-04 1.817E-04

     total cpu time spent up to now is     2537.6 secs

     total energy              =     -40.39985767 Ry
     estimated scf accuracy    <       0.00612264 Ry

     total magnetization       =    -0.17 Bohr mag/cell
     absolute magnetization    =     0.27 Bohr mag/cell

     iteration #106     ecut=    60.00 Ry     beta= 0.70
     CG style diagonalization
     ethr =  4.22E-07,  avg # of iterations =  5.8

     negative rho (up, down):  1.917E-04 1.835E-04

     total cpu time spent up to now is     2564.1 secs

     total energy              =     -40.39971823 Ry
     estimated scf accuracy    <       0.00735655 Ry

     total magnetization       =    -0.15 Bohr mag/cell
     absolute magnetization    =     0.27 Bohr mag/cell

     iteration #107     ecut=    60.00 Ry     beta= 0.70
     CG style diagonalization
     ethr =  4.22E-07,  avg # of iterations =  5.1

     negative rho (up, down):  1.896E-04 1.814E-04

     total cpu time spent up to now is     2588.9 secs

     total energy              =     -40.39979365 Ry
     estimated scf accuracy    <       0.00394465 Ry

     total magnetization       =    -0.10 Bohr mag/cell
     absolute magnetization    =     0.24 Bohr mag/cell

     iteration #108     ecut=    60.00 Ry     beta= 0.70
     CG style diagonalization
     ethr =  4.22E-07,  avg # of iterations =  4.3

     negative rho (up, down):  1.899E-04 1.825E-04

     total cpu time spent up to now is     2611.7 secs

     total energy              =     -40.39981287 Ry
     estimated scf accuracy    <       0.00547846 Ry

     total magnetization       =    -0.14 Bohr mag/cell
     absolute magnetization    =     0.26 Bohr mag/cell

     iteration #109     ecut=    60.00 Ry     beta= 0.70
     CG style diagonalization
     ethr =  4.22E-07,  avg # of iterations =  3.7

     negative rho (up, down):  1.913E-04 1.823E-04

     total cpu time spent up to now is     2633.2 secs

     total energy              =     -40.39985583 Ry
     estimated scf accuracy    <       0.00534638 Ry

     total magnetization       =    -0.14 Bohr mag/cell
     absolute magnetization    =     0.26 Bohr mag/cell

     iteration #110     ecut=    60.00 Ry     beta= 0.70
     CG style diagonalization
     ethr =  4.22E-07,  avg # of iterations =  3.3

     negative rho (up, down):  2.232E-04 1.831E-04

     total cpu time spent up to now is     2653.6 secs

     total energy              =     -40.39992714 Ry
     estimated scf accuracy    <       0.00619025 Ry

     total magnetization       =    -0.15 Bohr mag/cell
     absolute magnetization    =     0.26 Bohr mag/cell

     iteration #111     ecut=    60.00 Ry     beta= 0.70
     CG style diagonalization
     ethr =  4.22E-07,  avg # of iterations =  4.2

     negative rho (up, down):  1.971E-04 1.849E-04

     total cpu time spent up to now is     2676.4 secs

     total energy              =     -40.39983666 Ry
     estimated scf accuracy    <       0.00825403 Ry

     total magnetization       =    -0.17 Bohr mag/cell
     absolute magnetization    =     0.28 Bohr mag/cell

     iteration #112     ecut=    60.00 Ry     beta= 0.70
     CG style diagonalization
     ethr =  4.22E-07,  avg # of iterations =  3.7

     negative rho (up, down):  2.298E-04 1.847E-04

     total cpu time spent up to now is     2697.9 secs

     total energy              =     -40.39985958 Ry
     estimated scf accuracy    <       0.00613650 Ry

     total magnetization       =    -0.14 Bohr mag/cell
     absolute magnetization    =     0.27 Bohr mag/cell

     iteration #113     ecut=    60.00 Ry     beta= 0.70
     CG style diagonalization
     ethr =  4.22E-07,  avg # of iterations =  4.7

     negative rho (up, down):  2.506E-04 2.184E-03

     total cpu time spent up to now is     2721.6 secs

     total energy              =     -40.39943815 Ry
     estimated scf accuracy    <       0.00689673 Ry

     total magnetization       =    -0.15 Bohr mag/cell
     absolute magnetization    =     0.27 Bohr mag/cell

     iteration #114     ecut=    60.00 Ry     beta= 0.70
     CG style diagonalization
     c_bands:  1 eigenvalues not converged
     ethr =  4.22E-07,  avg # of iterations =  8.7

     negative rho (up, down):  2.806E-03 6.920E-03

     total cpu time spent up to now is     2754.3 secs

     total energy              =     -40.39637740 Ry
     estimated scf accuracy    <       0.02666058 Ry

     total magnetization       =     0.08 Bohr mag/cell
     absolute magnetization    =     0.38 Bohr mag/cell

     iteration #115     ecut=    60.00 Ry     beta= 0.70
     CG style diagonalization
     c_bands:  3 eigenvalues not converged
     c_bands:  3 eigenvalues not converged
     c_bands:  2 eigenvalues not converged
     ethr =  4.22E-07,  avg # of iterations = 10.3

     negative rho (up, down):  2.305E-04 4.068E-03

     total cpu time spent up to now is     2790.7 secs

     total energy              =     -40.39947091 Ry
     estimated scf accuracy    <       0.05838917 Ry

     total magnetization       =     0.19 Bohr mag/cell
     absolute magnetization    =     0.47 Bohr mag/cell

     iteration #116     ecut=    60.00 Ry     beta= 0.70
     CG style diagonalization
     ethr =  4.22E-07,  avg # of iterations =  7.6

     negative rho (up, down):  2.198E-04 1.405E-03

     total cpu time spent up to now is     2821.3 secs

     total energy              =     -40.39953039 Ry
     estimated scf accuracy    <       0.02578062 Ry

     total magnetization       =     0.11 Bohr mag/cell
     absolute magnetization    =     0.37 Bohr mag/cell

     iteration #117     ecut=    60.00 Ry     beta= 0.70
     CG style diagonalization
     ethr =  4.22E-07,  avg # of iterations =  8.0

     negative rho (up, down):  1.916E-04 2.039E-04

     total cpu time spent up to now is     2852.7 secs

     total energy              =     -40.39958749 Ry
     estimated scf accuracy    <       0.01004869 Ry

     total magnetization       =     0.17 Bohr mag/cell
     absolute magnetization    =     0.35 Bohr mag/cell

     iteration #118     ecut=    60.00 Ry     beta= 0.70
     CG style diagonalization
     ethr =  4.22E-07,  avg # of iterations =  7.5

     negative rho (up, down):  3.577E-04 3.025E-04

     total cpu time spent up to now is     2883.0 secs

     total energy              =     -40.39843709 Ry
     estimated scf accuracy    <       0.00931771 Ry

     total magnetization       =     0.06 Bohr mag/cell
     absolute magnetization    =     0.33 Bohr mag/cell

     iteration #119     ecut=    60.00 Ry     beta= 0.70
     CG style diagonalization
     c_bands:  2 eigenvalues not converged
     c_bands:  1 eigenvalues not converged
     c_bands:  1 eigenvalues not converged
     ethr =  4.22E-07,  avg # of iterations =  9.4

     negative rho (up, down):  2.579E-03 5.155E-04

     total cpu time spent up to now is     2917.4 secs

     total energy              =     -40.39940191 Ry
     estimated scf accuracy    <       0.00323595 Ry

     total magnetization       =     0.17 Bohr mag/cell
     absolute magnetization    =     0.29 Bohr mag/cell

     iteration #120     ecut=    60.00 Ry     beta= 0.70
     CG style diagonalization
     c_bands:  1 eigenvalues not converged
     ethr =  4.22E-07,  avg # of iterations =  7.9

     negative rho (up, down):  5.093E-04 1.930E-04

     total cpu time spent up to now is     2948.6 secs

     total energy              =     -40.39953918 Ry
     estimated scf accuracy    <       0.00788279 Ry

     total magnetization       =     0.10 Bohr mag/cell
     absolute magnetization    =     0.32 Bohr mag/cell

     iteration #121     ecut=    60.00 Ry     beta= 0.70
     CG style diagonalization
     ethr =  4.22E-07,  avg # of iterations =  7.5

     negative rho (up, down):  1.931E-04 1.938E-04

     total cpu time spent up to now is     2979.0 secs

     total energy              =     -40.39968281 Ry
     estimated scf accuracy    <       0.00858081 Ry

     total magnetization       =     0.02 Bohr mag/cell
     absolute magnetization    =     0.32 Bohr mag/cell

     iteration #122     ecut=    60.00 Ry     beta= 0.70
     CG style diagonalization
     ethr =  4.22E-07,  avg # of iterations =  6.2

     negative rho (up, down):  3.450E-03 3.063E-04

     total cpu time spent up to now is     3006.2 secs

     total energy              =     -40.39954763 Ry
     estimated scf accuracy    <       0.00717172 Ry

     total magnetization       =     0.01 Bohr mag/cell
     absolute magnetization    =     0.31 Bohr mag/cell

     iteration #123     ecut=    60.00 Ry     beta= 0.70
     CG style diagonalization
     c_bands:  1 eigenvalues not converged
     c_bands:  1 eigenvalues not converged
     ethr =  4.22E-07,  avg # of iterations =  7.9

     negative rho (up, down):  1.921E-04 1.958E-04

     total cpu time spent up to now is     3037.5 secs

     total energy              =     -40.39764281 Ry
     estimated scf accuracy    <       0.00938636 Ry

     total magnetization       =     0.02 Bohr mag/cell
     absolute magnetization    =     0.35 Bohr mag/cell

     iteration #124     ecut=    60.00 Ry     beta= 0.70
     CG style diagonalization
     c_bands:  3 eigenvalues not converged
     c_bands:  2 eigenvalues not converged
     c_bands:  2 eigenvalues not converged
     ethr =  4.22E-07,  avg # of iterations = 10.4

     negative rho (up, down):  5.580E-04 7.108E-03

     total cpu time spent up to now is     3074.1 secs

     total energy              =     -40.39650906 Ry
     estimated scf accuracy    <       0.01071248 Ry

     total magnetization       =    -0.07 Bohr mag/cell
     absolute magnetization    =     0.40 Bohr mag/cell

     iteration #125     ecut=    60.00 Ry     beta= 0.70
     CG style diagonalization
     c_bands:  2 eigenvalues not converged
     c_bands:  2 eigenvalues not converged
     c_bands:  3 eigenvalues not converged
     ethr =  4.22E-07,  avg # of iterations = 11.0

     negative rho (up, down):  2.904E-03 6.542E-03

     total cpu time spent up to now is     3111.7 secs

     total energy              =     -40.39947431 Ry
     estimated scf accuracy    <       0.03362212 Ry

     total magnetization       =     0.13 Bohr mag/cell
     absolute magnetization    =     0.44 Bohr mag/cell

     iteration #126     ecut=    60.00 Ry     beta= 0.70
     CG style diagonalization
     ethr =  4.22E-07,  avg # of iterations =  7.9

     negative rho (up, down):  9.409E-04 2.208E-03

     total cpu time spent up to now is     3142.9 secs

     total energy              =     -40.39903315 Ry
     estimated scf accuracy    <       0.02122357 Ry

     total magnetization       =     0.20 Bohr mag/cell
     absolute magnetization    =     0.42 Bohr mag/cell

     iteration #127     ecut=    60.00 Ry     beta= 0.70
     CG style diagonalization
     ethr =  4.22E-07,  avg # of iterations =  7.3

     negative rho (up, down):  2.100E-03 1.782E-03

     total cpu time spent up to now is     3172.4 secs

     total energy              =     -40.39926552 Ry
     estimated scf accuracy    <       0.00354753 Ry

     total magnetization       =     0.10 Bohr mag/cell
     absolute magnetization    =     0.29 Bohr mag/cell

     iteration #128     ecut=    60.00 Ry     beta= 0.70
     CG style diagonalization
     ethr =  4.22E-07,  avg # of iterations =  8.0

     negative rho (up, down):  7.206E-04 9.079E-04

     total cpu time spent up to now is     3203.5 secs

     total energy              =     -40.39899428 Ry
     estimated scf accuracy    <       0.00399810 Ry

     total magnetization       =     0.12 Bohr mag/cell
     absolute magnetization    =     0.27 Bohr mag/cell

     iteration #129     ecut=    60.00 Ry     beta= 0.70
     CG style diagonalization
     c_bands:  1 eigenvalues not converged
     ethr =  4.22E-07,  avg # of iterations =  8.0

     negative rho (up, down):  6.882E-04 1.699E-03

     total cpu time spent up to now is     3234.8 secs

     total energy              =     -40.39933597 Ry
     estimated scf accuracy    <       0.00099624 Ry

     total magnetization       =    -0.04 Bohr mag/cell
     absolute magnetization    =     0.23 Bohr mag/cell

     iteration #130     ecut=    60.00 Ry     beta= 0.70
     CG style diagonalization
     ethr =  4.22E-07,  avg # of iterations =  4.9

     negative rho (up, down):  4.116E-04 1.576E-03

     total cpu time spent up to now is     3259.2 secs

     total energy              =     -40.39935173 Ry
     estimated scf accuracy    <       0.00135844 Ry

     total magnetization       =    -0.04 Bohr mag/cell
     absolute magnetization    =     0.23 Bohr mag/cell

     iteration #131     ecut=    60.00 Ry     beta= 0.70
     CG style diagonalization
     ethr =  4.22E-07,  avg # of iterations =  4.3

     negative rho (up, down):  3.458E-04 4.238E-04

     total cpu time spent up to now is     3282.0 secs

     total energy              =     -40.39938215 Ry
     estimated scf accuracy    <       0.00166559 Ry

     total magnetization       =    -0.02 Bohr mag/cell
     absolute magnetization    =     0.26 Bohr mag/cell

     iteration #132     ecut=    60.00 Ry     beta= 0.70
     CG style diagonalization
     ethr =  4.22E-07,  avg # of iterations =  5.5

     negative rho (up, down):  3.269E-04 7.805E-04

     total cpu time spent up to now is     3307.5 secs

     total energy              =     -40.39933551 Ry
     estimated scf accuracy    <       0.00166464 Ry

     total magnetization       =    -0.04 Bohr mag/cell
     absolute magnetization    =     0.21 Bohr mag/cell

     iteration #133     ecut=    60.00 Ry     beta= 0.70
     CG style diagonalization
     ethr =  4.22E-07,  avg # of iterations =  4.5

     negative rho (up, down):  3.852E-04 7.258E-04

     total cpu time spent up to now is     3330.9 secs

     total energy              =     -40.39935347 Ry
     estimated scf accuracy    <       0.00075123 Ry

     total magnetization       =    -0.03 Bohr mag/cell
     absolute magnetization    =     0.19 Bohr mag/cell

     iteration #134     ecut=    60.00 Ry     beta= 0.70
     CG style diagonalization
     ethr =  4.22E-07,  avg # of iterations =  4.8

     negative rho (up, down):  2.200E-04 4.070E-04

     total cpu time spent up to now is     3354.8 secs

     total energy              =     -40.39943395 Ry
     estimated scf accuracy    <       0.00064983 Ry

     total magnetization       =    -0.06 Bohr mag/cell
     absolute magnetization    =     0.19 Bohr mag/cell

     iteration #135     ecut=    60.00 Ry     beta= 0.70
     CG style diagonalization
     ethr =  4.22E-07,  avg # of iterations =  4.8

     negative rho (up, down):  4.497E-04 1.810E-04

     total cpu time spent up to now is     3378.7 secs

     total energy              =     -40.39945750 Ry
     estimated scf accuracy    <       0.00184083 Ry

     total magnetization       =    -0.07 Bohr mag/cell
     absolute magnetization    =     0.21 Bohr mag/cell

     iteration #136     ecut=    60.00 Ry     beta= 0.70
     CG style diagonalization
     ethr =  4.22E-07,  avg # of iterations =  5.6

     negative rho (up, down):  3.842E-04 1.805E-04

     total cpu time spent up to now is     3404.7 secs

     total energy              =     -40.39950908 Ry
     estimated scf accuracy    <       0.00161404 Ry

     total magnetization       =    -0.09 Bohr mag/cell
     absolute magnetization    =     0.21 Bohr mag/cell

     iteration #137     ecut=    60.00 Ry     beta= 0.70
     CG style diagonalization
     ethr =  4.22E-07,  avg # of iterations =  4.8

     negative rho (up, down):  2.595E-04 1.801E-04

     total cpu time spent up to now is     3428.9 secs

     total energy              =     -40.39955953 Ry
     estimated scf accuracy    <       0.00140521 Ry

     total magnetization       =    -0.08 Bohr mag/cell
     absolute magnetization    =     0.21 Bohr mag/cell

     iteration #138     ecut=    60.00 Ry     beta= 0.70
     CG style diagonalization
     ethr =  4.22E-07,  avg # of iterations =  5.1

     negative rho (up, down):  2.106E-04 1.800E-04

     total cpu time spent up to now is     3453.4 secs

     total energy              =     -40.39962610 Ry
     estimated scf accuracy    <       0.00162069 Ry

     total magnetization       =    -0.04 Bohr mag/cell
     absolute magnetization    =     0.21 Bohr mag/cell

     iteration #139     ecut=    60.00 Ry     beta= 0.70
     CG style diagonalization
     ethr =  4.22E-07,  avg # of iterations =  4.6

     negative rho (up, down):  1.953E-04 1.786E-04

     total cpu time spent up to now is     3476.9 secs

     total energy              =     -40.39948596 Ry
     estimated scf accuracy    <       0.00164965 Ry

     total magnetization       =    -0.02 Bohr mag/cell
     absolute magnetization    =     0.21 Bohr mag/cell

     iteration #140     ecut=    60.00 Ry     beta= 0.70
     CG style diagonalization
     ethr =  4.22E-07,  avg # of iterations =  5.6

     negative rho (up, down):  1.930E-04 1.771E-04

     total cpu time spent up to now is     3503.0 secs

     total energy              =     -40.39955024 Ry
     estimated scf accuracy    <       0.00030397 Ry

     total magnetization       =    -0.01 Bohr mag/cell
     absolute magnetization    =     0.18 Bohr mag/cell

     iteration #141     ecut=    60.00 Ry     beta= 0.70
     CG style diagonalization
     ethr =  4.22E-07,  avg # of iterations =  5.2

     negative rho (up, down):  1.935E-04 1.769E-04

     total cpu time spent up to now is     3528.0 secs

     total energy              =     -40.39945650 Ry
     estimated scf accuracy    <       0.00031105 Ry

     total magnetization       =    -0.01 Bohr mag/cell
     absolute magnetization    =     0.18 Bohr mag/cell

     iteration #142     ecut=    60.00 Ry     beta= 0.70
     CG style diagonalization
     ethr =  4.22E-07,  avg # of iterations =  6.9

     negative rho (up, down):  1.927E-04 1.771E-04

     total cpu time spent up to now is     3556.8 secs

     total energy              =     -40.39956322 Ry
     estimated scf accuracy    <       0.00031336 Ry

     total magnetization       =    -0.02 Bohr mag/cell
     absolute magnetization    =     0.18 Bohr mag/cell

     iteration #143     ecut=    60.00 Ry     beta= 0.70
     CG style diagonalization
     ethr =  4.22E-07,  avg # of iterations =  4.9

     negative rho (up, down):  1.986E-04 1.775E-04

     total cpu time spent up to now is     3581.0 secs

     total energy              =     -40.39936622 Ry
     estimated scf accuracy    <       0.00117416 Ry

     total magnetization       =    -0.06 Bohr mag/cell
     absolute magnetization    =     0.22 Bohr mag/cell

     iteration #144     ecut=    60.00 Ry     beta= 0.70
     CG style diagonalization
     ethr =  4.22E-07,  avg # of iterations =  6.5

     negative rho (up, down):  1.939E-04 1.771E-04

     total cpu time spent up to now is     3609.1 secs

     total energy              =     -40.39946340 Ry
     estimated scf accuracy    <       0.00044403 Ry

     total magnetization       =     0.00 Bohr mag/cell
     absolute magnetization    =     0.19 Bohr mag/cell

     iteration #145     ecut=    60.00 Ry     beta= 0.70
     CG style diagonalization
     ethr =  4.22E-07,  avg # of iterations =  5.8

     negative rho (up, down):  1.962E-04 1.772E-04

     total cpu time spent up to now is     3635.4 secs

     total energy              =     -40.39955443 Ry
     estimated scf accuracy    <       0.00053742 Ry

     total magnetization       =    -0.02 Bohr mag/cell
     absolute magnetization    =     0.19 Bohr mag/cell

     iteration #146     ecut=    60.00 Ry     beta= 0.70
     CG style diagonalization
     ethr =  4.22E-07,  avg # of iterations =  5.6

     negative rho (up, down):  1.944E-04 1.782E-04

     total cpu time spent up to now is     3661.5 secs

     total energy              =     -40.39961433 Ry
     estimated scf accuracy    <       0.00106789 Ry

     total magnetization       =    -0.04 Bohr mag/cell
     absolute magnetization    =     0.20 Bohr mag/cell

     iteration #147     ecut=    60.00 Ry     beta= 0.70
     CG style diagonalization
     ethr =  4.22E-07,  avg # of iterations =  5.3

     negative rho (up, down):  1.934E-04 1.794E-04

     total cpu time spent up to now is     3686.9 secs

     total energy              =     -40.39968218 Ry
     estimated scf accuracy    <       0.00153200 Ry

     total magnetization       =    -0.01 Bohr mag/cell
     absolute magnetization    =     0.21 Bohr mag/cell

     iteration #148     ecut=    60.00 Ry     beta= 0.70
     CG style diagonalization
     ethr =  4.22E-07,  avg # of iterations =  4.7

     negative rho (up, down):  1.926E-04 1.788E-04

     total cpu time spent up to now is     3710.8 secs

     total energy              =     -40.39962747 Ry
     estimated scf accuracy    <       0.00147252 Ry

     total magnetization       =     0.02 Bohr mag/cell
     absolute magnetization    =     0.21 Bohr mag/cell

     iteration #149     ecut=    60.00 Ry     beta= 0.70
     CG style diagonalization
     ethr =  4.22E-07,  avg # of iterations =  4.8

     negative rho (up, down):  1.930E-04 1.792E-04

     total cpu time spent up to now is     3734.8 secs

     total energy              =     -40.39966878 Ry
     estimated scf accuracy    <       0.00121947 Ry

     total magnetization       =     0.02 Bohr mag/cell
     absolute magnetization    =     0.21 Bohr mag/cell

     iteration #150     ecut=    60.00 Ry     beta= 0.70
     CG style diagonalization
     ethr =  4.22E-07,  avg # of iterations =  4.2

     negative rho (up, down):  1.924E-04 1.798E-04

     total cpu time spent up to now is     3757.5 secs

     total energy              =     -40.39962895 Ry
     estimated scf accuracy    <       0.00158245 Ry

     total magnetization       =     0.01 Bohr mag/cell
     absolute magnetization    =     0.22 Bohr mag/cell

     iteration #151     ecut=    60.00 Ry     beta= 0.70
     CG style diagonalization
     ethr =  4.22E-07,  avg # of iterations =  5.0

     negative rho (up, down):  1.939E-04 1.799E-04

     total cpu time spent up to now is     3782.2 secs

     total energy              =     -40.39954679 Ry
     estimated scf accuracy    <       0.00257794 Ry

     total magnetization       =    -0.02 Bohr mag/cell
     absolute magnetization    =     0.22 Bohr mag/cell

     iteration #152     ecut=    60.00 Ry     beta= 0.70
     CG style diagonalization
     ethr =  4.22E-07,  avg # of iterations =  4.7

     negative rho (up, down):  1.933E-04 1.795E-04

     total cpu time spent up to now is     3806.1 secs

     total energy              =     -40.39960835 Ry
     estimated scf accuracy    <       0.00147868 Ry

     total magnetization       =    -0.02 Bohr mag/cell
     absolute magnetization    =     0.21 Bohr mag/cell

     iteration #153     ecut=    60.00 Ry     beta= 0.70
     CG style diagonalization
     ethr =  4.22E-07,  avg # of iterations =  4.7

     negative rho (up, down):  1.930E-04 1.790E-04

     total cpu time spent up to now is     3830.0 secs

     total energy              =     -40.39963459 Ry
     estimated scf accuracy    <       0.00139897 Ry

     total magnetization       =    -0.00 Bohr mag/cell
     absolute magnetization    =     0.21 Bohr mag/cell

     iteration #154     ecut=    60.00 Ry     beta= 0.70
     CG style diagonalization
[...]
     CG style diagonalization
     c_bands:  1 eigenvalues not converged
     c_bands:  1 eigenvalues not converged
     ethr =  5.68E-10,  avg # of iterations =  5.3

     negative rho (up, down):  1.914E-04 1.837E-04

     total cpu time spent up to now is    24152.8 secs

     total energy              =     -40.39980311 Ry
     estimated scf accuracy    <       0.00000064 Ry

     total magnetization       =     0.01 Bohr mag/cell
     absolute magnetization    =     0.16 Bohr mag/cell

     iteration #969     ecut=    60.00 Ry     beta= 0.70
     CG style diagonalization
     ethr =  5.68E-10,  avg # of iterations =  4.5

     negative rho (up, down):  1.913E-04 1.838E-04

     total cpu time spent up to now is    24175.9 secs

     total energy              =     -40.39980395 Ry
     estimated scf accuracy    <       0.00000067 Ry

     total magnetization       =     0.01 Bohr mag/cell
     absolute magnetization    =     0.16 Bohr mag/cell

     iteration #970     ecut=    60.00 Ry     beta= 0.70
     CG style diagonalization
     c_bands:  1 eigenvalues not converged
     c_bands:  1 eigenvalues not converged
     ethr =  5.68E-10,  avg # of iterations =  6.2

     negative rho (up, down):  1.912E-04 1.838E-04

     total cpu time spent up to now is    24202.8 secs

     total energy              =     -40.39980134 Ry
     estimated scf accuracy    <       0.00000110 Ry

     total magnetization       =     0.00 Bohr mag/cell
     absolute magnetization    =     0.16 Bohr mag/cell

     iteration #971     ecut=    60.00 Ry     beta= 0.70
     CG style diagonalization
     c_bands:  1 eigenvalues not converged
     ethr =  5.68E-10,  avg # of iterations =  4.8

     negative rho (up, down):  1.915E-04 1.840E-04

     total cpu time spent up to now is    24226.7 secs

     total energy              =     -40.39978625 Ry
     estimated scf accuracy    <       0.00000022 Ry

     total magnetization       =     0.00 Bohr mag/cell
     absolute magnetization    =     0.16 Bohr mag/cell

     iteration #972     ecut=    60.00 Ry     beta= 0.70
     CG style diagonalization
     c_bands:  1 eigenvalues not converged
     c_bands:  1 eigenvalues not converged
     c_bands:  1 eigenvalues not converged
     ethr =  5.68E-10,  avg # of iterations =  5.4

     negative rho (up, down):  1.913E-04 1.838E-04

     total cpu time spent up to now is    24251.7 secs

     total energy              =     -40.39979659 Ry
     estimated scf accuracy    <       0.00000390 Ry

     total magnetization       =     0.01 Bohr mag/cell
     absolute magnetization    =     0.16 Bohr mag/cell

     iteration #973     ecut=    60.00 Ry     beta= 0.70
     CG style diagonalization
     ethr =  5.68E-10,  avg # of iterations =  5.3

     negative rho (up, down):  1.912E-04 1.838E-04

     total cpu time spent up to now is    24276.4 secs

     total energy              =     -40.39979671 Ry
     estimated scf accuracy    <       0.00000149 Ry

     total magnetization       =     0.01 Bohr mag/cell
     absolute magnetization    =     0.16 Bohr mag/cell

     iteration #974     ecut=    60.00 Ry     beta= 0.70
     CG style diagonalization
     ethr =  5.68E-10,  avg # of iterations =  4.9

     negative rho (up, down):  1.912E-04 1.838E-04

     total cpu time spent up to now is    24300.3 secs

     total energy              =     -40.39980396 Ry
     estimated scf accuracy    <       0.00000005 Ry

     total magnetization       =     0.00 Bohr mag/cell
     absolute magnetization    =     0.16 Bohr mag/cell

     iteration #975     ecut=    60.00 Ry     beta= 0.70
     CG style diagonalization
     ethr =  4.58E-10,  avg # of iterations =  4.8

     negative rho (up, down):  1.912E-04 1.839E-04

     total cpu time spent up to now is    24324.1 secs

     total energy              =     -40.39980712 Ry
     estimated scf accuracy    <       0.00000073 Ry

     total magnetization       =     0.01 Bohr mag/cell
     absolute magnetization    =     0.16 Bohr mag/cell

     iteration #976     ecut=    60.00 Ry     beta= 0.70
     CG style diagonalization
     ethr =  4.58E-10,  avg # of iterations =  4.7

     negative rho (up, down):  1.922E-04 1.837E-04

     total cpu time spent up to now is    24347.6 secs

     total energy              =     -40.39966645 Ry
     estimated scf accuracy    <       0.00000019 Ry

     total magnetization       =     0.01 Bohr mag/cell
     absolute magnetization    =     0.16 Bohr mag/cell

     iteration #977     ecut=    60.00 Ry     beta= 0.70
     CG style diagonalization
     c_bands:  1 eigenvalues not converged
     c_bands:  1 eigenvalues not converged
     c_bands:  1 eigenvalues not converged
     ethr =  4.58E-10,  avg # of iterations =  5.6

     negative rho (up, down):  1.919E-04 1.837E-04

     total cpu time spent up to now is    24373.0 secs

     total energy              =     -40.39980275 Ry
     estimated scf accuracy    <       0.00001191 Ry

     total magnetization       =     0.01 Bohr mag/cell
     absolute magnetization    =     0.16 Bohr mag/cell

     iteration #978     ecut=    60.00 Ry     beta= 0.70
     CG style diagonalization
     c_bands:  1 eigenvalues not converged
     c_bands:  1 eigenvalues not converged
     ethr =  4.58E-10,  avg # of iterations =  5.4

     negative rho (up, down):  1.918E-04 1.837E-04

     total cpu time spent up to now is    24398.2 secs

     total energy              =     -40.39980370 Ry
     estimated scf accuracy    <       0.00000685 Ry

     total magnetization       =     0.01 Bohr mag/cell
     absolute magnetization    =     0.16 Bohr mag/cell

     iteration #979     ecut=    60.00 Ry     beta= 0.70
     CG style diagonalization
     c_bands:  1 eigenvalues not converged
     ethr =  4.58E-10,  avg # of iterations =  4.9

     negative rho (up, down):  1.942E-04 1.837E-04

     total cpu time spent up to now is    24422.3 secs

     total energy              =     -40.39974125 Ry
     estimated scf accuracy    <       0.00000612 Ry

     total magnetization       =     0.01 Bohr mag/cell
     absolute magnetization    =     0.16 Bohr mag/cell

     iteration #980     ecut=    60.00 Ry     beta= 0.70
     CG style diagonalization
     c_bands:  1 eigenvalues not converged
     c_bands:  1 eigenvalues not converged
     c_bands:  1 eigenvalues not converged
     ethr =  4.58E-10,  avg # of iterations =  5.9

     negative rho (up, down):  1.912E-04 1.837E-04

     total cpu time spent up to now is    24448.6 secs

     total energy              =     -40.39958627 Ry
     estimated scf accuracy    <       0.00011049 Ry

     total magnetization       =     0.01 Bohr mag/cell
     absolute magnetization    =     0.17 Bohr mag/cell

     iteration #981     ecut=    60.00 Ry     beta= 0.70
     CG style diagonalization
     c_bands:  1 eigenvalues not converged
     c_bands:  1 eigenvalues not converged
     c_bands:  1 eigenvalues not converged
     ethr =  4.58E-10,  avg # of iterations =  6.1

     negative rho (up, down):  1.913E-04 1.837E-04

     total cpu time spent up to now is    24475.4 secs

     total energy              =     -40.39980615 Ry
     estimated scf accuracy    <       0.00000042 Ry

     total magnetization       =     0.01 Bohr mag/cell
     absolute magnetization    =     0.16 Bohr mag/cell

     iteration #982     ecut=    60.00 Ry     beta= 0.70
     CG style diagonalization
     ethr =  4.58E-10,  avg # of iterations =  5.4

     negative rho (up, down):  1.912E-04 1.837E-04

     total cpu time spent up to now is    24500.7 secs

     total energy              =     -40.39980466 Ry
     estimated scf accuracy    <       0.00000092 Ry

     total magnetization       =     0.01 Bohr mag/cell
     absolute magnetization    =     0.16 Bohr mag/cell

     iteration #983     ecut=    60.00 Ry     beta= 0.70
     CG style diagonalization
     ethr =  4.58E-10,  avg # of iterations =  4.6

     negative rho (up, down):  1.913E-04 1.836E-04

     total cpu time spent up to now is    24524.2 secs

     total energy              =     -40.39980041 Ry
     estimated scf accuracy    <       0.00000048 Ry

     total magnetization       =     0.01 Bohr mag/cell
     absolute magnetization    =     0.16 Bohr mag/cell

     iteration #984     ecut=    60.00 Ry     beta= 0.70
     CG style diagonalization
     c_bands:  1 eigenvalues not converged
     ethr =  4.58E-10,  avg # of iterations =  5.1

     negative rho (up, down):  1.926E-04 1.837E-04

     total cpu time spent up to now is    24548.5 secs

     total energy              =     -40.39970308 Ry
     estimated scf accuracy    <       0.00000102 Ry

     total magnetization       =     0.01 Bohr mag/cell
     absolute magnetization    =     0.16 Bohr mag/cell

     iteration #985     ecut=    60.00 Ry     beta= 0.70
     CG style diagonalization
     c_bands:  1 eigenvalues not converged
     c_bands:  1 eigenvalues not converged
     c_bands:  1 eigenvalues not converged
     ethr =  4.58E-10,  avg # of iterations =  6.1

     negative rho (up, down):  1.918E-04 1.837E-04

     total cpu time spent up to now is    24575.5 secs

     total energy              =     -40.39977297 Ry
     estimated scf accuracy    <       0.00003691 Ry

     total magnetization       =     0.01 Bohr mag/cell
     absolute magnetization    =     0.17 Bohr mag/cell

     iteration #986     ecut=    60.00 Ry     beta= 0.70
     CG style diagonalization
     c_bands:  1 eigenvalues not converged
     c_bands:  1 eigenvalues not converged
     ethr =  4.58E-10,  avg # of iterations =  5.6

     negative rho (up, down):  1.923E-04 1.836E-04

     total cpu time spent up to now is    24601.1 secs

     total energy              =     -40.39980009 Ry
     estimated scf accuracy    <       0.00001079 Ry

     total magnetization       =     0.01 Bohr mag/cell
     absolute magnetization    =     0.16 Bohr mag/cell

     iteration #987     ecut=    60.00 Ry     beta= 0.70
     CG style diagonalization
     c_bands:  1 eigenvalues not converged
     ethr =  4.58E-10,  avg # of iterations =  5.3

     negative rho (up, down):  1.921E-04 1.837E-04

     total cpu time spent up to now is    24625.9 secs

     total energy              =     -40.39981219 Ry
     estimated scf accuracy    <       0.00002388 Ry

     total magnetization       =     0.01 Bohr mag/cell
     absolute magnetization    =     0.17 Bohr mag/cell

     iteration #988     ecut=    60.00 Ry     beta= 0.70
     CG style diagonalization
     ethr =  4.58E-10,  avg # of iterations =  4.5

     negative rho (up, down):  1.922E-04 1.837E-04

     total cpu time spent up to now is    24649.0 secs

     total energy              =     -40.39981292 Ry
     estimated scf accuracy    <       0.00001919 Ry

     total magnetization       =     0.01 Bohr mag/cell
     absolute magnetization    =     0.17 Bohr mag/cell

     iteration #989     ecut=    60.00 Ry     beta= 0.70
     CG style diagonalization
     ethr =  4.58E-10,  avg # of iterations =  3.7

     negative rho (up, down):  1.916E-04 1.837E-04

     total cpu time spent up to now is    24670.2 secs

     total energy              =     -40.39978548 Ry
     estimated scf accuracy    <       0.00002109 Ry

     total magnetization       =     0.01 Bohr mag/cell
     absolute magnetization    =     0.17 Bohr mag/cell

     iteration #990     ecut=    60.00 Ry     beta= 0.70
     CG style diagonalization
     c_bands:  1 eigenvalues not converged
     c_bands:  1 eigenvalues not converged
     ethr =  4.58E-10,  avg # of iterations =  5.2

     negative rho (up, down):  1.914E-04 1.837E-04

     total cpu time spent up to now is    24694.6 secs

     total energy              =     -40.39980032 Ry
     estimated scf accuracy    <       0.00000871 Ry

     total magnetization       =     0.01 Bohr mag/cell
     absolute magnetization    =     0.16 Bohr mag/cell

     iteration #991     ecut=    60.00 Ry     beta= 0.70
     CG style diagonalization
     c_bands:  1 eigenvalues not converged
     c_bands:  1 eigenvalues not converged
     c_bands:  1 eigenvalues not converged
     ethr =  4.58E-10,  avg # of iterations =  5.0

     negative rho (up, down):  1.923E-04 1.844E-04

     total cpu time spent up to now is    24719.0 secs

     total energy              =     -40.39974629 Ry
     estimated scf accuracy    <       0.00000618 Ry

     total magnetization       =     0.01 Bohr mag/cell
     absolute magnetization    =     0.16 Bohr mag/cell

     iteration #992     ecut=    60.00 Ry     beta= 0.70
     CG style diagonalization
     c_bands:  1 eigenvalues not converged
     c_bands:  1 eigenvalues not converged
     ethr =  4.58E-10,  avg # of iterations =  6.1

     negative rho (up, down):  1.924E-04 1.845E-04

     total cpu time spent up to now is    24745.6 secs

     total energy              =     -40.39980620 Ry
     estimated scf accuracy    <       0.00004940 Ry

     total magnetization       =     0.01 Bohr mag/cell
     absolute magnetization    =     0.17 Bohr mag/cell

     iteration #993     ecut=    60.00 Ry     beta= 0.70
     CG style diagonalization
     ethr =  4.58E-10,  avg # of iterations =  5.5

     negative rho (up, down):  1.926E-04 1.850E-04

     total cpu time spent up to now is    24771.1 secs

     total energy              =     -40.39980125 Ry
     estimated scf accuracy    <       0.00005056 Ry

     total magnetization       =     0.01 Bohr mag/cell
     absolute magnetization    =     0.17 Bohr mag/cell

     iteration #994     ecut=    60.00 Ry     beta= 0.70
     CG style diagonalization
     c_bands:  1 eigenvalues not converged
     c_bands:  1 eigenvalues not converged
     ethr =  4.58E-10,  avg # of iterations =  5.7

     negative rho (up, down):  1.924E-04 1.852E-04

     total cpu time spent up to now is    24796.9 secs

     total energy              =     -40.39980401 Ry
     estimated scf accuracy    <       0.00008391 Ry

     total magnetization       =     0.01 Bohr mag/cell
     absolute magnetization    =     0.17 Bohr mag/cell

     iteration #995     ecut=    60.00 Ry     beta= 0.70
     CG style diagonalization
     c_bands:  1 eigenvalues not converged
     c_bands:  1 eigenvalues not converged
     ethr =  4.58E-10,  avg # of iterations =  5.6

     negative rho (up, down):  1.932E-04 1.862E-04

     total cpu time spent up to now is    24822.6 secs

     total energy              =     -40.39980175 Ry
     estimated scf accuracy    <       0.00007331 Ry

     total magnetization       =     0.01 Bohr mag/cell
     absolute magnetization    =     0.17 Bohr mag/cell

     iteration #996     ecut=    60.00 Ry     beta= 0.70
     CG style diagonalization
     c_bands:  1 eigenvalues not converged
     ethr =  4.58E-10,  avg # of iterations =  5.6

     negative rho (up, down):  1.928E-04 1.851E-04

     total cpu time spent up to now is    24848.1 secs

     total energy              =     -40.39979279 Ry
     estimated scf accuracy    <       0.00021958 Ry

     total magnetization       =     0.01 Bohr mag/cell
     absolute magnetization    =     0.18 Bohr mag/cell

     iteration #997     ecut=    60.00 Ry     beta= 0.70
     CG style diagonalization
     c_bands:  1 eigenvalues not converged
     c_bands:  1 eigenvalues not converged
     c_bands:  1 eigenvalues not converged
     ethr =  4.58E-10,  avg # of iterations =  5.3

     negative rho (up, down):  1.925E-04 1.840E-04

     total cpu time spent up to now is    24873.1 secs

     total energy              =     -40.39976994 Ry
     estimated scf accuracy    <       0.00010998 Ry

     total magnetization       =     0.01 Bohr mag/cell
     absolute magnetization    =     0.17 Bohr mag/cell

     iteration #998     ecut=    60.00 Ry     beta= 0.70
     CG style diagonalization
     c_bands:  1 eigenvalues not converged
     c_bands:  1 eigenvalues not converged
     c_bands:  1 eigenvalues not converged
     ethr =  4.58E-10,  avg # of iterations =  6.1

     negative rho (up, down):  1.913E-04 1.840E-04

     total cpu time spent up to now is    24899.7 secs

     total energy              =     -40.39969477 Ry
     estimated scf accuracy    <       0.00001964 Ry

     total magnetization       =     0.01 Bohr mag/cell
     absolute magnetization    =     0.17 Bohr mag/cell

     iteration #999     ecut=    60.00 Ry     beta= 0.70
     CG style diagonalization
     c_bands:  1 eigenvalues not converged
     c_bands:  1 eigenvalues not converged
     c_bands:  1 eigenvalues not converged
     ethr =  4.58E-10,  avg # of iterations =  6.5

     negative rho (up, down):  1.916E-04 1.839E-04

     total cpu time spent up to now is    24927.6 secs

     total energy              =     -40.39973519 Ry
     estimated scf accuracy    <       0.00000844 Ry

     total magnetization       =     0.01 Bohr mag/cell
     absolute magnetization    =     0.16 Bohr mag/cell

     iteration #***     ecut=    60.00 Ry     beta= 0.70
     CG style diagonalization
     c_bands:  1 eigenvalues not converged
     ethr =  4.58E-10,  avg # of iterations =  6.9

     negative rho (up, down):  1.917E-04 1.834E-04

     total cpu time spent up to now is    24956.1 secs

     total energy              =     -40.39975225 Ry
     estimated scf accuracy    <       0.00001043 Ry

     total magnetization       =     0.01 Bohr mag/cell
     absolute magnetization    =     0.16 Bohr mag/cell

     End of self-consistent calculation

     convergence NOT achieved after *** iterations: stopping

     Writing output data file ./N2_ESM_pn5.save/

     init_run     :     20.32s CPU     21.45s WALL (       1 calls)
     electrons    :  23702.82s CPU  24935.14s WALL (       1 calls)

     Called by init_run:
     wfcinit      :      1.72s CPU      1.78s WALL (       1 calls)
     potinit      :      7.39s CPU      8.06s WALL (       1 calls)
     hinit0       :      1.35s CPU      1.50s WALL (       1 calls)

     Called by electrons:
     c_bands      :  11648.90s CPU  11805.36s WALL (    1000 calls)
     sum_band     :   2357.31s CPU   2430.92s WALL (    1000 calls)
     v_of_rho     :   6093.34s CPU   6556.29s WALL (    1001 calls)
     newd         :    576.23s CPU    609.85s WALL (    1001 calls)
     mix_rho      :   2011.52s CPU   2448.52s WALL (    1000 calls)

     Called by c_bands:
     init_us_2    :     37.10s CPU     38.34s WALL (    6003 calls)
     ccgdiagg     :   9295.06s CPU   9395.87s WALL (    3000 calls)
     wfcrot       :   1857.91s CPU   1878.67s WALL (    3000 calls)

     Called by *cgdiagg:
     h_psi        :   9412.57s CPU   9515.24s WALL (  120821 calls)
     s_psi        :    711.30s CPU    719.22s WALL (  238642 calls)

     Called by h_psi:
     h_psi:calbec :    452.54s CPU    457.98s WALL (  120821 calls)
     vloc_psi     :   8367.71s CPU   8459.11s WALL (  120821 calls)
     add_vuspsi   :    542.64s CPU    548.40s WALL (  120821 calls)
     hs_1psi      :   8040.29s CPU   8127.21s WALL (  117821 calls)
     s_1psi       :    761.77s CPU    770.02s WALL (  117821 calls)

     General routines
     calbec       :    853.87s CPU    864.54s WALL (  241642 calls)
     fft          :   6128.02s CPU   6283.36s WALL (   25023 calls)
     ffts         :    311.79s CPU    315.01s WALL (    4002 calls)
     fftw         :   7639.97s CPU   7721.72s WALL (  316642 calls)
     interpolate  :    674.47s CPU    737.13s WALL (    2002 calls)
     davcio       :      5.75s CPU    288.54s WALL (   32891 calls)

     Parallel routines
     fft_scatt_xy :   2376.80s CPU   2403.71s WALL (  345667 calls)
     fft_scatt_yz :   4645.02s CPU   4697.37s WALL (  345667 calls)

     PWSCF        :      6h35m CPU      6h55m WALL


   This run was terminated on:   5:12:47   6Jul2022            

=------------------------------------------------------------------------------=
   JOB DONE.
=------------------------------------------------------------------------------=
