     Message from routine get_command_line:
     unexpected argument # 4     :-in

     Program PWSCF v.6.7MaX starts on 30Jun2022 at 12:15:21 

     This program is part of the open-source Quantum ESPRESSO suite
     for quantum simulation of materials; please cite
         "P. Giannozzi et al., J. Phys.:Condens. Matter 21 395502 (2009);
         "P. Giannozzi et al., J. Phys.:Condens. Matter 29 465901 (2017);
          URL http://www.quantum-espresso.org", 
     in publications or presentations arising from this work. More details at
     http://www.quantum-espresso.org/quote

     Parallel version (MPI), running on   120 processors

     MPI processes distributed on     1 nodes
     K-points division:     npool     =       8
     R & G space division:  proc/nbgrp/npool/nimage =      15
     Waiting for input...
     Reading input from standard input
Warning: card &CELL ignored
Warning: card / ignored

     Current dimensions of program PWSCF are:
     Max number of different atomic species (ntypx) = 10
     Max number of k-points (npk) =  40000
     Max angular momentum in pseudopotentials (lmaxx) =  3

     IMPORTANT: XC functional enforced from input :
     Exchange-correlation= PBE
                           (   1   4   3   4   0   0   0)
     Any further DFT definition will be discarded
     Please, verify this is what you really want


     -------------------------------------------------
     Parameters for Dispersion (Grimme-D2) Correction:
     -------------------------------------------------
       atom      VdW radius       C_6     

        N          2.640         42.670
        H          1.892          4.857

     Subspace diagonalization in iterative solution of the eigenvalue problem:
     one sub-group per band group will be used
     scalapack distributed-memory algorithm (size of sub-group:  3*  3 procs)


     Parallelization info
     --------------------
     sticks:   dense  smooth     PW     G-vecs:    dense   smooth      PW
     Min        3636    1818    468               639190   225950   29545
     Max        3637    1819    470               639197   225953   29547
     Sum       54553   27281   7033              9587919  3389267  443191



     bravais-lattice index     =            0
     lattice parameter (alat)  =      37.7945  a.u.
     unit-cell volume          =   53986.6760 (a.u.)^3
     number of atoms/cell      =            2
     number of atomic types    =            2
     number of electrons       =         6.00
     number of Kohn-Sham states=            7
     kinetic-energy cutoff     =      60.0000  Ry
     charge density cutoff     =     480.0000  Ry
     scf convergence threshold =      1.0E-08
     mixing beta               =       0.7000
     number of iterations used =           10  plain     mixing
     energy convergence thresh.=      7.3E-07
     force convergence thresh. =      3.9E-04
     Exchange-correlation= PBE
                           (   1   4   3   4   0   0   0)
     nstep                     =           50


     Effective Screening Medium Method
     =================================
     Boundary Conditions: Metal-Slab-Metal
     field strength                   =    -0.05 Ry/a.u.
     grid points for fit at edges     =        4 


     celldm(1)=  37.794522  celldm(2)=   0.000000  celldm(3)=   0.000000
     celldm(4)=   0.000000  celldm(5)=   0.000000  celldm(6)=   0.000000

     crystal axes: (cart. coord. in units of alat)
               a(1) = (   1.000000   0.000000   0.000000 )  
               a(2) = (   0.000000   1.000000   0.000000 )  
               a(3) = (   0.000000   0.000000   1.000000 )  

     reciprocal axes: (cart. coord. in units 2 pi/alat)
               b(1) = (  1.000000  0.000000  0.000000 )  
               b(2) = (  0.000000  1.000000  0.000000 )  
               b(3) = (  0.000000  0.000000  1.000000 )  


     PseudoPot. # 1 for N  read from file:
     ../../SSSP/N.pbe-n-radius_5.UPF
     MD5 check sum: 16739722b17309cd8fe442a2ace49922
     Pseudo is Ultrasoft + core correction, Zval =  5.0
     Generated using "atomic" code by A. Dal Corso  v.5.1
     Using radial grid of 1085 points,  4 beta functions with: 
                l(1) =   0
                l(2) =   0
                l(3) =   1
                l(4) =   1
     Q(r) pseudized with 0 coefficients 


     PseudoPot. # 2 for H  read from file:
     ../../SSSP/H.pbe-rrkjus_psl.1.0.0.UPF
     MD5 check sum: f52b6d4d1c606e5624b1dc7b2218f220
     Pseudo is Ultrasoft, Zval =  1.0
     Generated using "atomic" code by A. Dal Corso  v.5.1
     Using radial grid of  929 points,  2 beta functions with: 
                l(1) =   0
                l(2) =   0
     Q(r) pseudized with 0 coefficients 


     atomic species   valence    mass     pseudopotential
        N              5.00    14.00700     N ( 1.00)
        H              1.00     1.00800     H ( 1.00)

     Starting magnetic structure 
     atomic species   magnetization
        N            0.100
        H            0.100

     No symmetry found



   Cartesian axes

     site n.     atom                  positions (alat units)
         1           N   tau(   1) = (   0.5000000   0.5000000   0.0000000  )
         2           H   tau(   2) = (   0.5000000   0.5525081   0.0000000  )

     number of k points=    10  Methfessel-Paxton smearing, width (Ry)=  0.0100
                       cart. coord. in units 2pi/alat
        k(    1) = (   0.0000000   0.0000000   0.0000000), wk =   0.0625000
        k(    2) = (   0.0000000   0.2500000   0.0000000), wk =   0.1250000
        k(    3) = (   0.0000000  -0.5000000   0.0000000), wk =   0.0625000
        k(    4) = (   0.2500000   0.0000000   0.0000000), wk =   0.1250000
        k(    5) = (   0.2500000   0.2500000   0.0000000), wk =   0.1250000
        k(    6) = (   0.2500000  -0.5000000   0.0000000), wk =   0.1250000
        k(    7) = (   0.2500000  -0.2500000   0.0000000), wk =   0.1250000
        k(    8) = (  -0.5000000   0.0000000   0.0000000), wk =   0.0625000
        k(    9) = (  -0.5000000   0.2500000   0.0000000), wk =   0.1250000
        k(   10) = (  -0.5000000  -0.5000000   0.0000000), wk =   0.0625000

     Dense  grid:  9587919 G-vectors     FFT dimensions: ( 270, 270, 270)

     Smooth grid:  3389267 G-vectors     FFT dimensions: ( 192, 192, 192)

     Estimated max dynamical RAM per process >     385.51 MB

     Estimated total dynamical RAM >      45.18 GB
     Generating pointlists ...
     new r_m :   0.0217 (alat units)  0.8186 (a.u.) for type    1
     new r_m :   0.0217 (alat units)  0.8186 (a.u.) for type    2

     Initial potential from superposition of free atoms

     starting charge    5.99998, renormalised to    6.00000

     negative rho (up, down):  9.687E-05 7.925E-05
     Starting wfcs are    5 randomized atomic wfcs +    2 random wfcs

     total cpu time spent up to now is       21.9 secs

     Self-consistent Calculation

     iteration #  1     ecut=    60.00 Ry     beta= 0.70
     Davidson diagonalization with overlap
     c_bands:  3 eigenvalues not converged
     c_bands:  5 eigenvalues not converged
     c_bands:  4 eigenvalues not converged
     ethr =  1.00E-04,  avg # of iterations = 20.0

     negative rho (up, down):  5.196E-05 4.913E-05

     total cpu time spent up to now is       56.6 secs

     total energy              =     -19.75989682 Ry
     estimated scf accuracy    <       2.10257297 Ry

     total magnetization       =    -0.05 Bohr mag/cell
     absolute magnetization    =     0.14 Bohr mag/cell

     iteration #  2     ecut=    60.00 Ry     beta= 0.70
     Davidson diagonalization with overlap
     ethr =  1.00E-02,  avg # of iterations =  3.4

     negative rho (up, down):  8.325E-05 8.125E-05

     total cpu time spent up to now is       73.1 secs

     total energy              =     -20.29430568 Ry
     estimated scf accuracy    <       0.22997470 Ry

     total magnetization       =    -0.05 Bohr mag/cell
     absolute magnetization    =     0.20 Bohr mag/cell

     iteration #  3     ecut=    60.00 Ry     beta= 0.70
     Davidson diagonalization with overlap
     ethr =  3.83E-03,  avg # of iterations =  4.8

     negative rho (up, down):  2.176E-04 1.407E-04

     total cpu time spent up to now is       90.2 secs

     total energy              =     -21.20080978 Ry
     estimated scf accuracy    <       1.87381863 Ry

     total magnetization       =     0.77 Bohr mag/cell
     absolute magnetization    =     0.77 Bohr mag/cell

     iteration #  4     ecut=    60.00 Ry     beta= 0.70
     Davidson diagonalization with overlap
     ethr =  3.83E-03,  avg # of iterations =  3.6

     negative rho (up, down):  2.220E-04 1.256E-04

     total cpu time spent up to now is      107.1 secs

     total energy              =     -21.07200227 Ry
     estimated scf accuracy    <       0.64024161 Ry

     total magnetization       =     1.00 Bohr mag/cell
     absolute magnetization    =     1.00 Bohr mag/cell

     iteration #  5     ecut=    60.00 Ry     beta= 0.70
     Davidson diagonalization with overlap
     ethr =  3.83E-03,  avg # of iterations =  2.3

     negative rho (up, down):  1.854E-04 1.075E-04

     total cpu time spent up to now is      123.2 secs

     total energy              =     -20.98308151 Ry
     estimated scf accuracy    <       0.21718232 Ry

     total magnetization       =     0.95 Bohr mag/cell
     absolute magnetization    =     0.96 Bohr mag/cell

     iteration #  6     ecut=    60.00 Ry     beta= 0.70
     Davidson diagonalization with overlap
     ethr =  3.62E-03,  avg # of iterations =  1.0

     negative rho (up, down):  2.395E-04 1.029E-04

     total cpu time spent up to now is      138.9 secs

     total energy              =     -20.85701704 Ry
     estimated scf accuracy    <       1.93725693 Ry

     total magnetization       =    -0.05 Bohr mag/cell
     absolute magnetization    =     0.27 Bohr mag/cell

     iteration #  7     ecut=    60.00 Ry     beta= 0.70
     Davidson diagonalization with overlap
     ethr =  3.62E-03,  avg # of iterations =  1.0

     negative rho (up, down):  1.226E-04 7.857E-05

     total cpu time spent up to now is      154.8 secs

     total energy              =     -21.11663063 Ry
     estimated scf accuracy    <       0.18343225 Ry

     total magnetization       =     0.97 Bohr mag/cell
     absolute magnetization    =     0.98 Bohr mag/cell

     iteration #  8     ecut=    60.00 Ry     beta= 0.70
     Davidson diagonalization with overlap
     ethr =  3.06E-03,  avg # of iterations =  1.0

     negative rho (up, down):  1.720E-04 8.944E-05

     total cpu time spent up to now is      170.8 secs

     total energy              =     -21.06156372 Ry
     estimated scf accuracy    <       0.20192624 Ry

     total magnetization       =     1.00 Bohr mag/cell
     absolute magnetization    =     1.01 Bohr mag/cell

     iteration #  9     ecut=    60.00 Ry     beta= 0.70
     Davidson diagonalization with overlap
     ethr =  3.06E-03,  avg # of iterations =  1.0

     negative rho (up, down):  1.846E-04 1.274E-04

     total cpu time spent up to now is      186.8 secs

     total energy              =     -21.08940147 Ry
     estimated scf accuracy    <       0.00953090 Ry

     total magnetization       =     1.42 Bohr mag/cell
     absolute magnetization    =     1.62 Bohr mag/cell

     iteration # 10     ecut=    60.00 Ry     beta= 0.70
     Davidson diagonalization with overlap
     ethr =  1.59E-04,  avg # of iterations =  6.2

     negative rho (up, down):  2.813E-04 1.529E-04

     total cpu time spent up to now is      205.1 secs

     total energy              =     -21.11315307 Ry
     estimated scf accuracy    <       0.08550727 Ry

     total magnetization       =     1.83 Bohr mag/cell
     absolute magnetization    =     1.93 Bohr mag/cell

     iteration # 11     ecut=    60.00 Ry     beta= 0.70
     Davidson diagonalization with overlap
     ethr =  1.59E-04,  avg # of iterations =  1.0

     negative rho (up, down):  3.132E-04 1.618E-04

     total cpu time spent up to now is      221.3 secs

     total energy              =     -21.11595873 Ry
     estimated scf accuracy    <       0.08251959 Ry

     total magnetization       =     1.83 Bohr mag/cell
     absolute magnetization    =     1.93 Bohr mag/cell

     iteration # 12     ecut=    60.00 Ry     beta= 0.70
     Davidson diagonalization with overlap
     ethr =  1.59E-04,  avg # of iterations =  1.0

     negative rho (up, down):  3.340E-04 2.959E-04

     total cpu time spent up to now is      237.4 secs

     total energy              =     -21.10331246 Ry
     estimated scf accuracy    <       0.08698046 Ry

     total magnetization       =     1.83 Bohr mag/cell
     absolute magnetization    =     1.93 Bohr mag/cell

     iteration # 13     ecut=    60.00 Ry     beta= 0.70
     Davidson diagonalization with overlap
     ethr =  1.59E-04,  avg # of iterations =  4.7

     negative rho (up, down):  3.134E-04 1.642E-04

     total cpu time spent up to now is      255.3 secs

     total energy              =     -21.11039125 Ry
     estimated scf accuracy    <       0.06968849 Ry

     total magnetization       =     1.79 Bohr mag/cell
     absolute magnetization    =     1.97 Bohr mag/cell

     iteration # 14     ecut=    60.00 Ry     beta= 0.70
     Davidson diagonalization with overlap
     ethr =  1.59E-04,  avg # of iterations =  1.0

     negative rho (up, down):  3.362E-04 1.853E-04

     total cpu time spent up to now is      271.5 secs

     total energy              =     -21.11209617 Ry
     estimated scf accuracy    <       0.07601253 Ry

     total magnetization       =     1.87 Bohr mag/cell
     absolute magnetization    =     1.91 Bohr mag/cell

     iteration # 15     ecut=    60.00 Ry     beta= 0.70
     Davidson diagonalization with overlap
     ethr =  1.59E-04,  avg # of iterations =  1.0

     negative rho (up, down):  3.321E-04 2.038E-04

     total cpu time spent up to now is      287.7 secs

     total energy              =     -21.11204233 Ry
     estimated scf accuracy    <       0.08638723 Ry

     total magnetization       =     1.69 Bohr mag/cell
     absolute magnetization    =     2.07 Bohr mag/cell

     iteration # 16     ecut=    60.00 Ry     beta= 0.70
     Davidson diagonalization with overlap
     ethr =  1.59E-04,  avg # of iterations =  1.0

     negative rho (up, down):  3.473E-04 2.136E-04

     total cpu time spent up to now is      303.8 secs

     total energy              =     -21.10959343 Ry
     estimated scf accuracy    <       0.09168800 Ry

     total magnetization       =     1.94 Bohr mag/cell
     absolute magnetization    =     1.95 Bohr mag/cell

     iteration # 17     ecut=    60.00 Ry     beta= 0.70
     Davidson diagonalization with overlap
     ethr =  1.59E-04,  avg # of iterations =  1.0

     negative rho (up, down):  3.322E-03 9.090E-03

     total cpu time spent up to now is      319.8 secs

     total energy              =     -21.06592441 Ry
     estimated scf accuracy    <       0.09295280 Ry

     total magnetization       =     1.96 Bohr mag/cell
     absolute magnetization    =     1.97 Bohr mag/cell

     iteration # 18     ecut=    60.00 Ry     beta= 0.70
     Davidson diagonalization with overlap
     ethr =  1.59E-04,  avg # of iterations =  7.8

     negative rho (up, down):  3.383E-04 4.311E-02

     total cpu time spent up to now is      340.1 secs

     total energy              =     -21.09920851 Ry
     estimated scf accuracy    <       1.99153357 Ry

     total magnetization       =    -0.85 Bohr mag/cell
     absolute magnetization    =     0.90 Bohr mag/cell

     iteration # 19     ecut=    60.00 Ry     beta= 0.70
     Davidson diagonalization with overlap
     ethr =  1.59E-04,  avg # of iterations =  4.9

     negative rho (up, down):  4.684E-01 4.401E-03

     total cpu time spent up to now is      358.3 secs

     total energy              =     -21.31101318 Ry
     estimated scf accuracy    <       1.88673770 Ry

     total magnetization       =     1.63 Bohr mag/cell
     absolute magnetization    =     1.70 Bohr mag/cell

     iteration # 20     ecut=    60.00 Ry     beta= 0.70
     Davidson diagonalization with overlap
     ethr =  1.59E-04,  avg # of iterations = 13.3

     negative rho (up, down):  5.664E-01 5.352E-03

     total cpu time spent up to now is      383.4 secs

     total energy              =     -21.30026704 Ry
     estimated scf accuracy    <       6.51322804 Ry

     total magnetization       =    -1.39 Bohr mag/cell
     absolute magnetization    =     2.45 Bohr mag/cell

     iteration # 21     ecut=    60.00 Ry     beta= 0.70
     Davidson diagonalization with overlap
     ethr =  1.59E-04,  avg # of iterations =  4.0

     negative rho (up, down):  3.770E-01 3.560E-03

     total cpu time spent up to now is      400.7 secs

     total energy              =     -21.13082866 Ry
     estimated scf accuracy    <       4.65072057 Ry

     total magnetization       =    -1.32 Bohr mag/cell
     absolute magnetization    =     3.33 Bohr mag/cell

     iteration # 22     ecut=    60.00 Ry     beta= 0.70
     Davidson diagonalization with overlap
     ethr =  1.59E-04,  avg # of iterations =  3.9

     negative rho (up, down):  2.433E-01 1.318E-03

     total cpu time spent up to now is      418.8 secs

     total energy              =     -20.60195257 Ry
     estimated scf accuracy    <       4.30133598 Ry

     total magnetization       =    -1.94 Bohr mag/cell
     absolute magnetization    =     3.82 Bohr mag/cell

     iteration # 23     ecut=    60.00 Ry     beta= 0.70
     Davidson diagonalization with overlap
     ethr =  1.59E-04,  avg # of iterations = 13.3

     negative rho (up, down):  2.457E-01 1.113E-02

     total cpu time spent up to now is      442.6 secs

     total energy              =     -20.96230387 Ry
     estimated scf accuracy    <       0.85534889 Ry

     total magnetization       =    -0.51 Bohr mag/cell
     absolute magnetization    =     2.88 Bohr mag/cell

     iteration # 24     ecut=    60.00 Ry     beta= 0.70
     Davidson diagonalization with overlap
     ethr =  1.59E-04,  avg # of iterations =  2.6

     negative rho (up, down):  3.787E-01 1.649E-02

     total cpu time spent up to now is      459.0 secs

     total energy              =     -21.00384278 Ry
     estimated scf accuracy    <       0.95381967 Ry

     total magnetization       =    -0.52 Bohr mag/cell
     absolute magnetization    =     2.89 Bohr mag/cell

     iteration # 25     ecut=    60.00 Ry     beta= 0.70
     Davidson diagonalization with overlap
     ethr =  1.59E-04,  avg # of iterations =  4.3

     negative rho (up, down):  4.455E-01 1.143E-02

     total cpu time spent up to now is      477.4 secs

     total energy              =     -21.01450554 Ry
     estimated scf accuracy    <       0.54007652 Ry

     total magnetization       =    -0.50 Bohr mag/cell
     absolute magnetization    =     2.14 Bohr mag/cell

     iteration # 26     ecut=    60.00 Ry     beta= 0.70
     Davidson diagonalization with overlap
     ethr =  1.59E-04,  avg # of iterations =  2.4

     negative rho (up, down):  2.549E-04 5.201E-02

     total cpu time spent up to now is      494.1 secs

     total energy              =     -20.93096255 Ry
     estimated scf accuracy    <       0.46931703 Ry

     total magnetization       =    -0.50 Bohr mag/cell
     absolute magnetization    =     2.14 Bohr mag/cell

     iteration # 27     ecut=    60.00 Ry     beta= 0.70
     Davidson diagonalization with overlap
     ethr =  1.59E-04,  avg # of iterations =  9.7

     negative rho (up, down):  1.530E-04 9.010E-02

     total cpu time spent up to now is      516.1 secs

     total energy              =     -21.04394776 Ry
     estimated scf accuracy    <       0.04088616 Ry

     total magnetization       =     0.37 Bohr mag/cell
     absolute magnetization    =     2.03 Bohr mag/cell

     iteration # 28     ecut=    60.00 Ry     beta= 0.70
     Davidson diagonalization with overlap
     ethr =  1.59E-04,  avg # of iterations =  4.8

     negative rho (up, down):  1.552E-04 3.240E-02

     total cpu time spent up to now is      534.0 secs

     total energy              =     -21.12467448 Ry
     estimated scf accuracy    <       0.01807768 Ry

     total magnetization       =     1.36 Bohr mag/cell
     absolute magnetization    =     1.91 Bohr mag/cell

     iteration # 29     ecut=    60.00 Ry     beta= 0.70
     Davidson diagonalization with overlap
     ethr =  1.59E-04,  avg # of iterations =  3.2

     negative rho (up, down):  1.851E-04 1.535E-02

     total cpu time spent up to now is      551.0 secs

     total energy              =     -21.13594115 Ry
     estimated scf accuracy    <       0.03679494 Ry

     total magnetization       =     1.37 Bohr mag/cell
     absolute magnetization    =     2.04 Bohr mag/cell

     iteration # 30     ecut=    60.00 Ry     beta= 0.70
     Davidson diagonalization with overlap
     ethr =  1.59E-04,  avg # of iterations =  3.1

     negative rho (up, down):  7.704E-02 8.213E-03

     total cpu time spent up to now is      567.8 secs

     total energy              =     -21.13544189 Ry
     estimated scf accuracy    <       0.01263976 Ry

     total magnetization       =     1.37 Bohr mag/cell
     absolute magnetization    =     2.04 Bohr mag/cell

     iteration # 31     ecut=    60.00 Ry     beta= 0.70
     Davidson diagonalization with overlap
     ethr =  1.59E-04,  avg # of iterations =  5.6

     negative rho (up, down):  8.508E-02 3.742E-03

     total cpu time spent up to now is      587.7 secs

     total energy              =     -21.18013867 Ry
     estimated scf accuracy    <       2.15926805 Ry

     total magnetization       =    -2.06 Bohr mag/cell
     absolute magnetization    =     2.14 Bohr mag/cell

     iteration # 32     ecut=    60.00 Ry     beta= 0.70
     Davidson diagonalization with overlap
     ethr =  1.59E-04,  avg # of iterations =  3.0

     negative rho (up, down):  8.310E-02 3.302E-03

     total cpu time spent up to now is      604.5 secs

     total energy              =     -21.17622647 Ry
     estimated scf accuracy    <       1.83165324 Ry

     total magnetization       =    -1.89 Bohr mag/cell
     absolute magnetization    =     2.19 Bohr mag/cell

     iteration # 33     ecut=    60.00 Ry     beta= 0.70
     Davidson diagonalization with overlap
     ethr =  1.59E-04,  avg # of iterations =  1.1

     negative rho (up, down):  7.813E-02 2.378E-03

     total cpu time spent up to now is      620.4 secs

     total energy              =     -21.15514445 Ry
     estimated scf accuracy    <       1.69086310 Ry

     total magnetization       =    -1.76 Bohr mag/cell
     absolute magnetization    =     2.16 Bohr mag/cell

     iteration # 34     ecut=    60.00 Ry     beta= 0.70
     Davidson diagonalization with overlap
     ethr =  1.59E-04,  avg # of iterations =  1.0

     negative rho (up, down):  5.564E-02 3.969E-03

     total cpu time spent up to now is      636.2 secs

     total energy              =     -21.08511398 Ry
     estimated scf accuracy    <       0.67272865 Ry

     total magnetization       =    -0.56 Bohr mag/cell
     absolute magnetization    =     2.07 Bohr mag/cell

     iteration # 35     ecut=    60.00 Ry     beta= 0.70
     Davidson diagonalization with overlap
     ethr =  1.59E-04,  avg # of iterations =  5.5

     negative rho (up, down):  5.176E-02 2.986E-04

     total cpu time spent up to now is      655.0 secs

     total energy              =     -21.13138733 Ry
     estimated scf accuracy    <       0.03072694 Ry

     total magnetization       =     1.63 Bohr mag/cell
     absolute magnetization    =     2.03 Bohr mag/cell

     iteration # 36     ecut=    60.00 Ry     beta= 0.70
     Davidson diagonalization with overlap
     ethr =  1.59E-04,  avg # of iterations =  3.1

     negative rho (up, down):  1.776E-02 1.099E-03

     total cpu time spent up to now is      672.3 secs

     total energy              =     -21.04862473 Ry
     estimated scf accuracy    <       1.45607721 Ry

     total magnetization       =    -1.50 Bohr mag/cell
     absolute magnetization    =     2.09 Bohr mag/cell

     iteration # 37     ecut=    60.00 Ry     beta= 0.70
     Davidson diagonalization with overlap
     ethr =  1.59E-04,  avg # of iterations =  3.6

     negative rho (up, down):  7.485E-03 4.180E-04

     total cpu time spent up to now is      690.0 secs

     total energy              =     -21.14614855 Ry
     estimated scf accuracy    <       0.04744426 Ry

     total magnetization       =     1.75 Bohr mag/cell
     absolute magnetization    =     2.03 Bohr mag/cell

     iteration # 38     ecut=    60.00 Ry     beta= 0.70
     Davidson diagonalization with overlap
     ethr =  1.59E-04,  avg # of iterations =  1.4

     negative rho (up, down):  3.948E-03 9.333E-05

     total cpu time spent up to now is      706.0 secs

     total energy              =     -21.14266346 Ry
     estimated scf accuracy    <       0.04586243 Ry

     total magnetization       =     1.75 Bohr mag/cell
     absolute magnetization    =     2.03 Bohr mag/cell

     iteration # 39     ecut=    60.00 Ry     beta= 0.70
     Davidson diagonalization with overlap
     ethr =  1.59E-04,  avg # of iterations =  1.1

     negative rho (up, down):  6.432E-04 9.090E-05

     total cpu time spent up to now is      722.0 secs

     total energy              =     -21.14168170 Ry
     estimated scf accuracy    <       0.04016056 Ry

     total magnetization       =     1.75 Bohr mag/cell
     absolute magnetization    =     2.03 Bohr mag/cell

     iteration # 40     ecut=    60.00 Ry     beta= 0.70
     Davidson diagonalization with overlap
     ethr =  1.59E-04,  avg # of iterations =  1.1

     negative rho (up, down):  1.626E-03 9.105E-05

     total cpu time spent up to now is      737.8 secs

     total energy              =     -21.14062949 Ry
     estimated scf accuracy    <       0.03841268 Ry

     total magnetization       =     1.75 Bohr mag/cell
     absolute magnetization    =     2.04 Bohr mag/cell

     iteration # 41     ecut=    60.00 Ry     beta= 0.70
     Davidson diagonalization with overlap
     ethr =  1.59E-04,  avg # of iterations =  2.5

     negative rho (up, down):  1.384E-03 9.105E-05

     total cpu time spent up to now is      754.2 secs

     total energy              =     -21.13988102 Ry
     estimated scf accuracy    <       0.03858116 Ry

     total magnetization       =     1.77 Bohr mag/cell
     absolute magnetization    =     2.04 Bohr mag/cell

     iteration # 42     ecut=    60.00 Ry     beta= 0.70
     Davidson diagonalization with overlap
     ethr =  1.59E-04,  avg # of iterations =  1.8

     negative rho (up, down):  1.389E-03 9.091E-05

     total cpu time spent up to now is      770.3 secs

     total energy              =     -21.14020835 Ry
     estimated scf accuracy    <       0.04712769 Ry

     total magnetization       =     1.83 Bohr mag/cell
     absolute magnetization    =     2.04 Bohr mag/cell

     iteration # 43     ecut=    60.00 Ry     beta= 0.70
     Davidson diagonalization with overlap
     ethr =  1.59E-04,  avg # of iterations =  1.0

     negative rho (up, down):  2.988E-03 9.072E-05

     total cpu time spent up to now is      786.0 secs

     total energy              =     -21.13757805 Ry
     estimated scf accuracy    <       0.04187482 Ry

     total magnetization       =     1.79 Bohr mag/cell
     absolute magnetization    =     2.04 Bohr mag/cell

     iteration # 44     ecut=    60.00 Ry     beta= 0.70
     Davidson diagonalization with overlap
     ethr =  1.59E-04,  avg # of iterations =  3.1

     negative rho (up, down):  3.401E-03 9.073E-05

     total cpu time spent up to now is      802.8 secs

     total energy              =     -21.14075431 Ry
     estimated scf accuracy    <       0.03593511 Ry

     total magnetization       =     0.89 Bohr mag/cell
     absolute magnetization    =     2.04 Bohr mag/cell

     iteration # 45     ecut=    60.00 Ry     beta= 0.70
     Davidson diagonalization with overlap
     ethr =  1.59E-04,  avg # of iterations =  1.0

     negative rho (up, down):  2.914E-03 9.057E-05

     total cpu time spent up to now is      818.7 secs

     total energy              =     -21.13943138 Ry
     estimated scf accuracy    <       0.12961530 Ry

     total magnetization       =     0.50 Bohr mag/cell
     absolute magnetization    =     2.05 Bohr mag/cell

     iteration # 46     ecut=    60.00 Ry     beta= 0.70
     Davidson diagonalization with overlap
     ethr =  1.59E-04,  avg # of iterations =  1.0

     negative rho (up, down):  2.732E-03 9.061E-05

     total cpu time spent up to now is      834.6 secs

     total energy              =     -21.13977313 Ry
     estimated scf accuracy    <       0.03634924 Ry

     total magnetization       =     0.89 Bohr mag/cell
     absolute magnetization    =     2.04 Bohr mag/cell

     iteration # 47     ecut=    60.00 Ry     beta= 0.70
     Davidson diagonalization with overlap
     ethr =  1.59E-04,  avg # of iterations =  1.0

     negative rho (up, down):  8.844E-03 9.140E-05

     total cpu time spent up to now is      850.5 secs

     total energy              =     -21.13829791 Ry
     estimated scf accuracy    <       0.03543937 Ry

     total magnetization       =     0.90 Bohr mag/cell
     absolute magnetization    =     2.04 Bohr mag/cell

     iteration # 48     ecut=    60.00 Ry     beta= 0.70
     Davidson diagonalization with overlap
     ethr =  1.59E-04,  avg # of iterations =  1.0

     negative rho (up, down):  1.356E-02 1.214E-04

     total cpu time spent up to now is      866.5 secs

     total energy              =     -21.13744958 Ry
     estimated scf accuracy    <       0.00818651 Ry

     total magnetization       =     1.53 Bohr mag/cell
     absolute magnetization    =     2.04 Bohr mag/cell

     iteration # 49     ecut=    60.00 Ry     beta= 0.70
     Davidson diagonalization with overlap
     ethr =  1.36E-04,  avg # of iterations =  1.4

     negative rho (up, down):  5.266E-03 9.313E-05

     total cpu time spent up to now is      882.6 secs

     total energy              =     -21.14039383 Ry
     estimated scf accuracy    <       0.33931508 Ry

     total magnetization       =    -0.00 Bohr mag/cell
     absolute magnetization    =     2.05 Bohr mag/cell

     iteration # 50     ecut=    60.00 Ry     beta= 0.70
     Davidson diagonalization with overlap
     ethr =  1.36E-04,  avg # of iterations =  2.8

     negative rho (up, down):  3.444E-04 8.934E-05

     total cpu time spent up to now is      899.1 secs

     total energy              =     -21.10976397 Ry
     estimated scf accuracy    <       0.35333459 Ry

     total magnetization       =    -0.04 Bohr mag/cell
     absolute magnetization    =     2.05 Bohr mag/cell

     iteration # 51     ecut=    60.00 Ry     beta= 0.70
     Davidson diagonalization with overlap
     ethr =  1.36E-04,  avg # of iterations =  3.3

     negative rho (up, down):  8.618E-04 8.988E-05

     total cpu time spent up to now is      916.0 secs

     total energy              =     -21.13565293 Ry
     estimated scf accuracy    <       0.03708654 Ry

     total magnetization       =     1.75 Bohr mag/cell
     absolute magnetization    =     2.04 Bohr mag/cell

     iteration # 52     ecut=    60.00 Ry     beta= 0.70
     Davidson diagonalization with overlap
     ethr =  1.36E-04,  avg # of iterations =  3.6

     negative rho (up, down):  3.244E-04 9.200E-05

     total cpu time spent up to now is      933.6 secs

     total energy              =     -21.13729680 Ry
     estimated scf accuracy    <       0.00306732 Ry

     total magnetization       =     1.23 Bohr mag/cell
     absolute magnetization    =     2.04 Bohr mag/cell

     iteration # 53     ecut=    60.00 Ry     beta= 0.70
     Davidson diagonalization with overlap
     ethr =  5.11E-05,  avg # of iterations =  4.9

     negative rho (up, down):  1.962E-03 8.991E-05

     total cpu time spent up to now is      951.6 secs

     total energy              =     -21.14211662 Ry
     estimated scf accuracy    <       0.25347176 Ry

     total magnetization       =     0.19 Bohr mag/cell
     absolute magnetization    =     2.05 Bohr mag/cell

     iteration # 54     ecut=    60.00 Ry     beta= 0.70
     Davidson diagonalization with overlap
     ethr =  5.11E-05,  avg # of iterations =  7.0

     negative rho (up, down):  2.235E-03 9.012E-05

     total cpu time spent up to now is      970.6 secs

     total energy              =     -21.14199420 Ry
     estimated scf accuracy    <       0.20471230 Ry

     total magnetization       =     0.29 Bohr mag/cell
     absolute magnetization    =     2.05 Bohr mag/cell

     iteration # 55     ecut=    60.00 Ry     beta= 0.70
     Davidson diagonalization with overlap
     ethr =  5.11E-05,  avg # of iterations =  1.3

     negative rho (up, down):  1.929E-03 8.999E-05

     total cpu time spent up to now is      986.6 secs

     total energy              =     -21.14552663 Ry
     estimated scf accuracy    <       0.15189847 Ry

     total magnetization       =     0.43 Bohr mag/cell
     absolute magnetization    =     2.05 Bohr mag/cell

     iteration # 56     ecut=    60.00 Ry     beta= 0.70
     Davidson diagonalization with overlap
     ethr =  5.11E-05,  avg # of iterations =  1.5

     negative rho (up, down):  5.408E-04 9.013E-05

     total cpu time spent up to now is     1002.6 secs

     total energy              =     -21.13053035 Ry
     estimated scf accuracy    <       0.33427466 Ry

     total magnetization       =     0.00 Bohr mag/cell
     absolute magnetization    =     2.05 Bohr mag/cell

     iteration # 57     ecut=    60.00 Ry     beta= 0.70
     Davidson diagonalization with overlap
     ethr =  5.11E-05,  avg # of iterations =  6.6

     negative rho (up, down):  2.030E-03 8.951E-05

     total cpu time spent up to now is     1021.7 secs

     total energy              =     -21.13835634 Ry
     estimated scf accuracy    <       0.00181222 Ry

     total magnetization       =     1.27 Bohr mag/cell
     absolute magnetization    =     2.04 Bohr mag/cell

     iteration # 58     ecut=    60.00 Ry     beta= 0.70
     Davidson diagonalization with overlap
     ethr =  3.02E-05,  avg # of iterations =  7.2

     negative rho (up, down):  5.487E-04 8.957E-05

     total cpu time spent up to now is     1041.2 secs

     total energy              =     -21.13477725 Ry
     estimated scf accuracy    <       0.01662272 Ry

     total magnetization       =     1.05 Bohr mag/cell
     absolute magnetization    =     2.04 Bohr mag/cell

     iteration # 59     ecut=    60.00 Ry     beta= 0.70
     Davidson diagonalization with overlap
     ethr =  3.02E-05,  avg # of iterations =  7.2

     negative rho (up, down):  7.093E-04 8.975E-05

     total cpu time spent up to now is     1060.8 secs

     total energy              =     -21.13663308 Ry
     estimated scf accuracy    <       0.01147752 Ry

     total magnetization       =     1.61 Bohr mag/cell
     absolute magnetization    =     2.04 Bohr mag/cell

     iteration # 60     ecut=    60.00 Ry     beta= 0.70
     Davidson diagonalization with overlap
     ethr =  3.02E-05,  avg # of iterations =  2.0

     negative rho (up, down):  5.413E-04 8.976E-05

     total cpu time spent up to now is     1077.1 secs

     total energy              =     -21.13704098 Ry
     estimated scf accuracy    <       0.02360436 Ry

     total magnetization       =     1.72 Bohr mag/cell
     absolute magnetization    =     2.04 Bohr mag/cell

     iteration # 61     ecut=    60.00 Ry     beta= 0.70
     Davidson diagonalization with overlap
     ethr =  3.02E-05,  avg # of iterations =  1.6

     negative rho (up, down):  3.936E-04 3.078E-04

     total cpu time spent up to now is     1093.4 secs

     total energy              =     -21.13628174 Ry
     estimated scf accuracy    <       0.05385916 Ry

     total magnetization       =     1.90 Bohr mag/cell
     absolute magnetization    =     2.04 Bohr mag/cell

     iteration # 62     ecut=    60.00 Ry     beta= 0.70
     Davidson diagonalization with overlap
     c_bands:  1 eigenvalues not converged
     c_bands:  1 eigenvalues not converged
     ethr =  3.02E-05,  avg # of iterations =  7.9

     negative rho (up, down):  8.805E-04 9.027E-05

     total cpu time spent up to now is     1112.5 secs

     total energy              =     -21.13711965 Ry
     estimated scf accuracy    <       0.03459314 Ry

     total magnetization       =     1.80 Bohr mag/cell
     absolute magnetization    =     2.04 Bohr mag/cell

     iteration # 63     ecut=    60.00 Ry     beta= 0.70
     Davidson diagonalization with overlap
     c_bands:  1 eigenvalues not converged
     ethr =  3.02E-05,  avg # of iterations =  8.1

     negative rho (up, down):  2.247E-04 1.763E-03

     total cpu time spent up to now is     1132.6 secs

     total energy              =     -21.13483331 Ry
     estimated scf accuracy    <       0.06898560 Ry

     total magnetization       =     0.73 Bohr mag/cell
     absolute magnetization    =     2.04 Bohr mag/cell

     iteration # 64     ecut=    60.00 Ry     beta= 0.70
     Davidson diagonalization with overlap
     ethr =  3.02E-05,  avg # of iterations =  9.2

     negative rho (up, down):  2.311E-04 1.673E-03

     total cpu time spent up to now is     1153.6 secs

     total energy              =     -21.13630189 Ry
     estimated scf accuracy    <       0.01637722 Ry

     total magnetization       =     1.07 Bohr mag/cell
     absolute magnetization    =     2.04 Bohr mag/cell

     iteration # 65     ecut=    60.00 Ry     beta= 0.70
     Davidson diagonalization with overlap
     ethr =  3.02E-05,  avg # of iterations =  1.0

     negative rho (up, down):  2.354E-04 1.447E-03

     total cpu time spent up to now is     1169.5 secs

     total energy              =     -21.13673565 Ry
     estimated scf accuracy    <       0.03224238 Ry

     total magnetization       =     0.95 Bohr mag/cell
     absolute magnetization    =     2.04 Bohr mag/cell

     iteration # 66     ecut=    60.00 Ry     beta= 0.70
     Davidson diagonalization with overlap
     ethr =  3.02E-05,  avg # of iterations =  1.0

     negative rho (up, down):  3.365E-04 9.231E-05

     total cpu time spent up to now is     1185.4 secs

     total energy              =     -21.13749948 Ry
     estimated scf accuracy    <       0.05782783 Ry

     total magnetization       =     0.80 Bohr mag/cell
     absolute magnetization    =     2.04 Bohr mag/cell

     iteration # 67     ecut=    60.00 Ry     beta= 0.70
     Davidson diagonalization with overlap
     ethr =  3.02E-05,  avg # of iterations =  6.2

     negative rho (up, down):  2.092E-04 7.369E-03

     total cpu time spent up to now is     1204.4 secs

     total energy              =     -21.13563172 Ry
     estimated scf accuracy    <       0.01401752 Ry

     total magnetization       =     1.08 Bohr mag/cell
     absolute magnetization    =     2.04 Bohr mag/cell

     iteration # 68     ecut=    60.00 Ry     beta= 0.70
     Davidson diagonalization with overlap
     ethr =  3.02E-05,  avg # of iterations =  8.0

     negative rho (up, down):  2.381E-04 1.739E-03

     total cpu time spent up to now is     1225.0 secs

     total energy              =     -21.13377909 Ry
     estimated scf accuracy    <       0.11543157 Ry

     total magnetization       =     0.58 Bohr mag/cell
     absolute magnetization    =     2.05 Bohr mag/cell

     iteration # 69     ecut=    60.00 Ry     beta= 0.70
     Davidson diagonalization with overlap
     ethr =  3.02E-05,  avg # of iterations =  7.2

     negative rho (up, down):  4.476E-04 1.159E-04

     total cpu time spent up to now is     1244.0 secs

     total energy              =     -21.13901061 Ry
     estimated scf accuracy    <       0.00143135 Ry

     total magnetization       =     1.29 Bohr mag/cell
     absolute magnetization    =     2.04 Bohr mag/cell

     iteration # 70     ecut=    60.00 Ry     beta= 0.70
     Davidson diagonalization with overlap
     ethr =  2.39E-05,  avg # of iterations = 11.1

     negative rho (up, down):  4.109E-04 9.778E-05

     total cpu time spent up to now is     1266.7 secs

     total energy              =     -21.14107120 Ry
     estimated scf accuracy    <       0.08475195 Ry

     total magnetization       =     0.66 Bohr mag/cell
     absolute magnetization    =     2.04 Bohr mag/cell

     iteration # 71     ecut=    60.00 Ry     beta= 0.70
     Davidson diagonalization with overlap
     ethr =  2.39E-05,  avg # of iterations =  3.6

     negative rho (up, down):  4.975E-04 9.669E-05

     total cpu time spent up to now is     1283.7 secs

     total energy              =     -21.13906532 Ry
     estimated scf accuracy    <       0.12831093 Ry

     total magnetization       =     0.50 Bohr mag/cell
     absolute magnetization    =     2.05 Bohr mag/cell

     iteration # 72     ecut=    60.00 Ry     beta= 0.70
     Davidson diagonalization with overlap
     ethr =  2.39E-05,  avg # of iterations =  3.6

     negative rho (up, down):  5.061E-04 9.346E-05

     total cpu time spent up to now is     1300.4 secs

     total energy              =     -21.13937275 Ry
     estimated scf accuracy    <       0.02051218 Ry

     total magnetization       =     1.00 Bohr mag/cell
     absolute magnetization    =     2.04 Bohr mag/cell

     iteration # 73     ecut=    60.00 Ry     beta= 0.70
     Davidson diagonalization with overlap
     ethr =  2.39E-05,  avg # of iterations =  2.6

     negative rho (up, down):  5.886E-04 9.130E-05

     total cpu time spent up to now is     1317.2 secs

     total energy              =     -21.13947266 Ry
     estimated scf accuracy    <       0.00049232 Ry

     total magnetization       =     1.36 Bohr mag/cell
     absolute magnetization    =     2.04 Bohr mag/cell

     iteration # 74     ecut=    60.00 Ry     beta= 0.70
     Davidson diagonalization with overlap
     ethr =  8.21E-06,  avg # of iterations =  8.8

     negative rho (up, down):  4.773E-04 9.107E-05

     total cpu time spent up to now is     1338.0 secs

     total energy              =     -21.13940055 Ry
     estimated scf accuracy    <       0.02241351 Ry

     total magnetization       =     1.68 Bohr mag/cell
     absolute magnetization    =     2.04 Bohr mag/cell

     iteration # 75     ecut=    60.00 Ry     beta= 0.70
     Davidson diagonalization with overlap
     ethr =  8.21E-06,  avg # of iterations =  3.3

     negative rho (up, down):  4.670E-04 9.142E-05

     total cpu time spent up to now is     1354.7 secs

     total energy              =     -21.13895537 Ry
     estimated scf accuracy    <       0.00348274 Ry

     total magnetization       =     1.47 Bohr mag/cell
     absolute magnetization    =     2.04 Bohr mag/cell

     iteration # 76     ecut=    60.00 Ry     beta= 0.70
     Davidson diagonalization with overlap
     ethr =  8.21E-06,  avg # of iterations =  5.9

     negative rho (up, down):  4.379E-04 9.158E-05

     total cpu time spent up to now is     1373.1 secs

     total energy              =     -21.13806697 Ry
     estimated scf accuracy    <       0.00203149 Ry

     total magnetization       =     1.43 Bohr mag/cell
     absolute magnetization    =     2.04 Bohr mag/cell

     iteration # 77     ecut=    60.00 Ry     beta= 0.70
     Davidson diagonalization with overlap
     ethr =  8.21E-06,  avg # of iterations =  7.1

     negative rho (up, down):  3.852E-04 3.436E-03

     total cpu time spent up to now is     1393.5 secs

     total energy              =     -21.13765070 Ry
     estimated scf accuracy    <       0.00028914 Ry

     total magnetization       =     1.32 Bohr mag/cell
     absolute magnetization    =     2.04 Bohr mag/cell

     iteration # 78     ecut=    60.00 Ry     beta= 0.70
     Davidson diagonalization with overlap
     ethr =  4.82E-06,  avg # of iterations = 13.6

     negative rho (up, down):  2.726E-04 3.946E-04

     total cpu time spent up to now is     1416.9 secs

     total energy              =     -21.13865450 Ry
     estimated scf accuracy    <       0.09535698 Ry

     total magnetization       =     0.62 Bohr mag/cell
     absolute magnetization    =     2.05 Bohr mag/cell

     iteration # 79     ecut=    60.00 Ry     beta= 0.70
     Davidson diagonalization with overlap
     c_bands:  2 eigenvalues not converged
     c_bands:  1 eigenvalues not converged
     ethr =  4.82E-06,  avg # of iterations = 13.4

     negative rho (up, down):  3.470E-04 9.082E-05

     total cpu time spent up to now is     1441.5 secs

     total energy              =     -21.13131412 Ry
     estimated scf accuracy    <       0.13561891 Ry

     total magnetization       =     0.49 Bohr mag/cell
     absolute magnetization    =     2.05 Bohr mag/cell

     iteration # 80     ecut=    60.00 Ry     beta= 0.70
     Davidson diagonalization with overlap
     c_bands:  2 eigenvalues not converged
     ethr =  4.82E-06,  avg # of iterations = 17.4

     negative rho (up, down):  3.193E-04 1.153E-04

     total cpu time spent up to now is     1468.5 secs

     total energy              =     -21.13640524 Ry
     estimated scf accuracy    <       0.00801461 Ry

     total magnetization       =     1.56 Bohr mag/cell
     absolute magnetization    =     2.04 Bohr mag/cell

     iteration # 81     ecut=    60.00 Ry     beta= 0.70
     Davidson diagonalization with overlap
     ethr =  4.82E-06,  avg # of iterations =  5.3

     negative rho (up, down):  3.426E-04 9.070E-05

     total cpu time spent up to now is     1486.5 secs

     total energy              =     -21.13733368 Ry
     estimated scf accuracy    <       0.00305000 Ry

     total magnetization       =     1.48 Bohr mag/cell
     absolute magnetization    =     2.04 Bohr mag/cell

     iteration # 82     ecut=    60.00 Ry     beta= 0.70
     Davidson diagonalization with overlap
     ethr =  4.82E-06,  avg # of iterations =  6.2

     negative rho (up, down):  3.175E-04 9.094E-05

     total cpu time spent up to now is     1506.0 secs

     total energy              =     -21.13694339 Ry
     estimated scf accuracy    <       0.00753404 Ry

     total magnetization       =     1.55 Bohr mag/cell
     absolute magnetization    =     2.04 Bohr mag/cell

     iteration # 83     ecut=    60.00 Ry     beta= 0.70
     Davidson diagonalization with overlap
     ethr =  4.82E-06,  avg # of iterations =  7.3

     negative rho (up, down):  3.431E-04 2.435E-04

     total cpu time spent up to now is     1526.5 secs

     total energy              =     -21.13667857 Ry
     estimated scf accuracy    <       0.01077549 Ry

     total magnetization       =     1.59 Bohr mag/cell
     absolute magnetization    =     2.04 Bohr mag/cell

     iteration # 84     ecut=    60.00 Ry     beta= 0.70
     Davidson diagonalization with overlap
     ethr =  4.82E-06,  avg # of iterations =  5.5

     negative rho (up, down):  3.411E-04 2.065E-04

     total cpu time spent up to now is     1545.6 secs

     total energy              =     -21.13714033 Ry
     estimated scf accuracy    <       0.00290427 Ry

     total magnetization       =     1.47 Bohr mag/cell
     absolute magnetization    =     2.04 Bohr mag/cell

     iteration # 85     ecut=    60.00 Ry     beta= 0.70
     Davidson diagonalization with overlap
     ethr =  4.82E-06,  avg # of iterations =  6.8

     negative rho (up, down):  3.109E-04 9.099E-05

     total cpu time spent up to now is     1565.3 secs

     total energy              =     -21.13677856 Ry
     estimated scf accuracy    <       0.00085086 Ry

     total magnetization       =     1.40 Bohr mag/cell
     absolute magnetization    =     2.04 Bohr mag/cell

     iteration # 86     ecut=    60.00 Ry     beta= 0.70
     Davidson diagonalization with overlap
     ethr =  4.82E-06,  avg # of iterations =  8.9

     negative rho (up, down):  3.027E-04 1.773E-04

     total cpu time spent up to now is     1587.3 secs

     total energy              =     -21.13616310 Ry
     estimated scf accuracy    <       0.00719972 Ry

     total magnetization       =     1.55 Bohr mag/cell
     absolute magnetization    =     2.04 Bohr mag/cell

     iteration # 87     ecut=    60.00 Ry     beta= 0.70
     Davidson diagonalization with overlap
     ethr =  4.82E-06,  avg # of iterations =  8.0

     negative rho (up, down):  3.024E-04 9.117E-05

     total cpu time spent up to now is     1608.0 secs

     total energy              =     -21.13683227 Ry
     estimated scf accuracy    <       0.00142957 Ry

     total magnetization       =     1.44 Bohr mag/cell
     absolute magnetization    =     2.04 Bohr mag/cell

     iteration # 88     ecut=    60.00 Ry     beta= 0.70
     Davidson diagonalization with overlap
     ethr =  4.82E-06,  avg # of iterations =  5.5

     negative rho (up, down):  3.264E-04 9.112E-05

     total cpu time spent up to now is     1627.2 secs

     total energy              =     -21.13732526 Ry
     estimated scf accuracy    <       0.00743993 Ry

     total magnetization       =     1.55 Bohr mag/cell
     absolute magnetization    =     2.04 Bohr mag/cell

     iteration # 89     ecut=    60.00 Ry     beta= 0.70
     Davidson diagonalization with overlap
     ethr =  4.82E-06,  avg # of iterations =  5.6

     negative rho (up, down):  3.119E-04 9.091E-05

     total cpu time spent up to now is     1646.2 secs

     total energy              =     -21.13685600 Ry
     estimated scf accuracy    <       0.00861925 Ry

     total magnetization       =     1.56 Bohr mag/cell
     absolute magnetization    =     2.04 Bohr mag/cell

     iteration # 90     ecut=    60.00 Ry     beta= 0.70
     Davidson diagonalization with overlap
     ethr =  4.82E-06,  avg # of iterations =  7.7

     negative rho (up, down):  2.801E-04 9.106E-05

     total cpu time spent up to now is     1667.9 secs

     total energy              =     -21.13639331 Ry
     estimated scf accuracy    <       0.00072964 Ry

     total magnetization       =     1.31 Bohr mag/cell
     absolute magnetization    =     2.04 Bohr mag/cell

     iteration # 91     ecut=    60.00 Ry     beta= 0.70
     Davidson diagonalization with overlap
     ethr =  4.82E-06,  avg # of iterations =  8.7

     negative rho (up, down):  2.709E-04 9.101E-05

     total cpu time spent up to now is     1689.7 secs

     total energy              =     -21.13710880 Ry
     estimated scf accuracy    <       0.01187993 Ry

     total magnetization       =     1.11 Bohr mag/cell
     absolute magnetization    =     2.04 Bohr mag/cell

     iteration # 92     ecut=    60.00 Ry     beta= 0.70
     Davidson diagonalization with overlap
     ethr =  4.82E-06,  avg # of iterations =  2.0

     negative rho (up, down):  2.681E-04 9.096E-05

     total cpu time spent up to now is     1705.9 secs

     total energy              =     -21.13725581 Ry
     estimated scf accuracy    <       0.01094839 Ry

     total magnetization       =     1.12 Bohr mag/cell
     absolute magnetization    =     2.04 Bohr mag/cell

     iteration # 93     ecut=    60.00 Ry     beta= 0.70
     Davidson diagonalization with overlap
     ethr =  4.82E-06,  avg # of iterations =  6.5

     negative rho (up, down):  2.563E-04 9.076E-05

     total cpu time spent up to now is     1725.6 secs

     total energy              =     -21.13580998 Ry
     estimated scf accuracy    <       0.04230696 Ry

     total magnetization       =     0.88 Bohr mag/cell
     absolute magnetization    =     2.04 Bohr mag/cell

     iteration # 94     ecut=    60.00 Ry     beta= 0.70
     Davidson diagonalization with overlap
     c_bands:  1 eigenvalues not converged
     c_bands:  1 eigenvalues not converged
     ethr =  4.82E-06,  avg # of iterations = 12.2

     negative rho (up, down):  2.514E-04 5.586E-04

     total cpu time spent up to now is     1749.0 secs

     total energy              =     -21.13540686 Ry
     estimated scf accuracy    <       0.00976823 Ry

     total magnetization       =     1.13 Bohr mag/cell
     absolute magnetization    =     2.04 Bohr mag/cell

     iteration # 95     ecut=    60.00 Ry     beta= 0.70
     Davidson diagonalization with overlap
     c_bands:  1 eigenvalues not converged
     c_bands:  1 eigenvalues not converged
     ethr =  4.82E-06,  avg # of iterations = 12.4

     negative rho (up, down):  2.585E-04 9.075E-05

     total cpu time spent up to now is     1772.0 secs

     total energy              =     -21.13641057 Ry
     estimated scf accuracy    <       0.00025525 Ry

     total magnetization       =     1.34 Bohr mag/cell
     absolute magnetization    =     2.04 Bohr mag/cell

     iteration # 96     ecut=    60.00 Ry     beta= 0.70
     Davidson diagonalization with overlap
     c_bands:  1 eigenvalues not converged
     ethr =  4.25E-06,  avg # of iterations = 10.1

     negative rho (up, down):  2.536E-04 9.477E-04

     total cpu time spent up to now is     1795.0 secs

     total energy              =     -21.13528734 Ry
     estimated scf accuracy    <       0.00761677 Ry

     total magnetization       =     1.15 Bohr mag/cell
     absolute magnetization    =     2.04 Bohr mag/cell

     iteration # 97     ecut=    60.00 Ry     beta= 0.70
     Davidson diagonalization with overlap
     ethr =  4.25E-06,  avg # of iterations =  8.1

     negative rho (up, down):  2.574E-04 7.003E-04

     total cpu time spent up to now is     1816.8 secs

     total energy              =     -21.13645026 Ry
     estimated scf accuracy    <       0.00027727 Ry

     total magnetization       =     1.32 Bohr mag/cell
     absolute magnetization    =     2.04 Bohr mag/cell

     iteration # 98     ecut=    60.00 Ry     beta= 0.70
     Davidson diagonalization with overlap
     ethr =  4.25E-06,  avg # of iterations =  2.1

     negative rho (up, down):  2.518E-04 1.455E-02

     total cpu time spent up to now is     1833.5 secs

     total energy              =     -21.13633080 Ry
     estimated scf accuracy    <       0.00031793 Ry

     total magnetization       =     1.32 Bohr mag/cell
     absolute magnetization    =     2.04 Bohr mag/cell

     iteration # 99     ecut=    60.00 Ry     beta= 0.70
     Davidson diagonalization with overlap
     c_bands:  2 eigenvalues not converged
     c_bands:  1 eigenvalues not converged
     ethr =  4.25E-06,  avg # of iterations = 15.4

     negative rho (up, down):  2.460E-04 1.477E-02

     total cpu time spent up to now is     1857.7 secs

     total energy              =     -21.13661658 Ry
     estimated scf accuracy    <       0.00977056 Ry

     total magnetization       =     1.12 Bohr mag/cell
     absolute magnetization    =     2.04 Bohr mag/cell

     iteration #100     ecut=    60.00 Ry     beta= 0.70
     Davidson diagonalization with overlap
     ethr =  4.25E-06,  avg # of iterations =  4.1

     negative rho (up, down):  2.489E-04 7.230E-03

     total cpu time spent up to now is     1874.7 secs

     total energy              =     -21.13629284 Ry
     estimated scf accuracy    <       0.01192179 Ry

     total magnetization       =     1.10 Bohr mag/cell
     absolute magnetization    =     2.04 Bohr mag/cell

     iteration #101     ecut=    60.00 Ry     beta= 0.70
     Davidson diagonalization with overlap
     ethr =  4.25E-06,  avg # of iterations =  6.8

     negative rho (up, down):  2.565E-04 9.179E-05

     total cpu time spent up to now is     1894.0 secs

     total energy              =     -21.13636697 Ry
     estimated scf accuracy    <       0.00176285 Ry

     total magnetization       =     1.26 Bohr mag/cell
     absolute magnetization    =     2.04 Bohr mag/cell

     iteration #102     ecut=    60.00 Ry     beta= 0.70
     Davidson diagonalization with overlap
     c_bands:  1 eigenvalues not converged
     ethr =  4.25E-06,  avg # of iterations = 14.8

     negative rho (up, down):  2.604E-04 7.706E-04

     total cpu time spent up to now is     1918.1 secs

     total energy              =     -21.13628722 Ry
     estimated scf accuracy    <       0.00014969 Ry

     total magnetization       =     1.36 Bohr mag/cell
     absolute magnetization    =     2.04 Bohr mag/cell

     iteration #103     ecut=    60.00 Ry     beta= 0.70
     Davidson diagonalization with overlap
     ethr =  2.49E-06,  avg # of iterations =  7.8

     negative rho (up, down):  2.687E-04 1.739E-04

     total cpu time spent up to now is     1938.5 secs

     total energy              =     -21.13636690 Ry
     estimated scf accuracy    <       0.00231695 Ry

     total magnetization       =     1.46 Bohr mag/cell
     absolute magnetization    =     2.04 Bohr mag/cell

     iteration #104     ecut=    60.00 Ry     beta= 0.70
     Davidson diagonalization with overlap
     ethr =  2.49E-06,  avg # of iterations =  7.0

     negative rho (up, down):  2.655E-04 9.084E-05

     total cpu time spent up to now is     1958.3 secs

     total energy              =     -21.13654086 Ry
     estimated scf accuracy    <       0.00022871 Ry

     total magnetization       =     1.35 Bohr mag/cell
     absolute magnetization    =     2.04 Bohr mag/cell

     iteration #105     ecut=    60.00 Ry     beta= 0.70
     Davidson diagonalization with overlap
     ethr =  2.49E-06,  avg # of iterations =  7.6

     negative rho (up, down):  2.653E-04 9.061E-05

     total cpu time spent up to now is     1978.5 secs

     total energy              =     -21.13662067 Ry
     estimated scf accuracy    <       0.00011336 Ry

     total magnetization       =     1.36 Bohr mag/cell
     absolute magnetization    =     2.04 Bohr mag/cell

     iteration #106     ecut=    60.00 Ry     beta= 0.70
     Davidson diagonalization with overlap
     ethr =  1.89E-06,  avg # of iterations =  3.5

     negative rho (up, down):  2.649E-04 9.042E-05

     total cpu time spent up to now is     1996.3 secs

     total energy              =     -21.13665799 Ry
     estimated scf accuracy    <       0.00026983 Ry

     total magnetization       =     1.33 Bohr mag/cell
     absolute magnetization    =     2.04 Bohr mag/cell

     iteration #107     ecut=    60.00 Ry     beta= 0.70
     Davidson diagonalization with overlap
     ethr =  1.89E-06,  avg # of iterations =  9.1

     negative rho (up, down):  2.638E-04 9.167E-05

     total cpu time spent up to now is     2017.6 secs

     total energy              =     -21.13669576 Ry
     estimated scf accuracy    <       0.00136139 Ry

     total magnetization       =     1.28 Bohr mag/cell
     absolute magnetization    =     2.04 Bohr mag/cell

     iteration #108     ecut=    60.00 Ry     beta= 0.70
     Davidson diagonalization with overlap
     ethr =  1.89E-06,  avg # of iterations = 11.7

     negative rho (up, down):  2.553E-04 9.968E-03

     total cpu time spent up to now is     2040.6 secs

     total energy              =     -21.13311393 Ry
     estimated scf accuracy    <       0.00422854 Ry

     total magnetization       =     1.21 Bohr mag/cell
     absolute magnetization    =     2.04 Bohr mag/cell

     iteration #109     ecut=    60.00 Ry     beta= 0.70
     Davidson diagonalization with overlap
     c_bands:  2 eigenvalues not converged
     c_bands:  1 eigenvalues not converged
     c_bands:  1 eigenvalues not converged
     ethr =  1.89E-06,  avg # of iterations = 19.4

     negative rho (up, down):  2.611E-04 1.164E-02

     total cpu time spent up to now is     2069.7 secs

     total energy              =     -21.13658086 Ry
     estimated scf accuracy    <       0.00074152 Ry

     total magnetization       =     1.38 Bohr mag/cell
     absolute magnetization    =     2.04 Bohr mag/cell

     iteration #110     ecut=    60.00 Ry     beta= 0.70
     Davidson diagonalization with overlap
     ethr =  1.89E-06,  avg # of iterations = 10.2

     negative rho (up, down):  2.642E-04 1.439E-02

     total cpu time spent up to now is     2089.0 secs

     total energy              =     -21.13664891 Ry
     estimated scf accuracy    <       0.00074060 Ry

     total magnetization       =     1.38 Bohr mag/cell
     absolute magnetization    =     2.04 Bohr mag/cell

     iteration #111     ecut=    60.00 Ry     beta= 0.70
     Davidson diagonalization with overlap
     ethr =  1.89E-06,  avg # of iterations =  6.6

     negative rho (up, down):  2.656E-04 1.804E-04

     total cpu time spent up to now is     2109.1 secs

     total energy              =     -21.13615734 Ry
     estimated scf accuracy    <       0.00060124 Ry

     total magnetization       =     1.36 Bohr mag/cell
     absolute magnetization    =     2.04 Bohr mag/cell

     iteration #112     ecut=    60.00 Ry     beta= 0.70
     Davidson diagonalization with overlap
     c_bands:  1 eigenvalues not converged
     c_bands:  1 eigenvalues not converged
     ethr =  1.89E-06,  avg # of iterations = 18.9

     negative rho (up, down):  2.633E-04 1.077E-02

     total cpu time spent up to now is     2136.6 secs

     total energy              =     -21.13627632 Ry
     estimated scf accuracy    <       0.00021450 Ry

     total magnetization       =     1.32 Bohr mag/cell
     absolute magnetization    =     2.04 Bohr mag/cell

     iteration #113     ecut=    60.00 Ry     beta= 0.70
     Davidson diagonalization with overlap
     c_bands:  1 eigenvalues not converged
     ethr =  1.89E-06,  avg # of iterations = 17.2

     negative rho (up, down):  2.627E-04 1.113E-02

     total cpu time spent up to now is     2162.8 secs

     total energy              =     -21.13673607 Ry
     estimated scf accuracy    <       0.00028655 Ry

     total magnetization       =     1.33 Bohr mag/cell
     absolute magnetization    =     2.04 Bohr mag/cell

     iteration #114     ecut=    60.00 Ry     beta= 0.70
     Davidson diagonalization with overlap
     ethr =  1.89E-06,  avg # of iterations = 11.6

     negative rho (up, down):  2.611E-04 1.271E-02

     total cpu time spent up to now is     2186.5 secs

     total energy              =     -21.13717073 Ry
     estimated scf accuracy    <       0.00050149 Ry

     total magnetization       =     1.30 Bohr mag/cell
     absolute magnetization    =     2.04 Bohr mag/cell

     iteration #115     ecut=    60.00 Ry     beta= 0.70
     Davidson diagonalization with overlap
     ethr =  1.89E-06,  avg # of iterations =  6.5

     negative rho (up, down):  2.592E-04 2.018E-04

     total cpu time spent up to now is     2206.0 secs

     total energy              =     -21.13620891 Ry
     estimated scf accuracy    <       0.00114083 Ry

     total magnetization       =     1.27 Bohr mag/cell
     absolute magnetization    =     2.04 Bohr mag/cell

     iteration #116     ecut=    60.00 Ry     beta= 0.70
     Davidson diagonalization with overlap
     c_bands:  1 eigenvalues not converged
     ethr =  1.89E-06,  avg # of iterations = 18.2

     negative rho (up, down):  2.622E-04 9.055E-05

     total cpu time spent up to now is     2232.8 secs

     total energy              =     -21.13695786 Ry
     estimated scf accuracy    <       0.00004366 Ry

     total magnetization       =     1.36 Bohr mag/cell
     absolute magnetization    =     2.04 Bohr mag/cell

     iteration #117     ecut=    60.00 Ry     beta= 0.70
     Davidson diagonalization with overlap
     ethr =  7.28E-07,  avg # of iterations = 10.7

     negative rho (up, down):  2.641E-04 9.026E-05

     total cpu time spent up to now is     2256.7 secs

     total energy              =     -21.13704850 Ry
     estimated scf accuracy    <       0.00013587 Ry

     total magnetization       =     1.38 Bohr mag/cell
     absolute magnetization    =     2.04 Bohr mag/cell

     iteration #118     ecut=    60.00 Ry     beta= 0.70
     Davidson diagonalization with overlap
     ethr =  7.28E-07,  avg # of iterations =  5.8

     negative rho (up, down):  2.640E-04 9.028E-05

     total cpu time spent up to now is     2277.0 secs

     total energy              =     -21.13716814 Ry
     estimated scf accuracy    <       0.00004502 Ry

     total magnetization       =     1.36 Bohr mag/cell
     absolute magnetization    =     2.04 Bohr mag/cell

     iteration #119     ecut=    60.00 Ry     beta= 0.70
     Davidson diagonalization with overlap
     ethr =  7.28E-07,  avg # of iterations =  1.0

     negative rho (up, down):  2.637E-04 9.031E-05

     total cpu time spent up to now is     2292.9 secs

     total energy              =     -21.13717273 Ry
     estimated scf accuracy    <       0.00001792 Ry

     total magnetization       =     1.36 Bohr mag/cell
     absolute magnetization    =     2.04 Bohr mag/cell

     iteration #120     ecut=    60.00 Ry     beta= 0.70
     Davidson diagonalization with overlap
     ethr =  2.99E-07,  avg # of iterations =  4.0

     negative rho (up, down):  2.636E-04 9.032E-05

     total cpu time spent up to now is     2310.9 secs

     total energy              =     -21.13716916 Ry
     estimated scf accuracy    <       0.00002328 Ry

     total magnetization       =     1.36 Bohr mag/cell
     absolute magnetization    =     2.04 Bohr mag/cell

     iteration #121     ecut=    60.00 Ry     beta= 0.70
     Davidson diagonalization with overlap
     ethr =  2.99E-07,  avg # of iterations =  6.0

     negative rho (up, down):  2.642E-04 9.038E-05

     total cpu time spent up to now is     2330.8 secs

     total energy              =     -21.13721150 Ry
     estimated scf accuracy    <       0.00007263 Ry

     total magnetization       =     1.37 Bohr mag/cell
     absolute magnetization    =     2.04 Bohr mag/cell

     iteration #122     ecut=    60.00 Ry     beta= 0.70
     Davidson diagonalization with overlap
     ethr =  2.99E-07,  avg # of iterations =  3.3

     negative rho (up, down):  2.638E-04 9.032E-05

     total cpu time spent up to now is     2348.1 secs

     total energy              =     -21.13711784 Ry
     estimated scf accuracy    <       0.00001562 Ry

     total magnetization       =     1.36 Bohr mag/cell
     absolute magnetization    =     2.04 Bohr mag/cell

     iteration #123     ecut=    60.00 Ry     beta= 0.70
     Davidson diagonalization with overlap
     ethr =  2.60E-07,  avg # of iterations =  5.7

     negative rho (up, down):  2.633E-04 9.038E-05

     total cpu time spent up to now is     2367.9 secs

     total energy              =     -21.13717524 Ry
     estimated scf accuracy    <       0.00001101 Ry

     total magnetization       =     1.35 Bohr mag/cell
     absolute magnetization    =     2.04 Bohr mag/cell

     iteration #124     ecut=    60.00 Ry     beta= 0.70
     Davidson diagonalization with overlap
     ethr =  1.84E-07,  avg # of iterations =  4.0

     negative rho (up, down):  2.633E-04 9.043E-05

     total cpu time spent up to now is     2385.6 secs

     total energy              =     -21.13719244 Ry
     estimated scf accuracy    <       0.00000676 Ry

     total magnetization       =     1.35 Bohr mag/cell
     absolute magnetization    =     2.04 Bohr mag/cell

     iteration #125     ecut=    60.00 Ry     beta= 0.70
     Davidson diagonalization with overlap
     ethr =  1.13E-07,  avg # of iterations =  4.1

     negative rho (up, down):  2.631E-04 9.052E-05

     total cpu time spent up to now is     2402.8 secs

     total energy              =     -21.13719881 Ry
     estimated scf accuracy    <       0.00000355 Ry

     total magnetization       =     1.35 Bohr mag/cell
     absolute magnetization    =     2.04 Bohr mag/cell

     iteration #126     ecut=    60.00 Ry     beta= 0.70
     Davidson diagonalization with overlap
     ethr =  5.91E-08,  avg # of iterations =  5.0

     negative rho (up, down):  2.630E-04 9.096E-05

     total cpu time spent up to now is     2422.0 secs

     total energy              =     -21.13706760 Ry
     estimated scf accuracy    <       0.00000210 Ry

     total magnetization       =     1.35 Bohr mag/cell
     absolute magnetization    =     2.04 Bohr mag/cell

     iteration #127     ecut=    60.00 Ry     beta= 0.70
     Davidson diagonalization with overlap
     ethr =  3.49E-08,  avg # of iterations = 11.8

     negative rho (up, down):  2.626E-04 9.079E-05

     total cpu time spent up to now is     2446.2 secs

     total energy              =     -21.13728403 Ry
     estimated scf accuracy    <       0.00000983 Ry

     total magnetization       =     1.34 Bohr mag/cell
     absolute magnetization    =     2.04 Bohr mag/cell

     iteration #128     ecut=    60.00 Ry     beta= 0.70
     Davidson diagonalization with overlap
     ethr =  3.49E-08,  avg # of iterations =  4.6

     negative rho (up, down):  2.626E-04 9.082E-05

     total cpu time spent up to now is     2463.9 secs

     total energy              =     -21.13721347 Ry
     estimated scf accuracy    <       0.00000419 Ry

     total magnetization       =     1.34 Bohr mag/cell
     absolute magnetization    =     2.04 Bohr mag/cell

     iteration #129     ecut=    60.00 Ry     beta= 0.70
     Davidson diagonalization with overlap
     ethr =  3.49E-08,  avg # of iterations =  6.1

     negative rho (up, down):  2.624E-04 9.062E-05

     total cpu time spent up to now is     2483.3 secs

     total energy              =     -21.13723077 Ry
     estimated scf accuracy    <       0.00000914 Ry

     total magnetization       =     1.34 Bohr mag/cell
     absolute magnetization    =     2.04 Bohr mag/cell

     iteration #130     ecut=    60.00 Ry     beta= 0.70
     Davidson diagonalization with overlap
     ethr =  3.49E-08,  avg # of iterations =  6.2

     negative rho (up, down):  2.628E-04 9.077E-05

     total cpu time spent up to now is     2502.9 secs

     total energy              =     -21.13724484 Ry
     estimated scf accuracy    <       0.00000189 Ry

     total magnetization       =     1.35 Bohr mag/cell
     absolute magnetization    =     2.04 Bohr mag/cell

     iteration #131     ecut=    60.00 Ry     beta= 0.70
     Davidson diagonalization with overlap
     ethr =  3.15E-08,  avg # of iterations =  5.5

     negative rho (up, down):  2.630E-04 9.076E-05

     total cpu time spent up to now is     2521.9 secs

     total energy              =     -21.13726288 Ry
     estimated scf accuracy    <       0.00000266 Ry

     total magnetization       =     1.35 Bohr mag/cell
     absolute magnetization    =     2.04 Bohr mag/cell

     iteration #132     ecut=    60.00 Ry     beta= 0.70
     Davidson diagonalization with overlap
     ethr =  3.15E-08,  avg # of iterations =  4.5

     negative rho (up, down):  2.631E-04 9.070E-05

     total cpu time spent up to now is     2539.4 secs

     total energy              =     -21.13726625 Ry
     estimated scf accuracy    <       0.00000282 Ry

     total magnetization       =     1.35 Bohr mag/cell
     absolute magnetization    =     2.04 Bohr mag/cell

     iteration #133     ecut=    60.00 Ry     beta= 0.70
     Davidson diagonalization with overlap
     ethr =  3.15E-08,  avg # of iterations =  3.8

     negative rho (up, down):  2.633E-04 9.072E-05

     total cpu time spent up to now is     2556.4 secs

     total energy              =     -21.13726901 Ry
     estimated scf accuracy    <       0.00001039 Ry

     total magnetization       =     1.35 Bohr mag/cell
     absolute magnetization    =     2.04 Bohr mag/cell

     iteration #134     ecut=    60.00 Ry     beta= 0.70
     Davidson diagonalization with overlap
     ethr =  3.15E-08,  avg # of iterations =  4.2

     negative rho (up, down):  2.631E-04 9.062E-05

     total cpu time spent up to now is     2573.6 secs

     total energy              =     -21.13719445 Ry
     estimated scf accuracy    <       0.00000195 Ry

     total magnetization       =     1.35 Bohr mag/cell
     absolute magnetization    =     2.04 Bohr mag/cell

     iteration #135     ecut=    60.00 Ry     beta= 0.70
     Davidson diagonalization with overlap
     ethr =  3.15E-08,  avg # of iterations =  6.8

     negative rho (up, down):  2.630E-04 9.074E-05

     total cpu time spent up to now is     2594.8 secs

     total energy              =     -21.13730238 Ry
     estimated scf accuracy    <       0.00000131 Ry

     total magnetization       =     1.35 Bohr mag/cell
     absolute magnetization    =     2.04 Bohr mag/cell

     iteration #136     ecut=    60.00 Ry     beta= 0.70
     Davidson diagonalization with overlap
     ethr =  2.19E-08,  avg # of iterations =  5.5

     negative rho (up, down):  2.629E-04 9.061E-05

     total cpu time spent up to now is     2614.4 secs

     total energy              =     -21.13732307 Ry
     estimated scf accuracy    <       0.00000109 Ry

     total magnetization       =     1.35 Bohr mag/cell
     absolute magnetization    =     2.04 Bohr mag/cell

     iteration #137     ecut=    60.00 Ry     beta= 0.70
     Davidson diagonalization with overlap
     ethr =  1.82E-08,  avg # of iterations =  5.5

     negative rho (up, down):  2.630E-04 9.066E-05

     total cpu time spent up to now is     2633.0 secs

     total energy              =     -21.13733680 Ry
     estimated scf accuracy    <       0.00000207 Ry

     total magnetization       =     1.35 Bohr mag/cell
     absolute magnetization    =     2.04 Bohr mag/cell

     iteration #138     ecut=    60.00 Ry     beta= 0.70
     Davidson diagonalization with overlap
     ethr =  1.82E-08,  avg # of iterations =  4.9

     negative rho (up, down):  2.630E-04 9.053E-05

     total cpu time spent up to now is     2651.6 secs

     total energy              =     -21.13731591 Ry
     estimated scf accuracy    <       0.00000109 Ry

     total magnetization       =     1.35 Bohr mag/cell
     absolute magnetization    =     2.04 Bohr mag/cell

     iteration #139     ecut=    60.00 Ry     beta= 0.70
     Davidson diagonalization with overlap
     ethr =  1.81E-08,  avg # of iterations =  6.6

     negative rho (up, down):  2.632E-04 9.056E-05

     total cpu time spent up to now is     2671.9 secs

     total energy              =     -21.13736679 Ry
     estimated scf accuracy    <       0.00000548 Ry

     total magnetization       =     1.35 Bohr mag/cell
     absolute magnetization    =     2.04 Bohr mag/cell

     iteration #140     ecut=    60.00 Ry     beta= 0.70
     Davidson diagonalization with overlap
     ethr =  1.81E-08,  avg # of iterations =  2.2

     negative rho (up, down):  2.632E-04 9.057E-05

     total cpu time spent up to now is     2688.3 secs

     total energy              =     -21.13736836 Ry
     estimated scf accuracy    <       0.00000463 Ry

     total magnetization       =     1.35 Bohr mag/cell
     absolute magnetization    =     2.04 Bohr mag/cell

     iteration #141     ecut=    60.00 Ry     beta= 0.70
     Davidson diagonalization with overlap
     ethr =  1.81E-08,  avg # of iterations =  3.2

     negative rho (up, down):  2.632E-04 9.181E-05

     total cpu time spent up to now is     2705.1 secs

     total energy              =     -21.13715691 Ry
     estimated scf accuracy    <       0.00000422 Ry

     total magnetization       =     1.35 Bohr mag/cell
     absolute magnetization    =     2.04 Bohr mag/cell

     iteration #142     ecut=    60.00 Ry     beta= 0.70
     Davidson diagonalization with overlap
     c_bands:  1 eigenvalues not converged
     ethr =  1.81E-08,  avg # of iterations = 13.6

     negative rho (up, down):  2.624E-04 9.079E-05

     total cpu time spent up to now is     2730.3 secs

     total energy              =     -21.13731286 Ry
     estimated scf accuracy    <       0.00002213 Ry

     total magnetization       =     1.33 Bohr mag/cell
     absolute magnetization    =     2.04 Bohr mag/cell

     iteration #143     ecut=    60.00 Ry     beta= 0.70
     Davidson diagonalization with overlap
     ethr =  1.81E-08,  avg # of iterations =  9.4

     negative rho (up, down):  2.627E-04 9.062E-05

     total cpu time spent up to now is     2752.4 secs

     total energy              =     -21.13734960 Ry
     estimated scf accuracy    <       0.00000095 Ry

     total magnetization       =     1.34 Bohr mag/cell
     absolute magnetization    =     2.04 Bohr mag/cell

     iteration #144     ecut=    60.00 Ry     beta= 0.70
     Davidson diagonalization with overlap
     ethr =  1.59E-08,  avg # of iterations =  6.1

     negative rho (up, down):  2.630E-04 9.070E-05

     total cpu time spent up to now is     2772.0 secs

     total energy              =     -21.13736344 Ry
     estimated scf accuracy    <       0.00000277 Ry

     total magnetization       =     1.35 Bohr mag/cell
     absolute magnetization    =     2.04 Bohr mag/cell

     iteration #145     ecut=    60.00 Ry     beta= 0.70
     Davidson diagonalization with overlap
     ethr =  1.59E-08,  avg # of iterations =  4.9

     negative rho (up, down):  2.629E-04 9.034E-05

     total cpu time spent up to now is     2789.5 secs

     total energy              =     -21.13731019 Ry
     estimated scf accuracy    <       0.00000122 Ry

     total magnetization       =     1.35 Bohr mag/cell
     absolute magnetization    =     2.04 Bohr mag/cell

     iteration #146     ecut=    60.00 Ry     beta= 0.70
     Davidson diagonalization with overlap
     ethr =  1.59E-08,  avg # of iterations =  7.4

     negative rho (up, down):  2.637E-04 9.046E-05

     total cpu time spent up to now is     2810.6 secs

     total energy              =     -21.13734756 Ry
     estimated scf accuracy    <       0.00005058 Ry

     total magnetization       =     1.36 Bohr mag/cell
     absolute magnetization    =     2.04 Bohr mag/cell

     iteration #147     ecut=    60.00 Ry     beta= 0.70
     Davidson diagonalization with overlap
     ethr =  1.59E-08,  avg # of iterations =  6.0

     negative rho (up, down):  2.637E-04 9.096E-05

     total cpu time spent up to now is     2829.2 secs

     total energy              =     -21.13734761 Ry
     estimated scf accuracy    <       0.00001988 Ry

     total magnetization       =     1.36 Bohr mag/cell
     absolute magnetization    =     2.04 Bohr mag/cell

     iteration #148     ecut=    60.00 Ry     beta= 0.70
     Davidson diagonalization with overlap
     ethr =  1.59E-08,  avg # of iterations =  6.9

     negative rho (up, down):  2.627E-04 9.052E-05

     total cpu time spent up to now is     2849.2 secs

     total energy              =     -21.13729725 Ry
     estimated scf accuracy    <       0.00000837 Ry

     total magnetization       =     1.34 Bohr mag/cell
     absolute magnetization    =     2.04 Bohr mag/cell

     iteration #149     ecut=    60.00 Ry     beta= 0.70
     Davidson diagonalization with overlap
     ethr =  1.59E-08,  avg # of iterations =  6.7

     negative rho (up, down):  2.632E-04 9.062E-05

     total cpu time spent up to now is     2869.1 secs

     total energy              =     -21.13733957 Ry
     estimated scf accuracy    <       0.00000909 Ry

     total magnetization       =     1.35 Bohr mag/cell
     absolute magnetization    =     2.04 Bohr mag/cell

     iteration #150     ecut=    60.00 Ry     beta= 0.70
     Davidson diagonalization with overlap
     ethr =  1.59E-08,  avg # of iterations =  6.0

     negative rho (up, down):  2.631E-04 9.047E-05

     total cpu time spent up to now is     2888.2 secs

     total energy              =     -21.13736423 Ry
     estimated scf accuracy    <       0.00000195 Ry

     total magnetization       =     1.35 Bohr mag/cell
[...]

   -38.3858 -27.2030 -25.6073 -25.6072 -24.1052 -23.9434 -23.8914

          k = 0.2500-0.5000 0.0000 (423782 PWs)   bands (ev):

   -38.3858 -27.2030 -25.6073 -25.6072 -24.0447 -24.0290 -23.8583

          k = 0.2500-0.2500 0.0000 (423766 PWs)   bands (ev):

   -38.3858 -27.2030 -25.6073 -25.6072 -24.1052 -23.9434 -23.8914

          k =-0.5000 0.0000 0.0000 (423542 PWs)   bands (ev):

   -38.3858 -27.2030 -25.6072 -25.6072 -24.0675 -24.0498 -23.7338

          k =-0.5000 0.2500 0.0000 (423782 PWs)   bands (ev):

   -38.3858 -27.2030 -25.6073 -25.6072 -24.0448 -24.0290 -23.8582

          k =-0.5000-0.5000 0.0000 (423708 PWs)   bands (ev):

   -38.3858 -27.2030 -25.6073 -25.6072 -23.9902 -23.9900 -23.9576

 ------ SPIN DOWN ----------


          k = 0.0000 0.0000 0.0000 (423701 PWs)   bands (ev):

   -35.9073 -26.3019 -25.5303 -24.7090 -24.7089 -24.3442 -24.2079

          k = 0.0000 0.2500 0.0000 (423725 PWs)   bands (ev):

   -35.9073 -26.3019 -25.5300 -24.7247 -24.7076 -24.3104 -24.1660

          k = 0.0000-0.5000 0.0000 (423542 PWs)   bands (ev):

   -35.9073 -26.3019 -25.5296 -24.7383 -24.7063 -24.2850 -24.1114

          k = 0.2500 0.0000 0.0000 (423725 PWs)   bands (ev):

   -35.9073 -26.3019 -25.5300 -24.7246 -24.7077 -24.3104 -24.1661

          k = 0.2500 0.2500 0.0000 (423766 PWs)   bands (ev):

   -35.9073 -26.3019 -25.5296 -24.7236 -24.7225 -24.2614 -24.1389

          k = 0.2500-0.5000 0.0000 (423782 PWs)   bands (ev):

   -35.9073 -26.3019 -25.5292 -24.7365 -24.7214 -24.2190 -24.1642

          k = 0.2500-0.2500 0.0000 (423766 PWs)   bands (ev):

   -35.9073 -26.3019 -25.5296 -24.7235 -24.7225 -24.2614 -24.1390

          k =-0.5000 0.0000 0.0000 (423542 PWs)   bands (ev):

   -35.9073 -26.3019 -25.5296 -24.7384 -24.7063 -24.2850 -24.1112

          k =-0.5000 0.2500 0.0000 (423782 PWs)   bands (ev):

   -35.9073 -26.3019 -25.5292 -24.7366 -24.7214 -24.2190 -24.1641

          k =-0.5000-0.5000 0.0000 (423708 PWs)   bands (ev):

   -35.9073 -26.3019 -25.5288 -24.7347 -24.7347 -24.1961 -24.1250

     the Fermi energy is   -25.5514 ev

!    total energy              =     -21.18025567 Ry
     estimated scf accuracy    <          1.1E-10 Ry
     smearing contrib. (-TS)   =      -0.00288441 Ry
     internal energy E=F+TS    =     -21.17737126 Ry

     The total energy is F=E-TS. E is the sum of the following terms:
     one-electron contribution =     -45.37769716 Ry
     hartree contribution      =      19.58253959 Ry
     xc contribution           =      -5.65749810 Ry
     ewald contribution        =      10.27528689 Ry
     Dispersion Correction     =      -0.00000248 Ry

     total magnetization       =     1.27 Bohr mag/cell
     absolute magnetization    =     2.04 Bohr mag/cell

     convergence has been achieved in  11 iterations

     negative rho (up, down):  2.645E-04 8.583E-05

     Forces acting on atoms (cartesian axes, Ry/au):

     atom    1 type  1   force =     0.00000066    0.00003408    0.01920251
     atom    2 type  2   force =    -0.00000066   -0.00003408    0.00050723

     Total force =     0.000508     Total SCF correction =     0.000001
     Energy error            =      7.2E-07
     Gradient error          =      5.1E-04

     number of scf cycles    =  24
     number of bfgs steps    =  22

     energy   old            =     -21.1802549507 Ry
     energy   new            =     -21.1802556742 Ry

     CASE: energy  _new < energy  _old

     new trust radius        =       0.0100338134 bohr
     new conv_thr            =            1.0E-10 Ry


ATOMIC_POSITIONS (angstrom)
N            10.0000000000       10.0000000000        0.0000000000    0   0   0
H            10.0000350204        9.9965709228        1.0633883701



     Writing output data file ./NH_ESM_pn5.save/
     NEW-OLD atomic charge density approx. for the potential

     negative rho (up, down):  1.634E-04 1.391E-04
     Generating pointlists ...

     total cpu time spent up to now is    25853.0 secs

     Self-consistent Calculation

     iteration #  1     ecut=    60.00 Ry     beta= 0.70
     Davidson diagonalization with overlap
     ethr =  1.00E-06,  avg # of iterations =  2.5

     negative rho (up, down):  2.399E-04 9.816E-05

     total cpu time spent up to now is    25868.8 secs

     total energy              =     -21.18022615 Ry
     estimated scf accuracy    <       0.00004438 Ry

     total magnetization       =     1.25 Bohr mag/cell
     absolute magnetization    =     2.04 Bohr mag/cell

     iteration #  2     ecut=    60.00 Ry     beta= 0.70
     Davidson diagonalization with overlap
     ethr =  7.40E-07,  avg # of iterations =  2.0

     negative rho (up, down):  2.844E-04 9.894E-05

     total cpu time spent up to now is    25884.6 secs

     total energy              =     -21.17963941 Ry
     estimated scf accuracy    <       0.04271433 Ry

     total magnetization       =     1.74 Bohr mag/cell
     absolute magnetization    =     2.04 Bohr mag/cell

     iteration #  3     ecut=    60.00 Ry     beta= 0.70
     Davidson diagonalization with overlap
     ethr =  7.40E-07,  avg # of iterations =  2.0

     negative rho (up, down):  2.706E-04 8.708E-05

     total cpu time spent up to now is    25900.3 secs

     total energy              =     -21.18025511 Ry
     estimated scf accuracy    <       0.00000381 Ry

     total magnetization       =     1.27 Bohr mag/cell
     absolute magnetization    =     2.04 Bohr mag/cell

     iteration #  4     ecut=    60.00 Ry     beta= 0.70
     Davidson diagonalization with overlap
     ethr =  6.35E-08,  avg # of iterations =  3.0

     negative rho (up, down):  2.659E-04 8.596E-05

     total cpu time spent up to now is    25916.2 secs

     total energy              =     -21.18025566 Ry
     estimated scf accuracy    <       0.00000485 Ry

     total magnetization       =     1.26 Bohr mag/cell
     absolute magnetization    =     2.04 Bohr mag/cell

     iteration #  5     ecut=    60.00 Ry     beta= 0.70
     Davidson diagonalization with overlap
     ethr =  6.35E-08,  avg # of iterations =  1.0

     negative rho (up, down):  2.649E-04 8.570E-05

     total cpu time spent up to now is    25931.4 secs

     total energy              =     -21.18025514 Ry
     estimated scf accuracy    <       0.00000024 Ry

     total magnetization       =     1.27 Bohr mag/cell
     absolute magnetization    =     2.04 Bohr mag/cell

     iteration #  6     ecut=    60.00 Ry     beta= 0.70
     Davidson diagonalization with overlap
     ethr =  3.95E-09,  avg # of iterations =  3.5

     negative rho (up, down):  2.648E-04 8.551E-05

     total cpu time spent up to now is    25947.7 secs

     total energy              =     -21.18025555 Ry
     estimated scf accuracy    <       0.00000004 Ry

     total magnetization       =     1.27 Bohr mag/cell
     absolute magnetization    =     2.04 Bohr mag/cell

     iteration #  7     ecut=    60.00 Ry     beta= 0.70
     Davidson diagonalization with overlap
     ethr =  7.40E-10,  avg # of iterations =  1.6

     negative rho (up, down):  2.645E-04 8.567E-05

     total cpu time spent up to now is    25963.5 secs

     total energy              =     -21.18025538 Ry
     estimated scf accuracy    <       0.00000003 Ry

     total magnetization       =     1.27 Bohr mag/cell
     absolute magnetization    =     2.04 Bohr mag/cell

     iteration #  8     ecut=    60.00 Ry     beta= 0.70
     Davidson diagonalization with overlap
     ethr =  5.82E-10,  avg # of iterations =  3.0

     negative rho (up, down):  2.644E-04 8.575E-05

     total cpu time spent up to now is    25980.2 secs

     total energy              =     -21.18025538 Ry
     estimated scf accuracy    <       0.00000007 Ry

     total magnetization       =     1.27 Bohr mag/cell
     absolute magnetization    =     2.04 Bohr mag/cell

     iteration #  9     ecut=    60.00 Ry     beta= 0.70
     Davidson diagonalization with overlap
     ethr =  5.82E-10,  avg # of iterations =  2.5

     negative rho (up, down):  2.644E-04 8.577E-05

     total cpu time spent up to now is    25996.4 secs

     total energy              =     -21.18025536 Ry
     estimated scf accuracy    <       0.00000003 Ry

     total magnetization       =     1.27 Bohr mag/cell
     absolute magnetization    =     2.04 Bohr mag/cell

     iteration # 10     ecut=    60.00 Ry     beta= 0.70
     Davidson diagonalization with overlap
     ethr =  4.78E-10,  avg # of iterations =  1.0

     negative rho (up, down):  2.644E-04 8.576E-05

     total cpu time spent up to now is    26012.3 secs

     total energy              =     -21.18025535 Ry
     estimated scf accuracy    <          1.3E-09 Ry

     total magnetization       =     1.27 Bohr mag/cell
     absolute magnetization    =     2.04 Bohr mag/cell

     iteration # 11     ecut=    60.00 Ry     beta= 0.70
     Davidson diagonalization with overlap
     ethr =  2.12E-11,  avg # of iterations =  3.9

     negative rho (up, down):  2.644E-04 8.577E-05

     total cpu time spent up to now is    26029.5 secs

     total energy              =     -21.18025541 Ry
     estimated scf accuracy    <          4.2E-10 Ry

     total magnetization       =     1.27 Bohr mag/cell
     absolute magnetization    =     2.04 Bohr mag/cell

     iteration # 12     ecut=    60.00 Ry     beta= 0.70
     Davidson diagonalization with overlap
     ethr =  7.06E-12,  avg # of iterations =  1.5

     negative rho (up, down):  2.644E-04 8.576E-05

     total cpu time spent up to now is    26045.7 secs

     total energy              =     -21.18025539 Ry
     estimated scf accuracy    <          5.6E-10 Ry

     total magnetization       =     1.27 Bohr mag/cell
     absolute magnetization    =     2.04 Bohr mag/cell

     iteration # 13     ecut=    60.00 Ry     beta= 0.70
     Davidson diagonalization with overlap
     ethr =  7.06E-12,  avg # of iterations =  1.5

     negative rho (up, down):  2.644E-04 8.576E-05

     total cpu time spent up to now is    26061.8 secs

     total energy              =     -21.18025527 Ry
     estimated scf accuracy    <          8.7E-10 Ry

     total magnetization       =     1.27 Bohr mag/cell
     absolute magnetization    =     2.04 Bohr mag/cell

     iteration # 14     ecut=    60.00 Ry     beta= 0.70
     Davidson diagonalization with overlap
     ethr =  7.06E-12,  avg # of iterations =  3.9

     negative rho (up, down):  2.644E-04 8.576E-05

     total cpu time spent up to now is    26079.3 secs

     total energy              =     -21.18025536 Ry
     estimated scf accuracy    <          2.1E-09 Ry

     total magnetization       =     1.27 Bohr mag/cell
     absolute magnetization    =     2.04 Bohr mag/cell

     iteration # 15     ecut=    60.00 Ry     beta= 0.70
     Davidson diagonalization with overlap
     ethr =  7.06E-12,  avg # of iterations =  4.5

     negative rho (up, down):  2.644E-04 8.576E-05

     total cpu time spent up to now is    26096.8 secs

     total energy              =     -21.18025527 Ry
     estimated scf accuracy    <          5.6E-10 Ry

     total magnetization       =     1.27 Bohr mag/cell
     absolute magnetization    =     2.04 Bohr mag/cell

     iteration # 16     ecut=    60.00 Ry     beta= 0.70
     Davidson diagonalization with overlap
     ethr =  7.06E-12,  avg # of iterations =  3.9

     negative rho (up, down):  2.644E-04 8.577E-05

     total cpu time spent up to now is    26113.7 secs

     total energy              =     -21.18025541 Ry
     estimated scf accuracy    <          7.6E-10 Ry

     total magnetization       =     1.27 Bohr mag/cell
     absolute magnetization    =     2.04 Bohr mag/cell

     iteration # 17     ecut=    60.00 Ry     beta= 0.70
     Davidson diagonalization with overlap
     ethr =  7.06E-12,  avg # of iterations =  4.2

     negative rho (up, down):  2.644E-04 8.576E-05

     total cpu time spent up to now is    26130.8 secs

     total energy              =     -21.18025544 Ry
     estimated scf accuracy    <          7.3E-10 Ry

     total magnetization       =     1.27 Bohr mag/cell
     absolute magnetization    =     2.04 Bohr mag/cell

     iteration # 18     ecut=    60.00 Ry     beta= 0.70
     Davidson diagonalization with overlap
     ethr =  7.06E-12,  avg # of iterations =  5.2

     negative rho (up, down):  2.644E-04 8.575E-05

     total cpu time spent up to now is    26148.2 secs

     total energy              =     -21.18025536 Ry
     estimated scf accuracy    <          2.2E-10 Ry

     total magnetization       =     1.27 Bohr mag/cell
     absolute magnetization    =     2.04 Bohr mag/cell

     iteration # 19     ecut=    60.00 Ry     beta= 0.70
     Davidson diagonalization with overlap
     ethr =  3.75E-12,  avg # of iterations =  5.8

     negative rho (up, down):  2.644E-04 8.575E-05

     Magnetic moment per site:
     atom:    1    charge:    1.3301    magn:    0.4848    constr:    0.0000
     atom:    2    charge:    0.4262    magn:   -0.0099    constr:    0.0000

     total cpu time spent up to now is    26164.0 secs

     End of self-consistent calculation

 ------ SPIN UP ------------


          k = 0.0000 0.0000 0.0000 (423701 PWs)   bands (ev):

   -38.3825 -27.2016 -25.6073 -25.6073 -24.1509 -23.8034 -23.8027

          k = 0.0000 0.2500 0.0000 (423725 PWs)   bands (ev):

   -38.3825 -27.2017 -25.6073 -25.6073 -24.1279 -23.9450 -23.7811

          k = 0.0000-0.5000 0.0000 (423542 PWs)   bands (ev):

   -38.3825 -27.2016 -25.6073 -25.6073 -24.0672 -24.0498 -23.7341

          k = 0.2500 0.0000 0.0000 (423725 PWs)   bands (ev):

   -38.3825 -27.2017 -25.6073 -25.6073 -24.1279 -23.9450 -23.7807

          k = 0.2500 0.2500 0.0000 (423766 PWs)   bands (ev):

   -38.3825 -27.2017 -25.6073 -25.6073 -24.1051 -23.9433 -23.8912

          k = 0.2500-0.5000 0.0000 (423782 PWs)   bands (ev):

   -38.3825 -27.2017 -25.6073 -25.6073 -24.0445 -24.0290 -23.8581

          k = 0.2500-0.2500 0.0000 (423766 PWs)   bands (ev):

   -38.3825 -27.2017 -25.6073 -25.6073 -24.1051 -23.9433 -23.8912

          k =-0.5000 0.0000 0.0000 (423542 PWs)   bands (ev):

   -38.3825 -27.2016 -25.6073 -25.6073 -24.0672 -24.0498 -23.7337

          k =-0.5000 0.2500 0.0000 (423782 PWs)   bands (ev):

   -38.3825 -27.2017 -25.6073 -25.6073 -24.0446 -24.0289 -23.8580

          k =-0.5000-0.5000 0.0000 (423708 PWs)   bands (ev):

   -38.3825 -27.2017 -25.6073 -25.6073 -23.9902 -23.9900 -23.9572

 ------ SPIN DOWN ----------


          k = 0.0000 0.0000 0.0000 (423701 PWs)   bands (ev):

   -35.9034 -26.3012 -25.5304 -24.7091 -24.7090 -24.3442 -24.2079

          k = 0.0000 0.2500 0.0000 (423725 PWs)   bands (ev):

   -35.9034 -26.3012 -25.5300 -24.7247 -24.7077 -24.3105 -24.1661

          k = 0.0000-0.5000 0.0000 (423542 PWs)   bands (ev):

   -35.9034 -26.3012 -25.5296 -24.7384 -24.7064 -24.2850 -24.1115

          k = 0.2500 0.0000 0.0000 (423725 PWs)   bands (ev):

   -35.9034 -26.3012 -25.5300 -24.7248 -24.7077 -24.3105 -24.1661

          k = 0.2500 0.2500 0.0000 (423766 PWs)   bands (ev):

   -35.9034 -26.3012 -25.5296 -24.7237 -24.7226 -24.2615 -24.1390

          k = 0.2500-0.5000 0.0000 (423782 PWs)   bands (ev):

   -35.9034 -26.3012 -25.5292 -24.7366 -24.7215 -24.2191 -24.1642

          k = 0.2500-0.2500 0.0000 (423766 PWs)   bands (ev):

   -35.9034 -26.3012 -25.5296 -24.7236 -24.7226 -24.2614 -24.1391

          k =-0.5000 0.0000 0.0000 (423542 PWs)   bands (ev):

   -35.9034 -26.3012 -25.5296 -24.7385 -24.7063 -24.2850 -24.1113

          k =-0.5000 0.2500 0.0000 (423782 PWs)   bands (ev):

   -35.9034 -26.3012 -25.5292 -24.7367 -24.7214 -24.2190 -24.1642

          k =-0.5000-0.5000 0.0000 (423708 PWs)   bands (ev):

   -35.9034 -26.3012 -25.5288 -24.7348 -24.7347 -24.1961 -24.1251

     the Fermi energy is   -25.5515 ev

!    total energy              =     -21.18025540 Ry
     estimated scf accuracy    <          3.2E-11 Ry
     smearing contrib. (-TS)   =      -0.00288495 Ry
     internal energy E=F+TS    =     -21.17737045 Ry

     The total energy is F=E-TS. E is the sum of the following terms:
     one-electron contribution =     -45.37250133 Ry
     hartree contribution      =      19.57996387 Ry
     xc contribution           =      -5.65696257 Ry
     ewald contribution        =      10.27213205 Ry
     Dispersion Correction     =      -0.00000248 Ry

     total magnetization       =     1.27 Bohr mag/cell
     absolute magnetization    =     2.04 Bohr mag/cell

     convergence has been achieved in  19 iterations

     negative rho (up, down):  2.644E-04 8.575E-05

     Forces acting on atoms (cartesian axes, Ry/au):

     atom    1 type  1   force =     0.00000067   -0.00006588    0.02004137
     atom    2 type  2   force =    -0.00000067    0.00006588   -0.00032869

     Total force =     0.000335     Total SCF correction =     0.000001
     Energy error            =      2.8E-07
     Gradient error          =      3.3E-04

     bfgs converged in  25 scf cycles and  23 bfgs steps
     (criteria: energy <  7.3E-07 Ry, force <  3.9E-04 Ry/Bohr)

     End of BFGS Geometry Optimization

     Final energy   =     -21.1802553984 Ry

     File ./NH_ESM_pn5.bfgs deleted, as requested
Begin final coordinates

ATOMIC_POSITIONS (angstrom)
N            10.0000000000       10.0000000000        0.0000000000    0   0   0
H            10.0000350204        9.9965709228        1.0633883701
End final coordinates



     Writing output data file ./NH_ESM_pn5.save/

     init_run     :     20.36s CPU     21.51s WALL (       1 calls)
     electrons    :  23866.63s CPU  25679.03s WALL (      25 calls)
     update_pot   :    190.56s CPU    199.36s WALL (      24 calls)
     forces       :    209.84s CPU    222.83s WALL (      25 calls)

     Called by init_run:
     wfcinit      :      1.56s CPU      1.70s WALL (       1 calls)
     potinit      :      7.48s CPU      8.11s WALL (       1 calls)
     hinit0       :      1.26s CPU      1.33s WALL (       1 calls)

     Called by electrons:
     c_bands      :   6932.11s CPU   7117.11s WALL (    1455 calls)
     sum_band     :   3126.21s CPU   3263.62s WALL (    1455 calls)
     v_of_rho     :   8665.47s CPU   9322.42s WALL (    1480 calls)
     newd         :   1028.08s CPU   1087.53s WALL (    1480 calls)
     mix_rho      :   2753.94s CPU   3354.60s WALL (    1455 calls)

     Called by c_bands:
     init_us_2    :     48.15s CPU     50.17s WALL (    8808 calls)
     cegterg      :   5324.79s CPU   5458.48s WALL (    4365 calls)

     Called by *egterg:
     cdiaghg      :     18.99s CPU     19.45s WALL (   16260 calls)
     h_psi        :   4833.04s CPU   4925.39s WALL (   16335 calls)
     s_psi        :     41.99s CPU     42.69s WALL (   16335 calls)
     g_psi        :      8.33s CPU      8.48s WALL (   11967 calls)

     Called by h_psi:
     h_psi:calbec :     59.98s CPU     60.87s WALL (   16335 calls)
     vloc_psi     :   4704.37s CPU   4781.86s WALL (   16335 calls)
     add_vuspsi   :     50.77s CPU     51.30s WALL (   16335 calls)

     General routines
     calbec       :     82.94s CPU     84.34s WALL (   21000 calls)
     fft          :   8962.28s CPU   9192.65s WALL (   37349 calls)
     ffts         :    479.89s CPU    485.09s WALL (    5870 calls)
     fftw         :   4718.76s CPU   4795.96s WALL (  184589 calls)
     interpolate  :   1003.71s CPU   1094.97s WALL (    2960 calls)
     davcio       :      7.15s CPU    382.27s WALL (   44696 calls)

     Parallel routines
     fft_scatt_xy :   1945.29s CPU   1975.84s WALL (  227808 calls)
     fft_scatt_yz :   5927.92s CPU   5997.01s WALL (  227808 calls)

     PWSCF        :      6h45m CPU      7h16m WALL


   This run was terminated on:  19:31:39  30Jun2022            

=------------------------------------------------------------------------------=
   JOB DONE.
=------------------------------------------------------------------------------=
