     Message from routine get_command_line:
     unexpected argument # 4     :-in

     Program PWSCF v.6.7MaX starts on 28Sep2022 at 20:50: 8 

     This program is part of the open-source Quantum ESPRESSO suite
     for quantum simulation of materials; please cite
         "P. Giannozzi et al., J. Phys.:Condens. Matter 21 395502 (2009);
         "P. Giannozzi et al., J. Phys.:Condens. Matter 29 465901 (2017);
          URL http://www.quantum-espresso.org", 
     in publications or presentations arising from this work. More details at
     http://www.quantum-espresso.org/quote

     Parallel version (MPI), running on   120 processors

     MPI processes distributed on     1 nodes
     K-points division:     npool     =       8
     R & G space division:  proc/nbgrp/npool/nimage =      15
     Waiting for input...
     Reading input from standard input
Warning: card &CELL ignored
Warning: card / ignored

     Current dimensions of program PWSCF are:
     Max number of different atomic species (ntypx) = 10
     Max number of k-points (npk) =  40000
     Max angular momentum in pseudopotentials (lmaxx) =  3

     IMPORTANT: XC functional enforced from input :
     Exchange-correlation= PBE
                           (   1   4   3   4   0   0   0)
     Any further DFT definition will be discarded
     Please, verify this is what you really want


     -------------------------------------------------
     Parameters for Dispersion (Grimme-D2) Correction:
     -------------------------------------------------
       atom      VdW radius       C_6     

        N          2.640         42.670

     Subspace diagonalization in iterative solution of the eigenvalue problem:
     one sub-group per band group will be used
     scalapack distributed-memory algorithm (size of sub-group:  3*  3 procs)


     Parallelization info
     --------------------
     sticks:   dense  smooth     PW     G-vecs:    dense   smooth      PW
     Min        3636    1818    468               639190   225950   29545
     Max        3637    1819    470               639197   225953   29547
     Sum       54553   27281   7033              9587919  3389267  443191



     bravais-lattice index     =            0
     lattice parameter (alat)  =      37.7945  a.u.
     unit-cell volume          =   53986.6760 (a.u.)^3
     number of atoms/cell      =            2
     number of atomic types    =            1
     number of electrons       =        10.00
     number of Kohn-Sham states=            9
     kinetic-energy cutoff     =      60.0000  Ry
     charge density cutoff     =     480.0000  Ry
     scf convergence threshold =      1.0E-08
     mixing beta               =       0.7000
     number of iterations used =           10  plain     mixing
     energy convergence thresh.=      7.3E-07
     force convergence thresh. =      3.9E-04
     Exchange-correlation= PBE
                           (   1   4   3   4   0   0   0)
     nstep                     =           50


     celldm(1)=  37.794522  celldm(2)=   0.000000  celldm(3)=   0.000000
     celldm(4)=   0.000000  celldm(5)=   0.000000  celldm(6)=   0.000000

     crystal axes: (cart. coord. in units of alat)
               a(1) = (   1.000000   0.000000   0.000000 )  
               a(2) = (   0.000000   1.000000   0.000000 )  
               a(3) = (   0.000000   0.000000   1.000000 )  

     reciprocal axes: (cart. coord. in units 2 pi/alat)
               b(1) = (  1.000000  0.000000  0.000000 )  
               b(2) = (  0.000000  1.000000  0.000000 )  
               b(3) = (  0.000000  0.000000  1.000000 )  


     PseudoPot. # 1 for N  read from file:
     ../../SSSP/N.pbe-n-radius_5.UPF
     MD5 check sum: 16739722b17309cd8fe442a2ace49922
     Pseudo is Ultrasoft + core correction, Zval =  5.0
     Generated using "atomic" code by A. Dal Corso  v.5.1
     Using radial grid of 1085 points,  4 beta functions with: 
                l(1) =   0
                l(2) =   0
                l(3) =   1
                l(4) =   1
     Q(r) pseudized with 0 coefficients 


     atomic species   valence    mass     pseudopotential
        N              5.00    14.00700     N ( 1.00)

     Starting magnetic structure 
     atomic species   magnetization
        N            0.100

     No symmetry found



   Cartesian axes

     site n.     atom                  positions (alat units)
         1           N   tau(   1) = (   0.5000000   0.5000000   0.0000000  )
         2           N   tau(   2) = (   0.5000000   0.5000000  -0.0565000  )

     number of k points=    10  Methfessel-Paxton smearing, width (Ry)=  0.0100
                       cart. coord. in units 2pi/alat
        k(    1) = (   0.0000000   0.0000000   0.0000000), wk =   0.0625000
        k(    2) = (   0.0000000   0.2500000   0.0000000), wk =   0.1250000
        k(    3) = (   0.0000000  -0.5000000   0.0000000), wk =   0.0625000
        k(    4) = (   0.2500000   0.0000000   0.0000000), wk =   0.1250000
        k(    5) = (   0.2500000   0.2500000   0.0000000), wk =   0.1250000
        k(    6) = (   0.2500000  -0.5000000   0.0000000), wk =   0.1250000
        k(    7) = (   0.2500000  -0.2500000   0.0000000), wk =   0.1250000
        k(    8) = (  -0.5000000   0.0000000   0.0000000), wk =   0.0625000
        k(    9) = (  -0.5000000   0.2500000   0.0000000), wk =   0.1250000
        k(   10) = (  -0.5000000  -0.5000000   0.0000000), wk =   0.0625000

     Dense  grid:  9587919 G-vectors     FFT dimensions: ( 270, 270, 270)

     Smooth grid:  3389267 G-vectors     FFT dimensions: ( 192, 192, 192)

     Estimated max dynamical RAM per process >     370.17 MB

     Estimated total dynamical RAM >      43.38 GB

     Adding external electric field
        E field amplitude [Ha a.u.]: -2.3644E-02
        Potential amp.       -1.6085 Ry
        Total length         34.0151 bohr

     Generating pointlists ...
     new r_m :   0.0233 (alat units)  0.8808 (a.u.) for type    1

     Initial potential from superposition of free atoms

     starting charge    9.99999, renormalised to   10.00000

     negative rho (up, down):  1.327E-04 1.086E-04
     Starting wfcs are    8 randomized atomic wfcs +    1 random wfcs

     total cpu time spent up to now is       21.4 secs

     Self-consistent Calculation

     iteration #  1     ecut=    60.00 Ry     beta= 0.70
     CG style diagonalization
     c_bands:  1 eigenvalues not converged
     c_bands:  2 eigenvalues not converged
     c_bands:  2 eigenvalues not converged
     ethr =  1.00E-04,  avg # of iterations = 10.6

     negative rho (up, down):  2.325E-04 2.253E-04

     total cpu time spent up to now is       57.5 secs

     total energy              =     -40.32107223 Ry
     estimated scf accuracy    <       0.20277226 Ry

     total magnetization       =    -0.00 Bohr mag/cell
     absolute magnetization    =     0.06 Bohr mag/cell

     iteration #  2     ecut=    60.00 Ry     beta= 0.70
     CG style diagonalization
     ethr =  2.03E-03,  avg # of iterations =  3.6

     negative rho (up, down):  3.418E-04 3.402E-04

     total cpu time spent up to now is       77.4 secs

     total energy              =     -40.29947352 Ry
     estimated scf accuracy    <       0.36459061 Ry

     total magnetization       =     0.00 Bohr mag/cell
     absolute magnetization    =     0.03 Bohr mag/cell

     iteration #  3     ecut=    60.00 Ry     beta= 0.70
     CG style diagonalization
     ethr =  2.03E-03,  avg # of iterations =  3.4

     negative rho (up, down):  2.769E-04 2.759E-04

     total cpu time spent up to now is       97.2 secs

     total energy              =     -40.38499594 Ry
     estimated scf accuracy    <       0.02565787 Ry

     total magnetization       =    -0.00 Bohr mag/cell
     absolute magnetization    =     0.03 Bohr mag/cell

     iteration #  4     ecut=    60.00 Ry     beta= 0.70
     CG style diagonalization
     ethr =  2.57E-04,  avg # of iterations =  3.1

     negative rho (up, down):  2.757E-04 2.747E-04

     total cpu time spent up to now is      116.2 secs

     total energy              =     -40.38891926 Ry
     estimated scf accuracy    <       0.00049555 Ry

     total magnetization       =    -0.00 Bohr mag/cell
     absolute magnetization    =     0.02 Bohr mag/cell

     iteration #  5     ecut=    60.00 Ry     beta= 0.70
     CG style diagonalization
     ethr =  4.96E-06,  avg # of iterations =  6.0

     negative rho (up, down):  2.775E-04 2.768E-04

     total cpu time spent up to now is      142.1 secs

     total energy              =     -40.38926949 Ry
     estimated scf accuracy    <       0.00014726 Ry

     total magnetization       =    -0.00 Bohr mag/cell
     absolute magnetization    =     0.01 Bohr mag/cell

     iteration #  6     ecut=    60.00 Ry     beta= 0.70
     CG style diagonalization
     ethr =  1.47E-06,  avg # of iterations =  4.9

     negative rho (up, down):  2.778E-04 2.774E-04

     total cpu time spent up to now is      165.6 secs

     total energy              =     -40.38931498 Ry
     estimated scf accuracy    <       0.00002281 Ry

     total magnetization       =     0.00 Bohr mag/cell
     absolute magnetization    =     0.00 Bohr mag/cell

     iteration #  7     ecut=    60.00 Ry     beta= 0.70
     CG style diagonalization
     ethr =  2.28E-07,  avg # of iterations =  3.8

     negative rho (up, down):  2.779E-04 2.777E-04

     total cpu time spent up to now is      186.7 secs

     total energy              =     -40.38932172 Ry
     estimated scf accuracy    <       0.00000407 Ry

     total magnetization       =     0.00 Bohr mag/cell
     absolute magnetization    =     0.00 Bohr mag/cell

     iteration #  8     ecut=    60.00 Ry     beta= 0.70
     CG style diagonalization
     ethr =  4.07E-08,  avg # of iterations =  3.5

     negative rho (up, down):  2.778E-04 2.778E-04

     total cpu time spent up to now is      207.1 secs

     total energy              =     -40.38932298 Ry
     estimated scf accuracy    <       0.00000046 Ry

     total magnetization       =    -0.00 Bohr mag/cell
     absolute magnetization    =     0.00 Bohr mag/cell

     iteration #  9     ecut=    60.00 Ry     beta= 0.70
     CG style diagonalization
     ethr =  4.58E-09,  avg # of iterations =  3.6

     negative rho (up, down):  2.778E-04 2.778E-04

     total cpu time spent up to now is      227.6 secs

     total energy              =     -40.38932304 Ry
     estimated scf accuracy    <       0.00000013 Ry

     total magnetization       =    -0.00 Bohr mag/cell
     absolute magnetization    =     0.00 Bohr mag/cell

     iteration # 10     ecut=    60.00 Ry     beta= 0.70
     CG style diagonalization
     ethr =  1.31E-09,  avg # of iterations =  3.4

     negative rho (up, down):  2.778E-04 2.778E-04

     Magnetic moment per site:
     atom:    1    charge:    1.6925    magn:    0.0000    constr:    0.0000
     atom:    2    charge:    1.6701    magn:   -0.0000    constr:    0.0000

     total cpu time spent up to now is      245.6 secs

     End of self-consistent calculation

 ------ SPIN UP ------------


          k = 0.0000 0.0000 0.0000 (423701 PWs)   bands (ev):

   -35.7322 -21.6092 -19.2528 -19.2528 -17.9955 -10.2151 -10.2151  -8.3028
    -7.9257

          k = 0.0000 0.2500 0.0000 (423725 PWs)   bands (ev):

   -35.7322 -21.6092 -19.2528 -19.2528 -17.9955 -10.2151 -10.2151  -8.2916
    -8.0034

          k = 0.0000-0.5000 0.0000 (423542 PWs)   bands (ev):

   -35.7322 -21.6092 -19.2528 -19.2528 -17.9955 -10.2151 -10.2151  -8.2785
    -8.0562

          k = 0.2500 0.0000 0.0000 (423725 PWs)   bands (ev):

   -35.7322 -21.6092 -19.2528 -19.2528 -17.9955 -10.2151 -10.2151  -8.2919
    -8.0041

          k = 0.2500 0.2500 0.0000 (423766 PWs)   bands (ev):

   -35.7322 -21.6092 -19.2528 -19.2528 -17.9955 -10.2151 -10.2151  -8.2814
    -7.9931

          k = 0.2500-0.5000 0.0000 (423782 PWs)   bands (ev):

   -35.7322 -21.6092 -19.2528 -19.2528 -17.9955 -10.2151 -10.2151  -8.2695
    -8.0333

          k = 0.2500-0.2500 0.0000 (423766 PWs)   bands (ev):

   -35.7322 -21.6092 -19.2528 -19.2528 -17.9955 -10.2151 -10.2151  -8.2818
    -8.0012

          k =-0.5000 0.0000 0.0000 (423542 PWs)   bands (ev):

   -35.7322 -21.6092 -19.2528 -19.2528 -17.9955 -10.2151 -10.2151  -8.2785
    -8.0544

          k =-0.5000 0.2500 0.0000 (423782 PWs)   bands (ev):

   -35.7322 -21.6092 -19.2528 -19.2528 -17.9955 -10.2151 -10.2151  -8.2686
    -8.0315

          k =-0.5000-0.5000 0.0000 (423708 PWs)   bands (ev):

   -35.7322 -21.6092 -19.2528 -19.2528 -17.9955 -10.2151 -10.2151  -8.2591
    -7.9343

 ------ SPIN DOWN ----------


          k = 0.0000 0.0000 0.0000 (423701 PWs)   bands (ev):

   -35.7321 -21.6090 -19.2527 -19.2527 -17.9955 -10.2150 -10.2150  -8.3027
    -7.9228

          k = 0.0000 0.2500 0.0000 (423725 PWs)   bands (ev):

   -35.7321 -21.6090 -19.2527 -19.2527 -17.9955 -10.2150 -10.2150  -8.2914
    -8.0038

          k = 0.0000-0.5000 0.0000 (423542 PWs)   bands (ev):

   -35.7321 -21.6090 -19.2527 -19.2527 -17.9955 -10.2150 -10.2150  -8.2783
    -8.0555

          k = 0.2500 0.0000 0.0000 (423725 PWs)   bands (ev):

   -35.7321 -21.6090 -19.2527 -19.2527 -17.9955 -10.2150 -10.2150  -8.2914
    -8.0024

          k = 0.2500 0.2500 0.0000 (423766 PWs)   bands (ev):

   -35.7321 -21.6090 -19.2527 -19.2527 -17.9955 -10.2150 -10.2150  -8.2816
    -8.0020

          k = 0.2500-0.5000 0.0000 (423782 PWs)   bands (ev):

   -35.7321 -21.6090 -19.2527 -19.2527 -17.9955 -10.2150 -10.2150  -8.2690
    -8.0329

          k = 0.2500-0.2500 0.0000 (423766 PWs)   bands (ev):

   -35.7321 -21.6090 -19.2527 -19.2527 -17.9955 -10.2150 -10.2150  -8.2815
    -8.0022

          k =-0.5000 0.0000 0.0000 (423542 PWs)   bands (ev):

   -35.7321 -21.6090 -19.2527 -19.2527 -17.9955 -10.2150 -10.2150  -8.2782
    -8.0550

          k =-0.5000 0.2500 0.0000 (423782 PWs)   bands (ev):

   -35.7321 -21.6090 -19.2527 -19.2527 -17.9955 -10.2150 -10.2150  -8.2692
    -8.0339

          k =-0.5000-0.5000 0.0000 (423708 PWs)   bands (ev):

   -35.7321 -21.6090 -19.2527 -19.2527 -17.9955 -10.2150 -10.2150  -8.2591
    -7.9840

     the Fermi energy is   -14.7391 ev

!    total energy              =     -40.38932309 Ry
     estimated scf accuracy    <          9.7E-09 Ry
     smearing contrib. (-TS)   =       0.00000000 Ry
     internal energy E=F+TS    =     -40.38932309 Ry

     The total energy is F=E-TS. E is the sum of the following terms:
     one-electron contribution =     -99.26936275 Ry
     hartree contribution      =      47.66738550 Ry
     xc contribution           =     -10.45428700 Ry
     ewald contribution        =      15.91664191 Ry
     Dispersion Correction     =      -0.00000245 Ry
     electric field correction =       5.75030170 Ry

     total magnetization       =    -0.00 Bohr mag/cell
     absolute magnetization    =     0.00 Bohr mag/cell

     convergence has been achieved in  10 iterations

     negative rho (up, down):  2.778E-04 2.778E-04

     Forces acting on atoms (cartesian axes, Ry/au):

     atom    1 type  1   force =     0.00000000   -0.00000000   -0.12359385
     atom    2 type  1   force =    -0.00000000    0.00000000    0.12359385

     Total force =     0.123594     Total SCF correction =     0.000185

     BFGS Geometry Optimization
     Energy error            =      0.0E+00
     Gradient error          =      1.2E-01

     number of scf cycles    =   1
     number of bfgs steps    =   0

     energy   new            =     -40.3893230936 Ry

     new trust radius        =       0.1235938460 bohr
     new conv_thr            =       0.0000000100 Ry


ATOMIC_POSITIONS (angstrom)
N            10.0000000000       10.0000000000        0.0000000000    0   0   0
N             9.9999999981       10.0000000007       -1.0645969533



     Writing output data file ./N2_ESM_VA12.save/
     NEW-OLD atomic charge density approx. for the potential

     negative rho (up, down):  2.331E-04 2.331E-04

     Adding external electric field
        E field amplitude [Ha a.u.]: -2.3644E-02
        Potential amp.       -1.6085 Ry
        Total length         34.0151 bohr

     Generating pointlists ...
     new r_m :   0.0220 (alat units)  0.8299 (a.u.) for type    1

     total cpu time spent up to now is      265.9 secs

     Self-consistent Calculation

     iteration #  1     ecut=    60.00 Ry     beta= 0.70
     CG style diagonalization
     ethr =  1.00E-06,  avg # of iterations =  9.5

     negative rho (up, down):  2.885E-04 2.885E-04

     total cpu time spent up to now is      300.0 secs

     total energy              =     -40.37919534 Ry
     estimated scf accuracy    <       0.01031068 Ry

     total magnetization       =    -0.00 Bohr mag/cell
     absolute magnetization    =     0.00 Bohr mag/cell

     iteration #  2     ecut=    60.00 Ry     beta= 0.70
     CG style diagonalization
     ethr =  1.03E-04,  avg # of iterations =  3.6

     negative rho (up, down):  3.215E-04 3.215E-04

     total cpu time spent up to now is      319.9 secs

     total energy              =     -40.38081351 Ry
     estimated scf accuracy    <       0.00143416 Ry

     total magnetization       =     0.00 Bohr mag/cell
     absolute magnetization    =     0.00 Bohr mag/cell

     iteration #  3     ecut=    60.00 Ry     beta= 0.70
     CG style diagonalization
     ethr =  1.43E-05,  avg # of iterations =  4.0

     negative rho (up, down):  3.388E-04 3.388E-04

     total cpu time spent up to now is      340.8 secs

     total energy              =     -40.38155457 Ry
     estimated scf accuracy    <       0.00070435 Ry

     total magnetization       =    -0.00 Bohr mag/cell
     absolute magnetization    =     0.00 Bohr mag/cell

     iteration #  4     ecut=    60.00 Ry     beta= 0.70
     CG style diagonalization
     ethr =  7.04E-06,  avg # of iterations =  3.0

     negative rho (up, down):  3.362E-04 3.362E-04

     total cpu time spent up to now is      359.6 secs

     total energy              =     -40.38170327 Ry
     estimated scf accuracy    <       0.00003077 Ry

     total magnetization       =    -0.00 Bohr mag/cell
     absolute magnetization    =     0.00 Bohr mag/cell

     iteration #  5     ecut=    60.00 Ry     beta= 0.70
     CG style diagonalization
     ethr =  3.08E-07,  avg # of iterations =  3.4

     negative rho (up, down):  3.381E-04 3.381E-04

     total cpu time spent up to now is      379.4 secs

     total energy              =     -40.38171146 Ry
     estimated scf accuracy    <       0.00000161 Ry

     total magnetization       =     0.00 Bohr mag/cell
     absolute magnetization    =     0.00 Bohr mag/cell

     iteration #  6     ecut=    60.00 Ry     beta= 0.70
     CG style diagonalization
     ethr =  1.61E-08,  avg # of iterations =  3.7

     negative rho (up, down):  3.385E-04 3.385E-04

     total cpu time spent up to now is      399.8 secs

     total energy              =     -40.38171185 Ry
     estimated scf accuracy    <       0.00000058 Ry

     total magnetization       =     0.00 Bohr mag/cell
     absolute magnetization    =     0.00 Bohr mag/cell

     iteration #  7     ecut=    60.00 Ry     beta= 0.70
     CG style diagonalization
     ethr =  5.85E-09,  avg # of iterations =  3.4

     negative rho (up, down):  3.387E-04 3.387E-04

     total cpu time spent up to now is      419.8 secs

     total energy              =     -40.38171205 Ry
     estimated scf accuracy    <       0.00000017 Ry

     total magnetization       =     0.00 Bohr mag/cell
     absolute magnetization    =     0.00 Bohr mag/cell

     iteration #  8     ecut=    60.00 Ry     beta= 0.70
     CG style diagonalization
     ethr =  1.66E-09,  avg # of iterations =  3.0

     negative rho (up, down):  3.388E-04 3.388E-04

     Magnetic moment per site:
     atom:    1    charge:    1.5244    magn:    0.0000    constr:    0.0000
     atom:    2    charge:    1.5064    magn:   -0.0000    constr:    0.0000

     total cpu time spent up to now is      436.8 secs

     End of self-consistent calculation

 ------ SPIN UP ------------


          k = 0.0000 0.0000 0.0000 (423701 PWs)   bands (ev):

   -36.7692 -21.2023 -19.8284 -19.8284 -18.0558  -9.5017  -9.5017  -8.2972
    -7.9244

          k = 0.0000 0.2500 0.0000 (423725 PWs)   bands (ev):

   -36.7692 -21.2023 -19.8284 -19.8284 -18.0558  -9.5017  -9.5017  -8.2853
    -8.0032

          k = 0.0000-0.5000 0.0000 (423542 PWs)   bands (ev):

   -36.7692 -21.2023 -19.8284 -19.8284 -18.0558  -9.5017  -9.5017  -8.2711
    -8.0572

          k = 0.2500 0.0000 0.0000 (423725 PWs)   bands (ev):

   -36.7692 -21.2023 -19.8284 -19.8284 -18.0558  -9.5017  -9.5017  -8.2854
    -8.0038

          k = 0.2500 0.2500 0.0000 (423766 PWs)   bands (ev):

   -36.7692 -21.2023 -19.8284 -19.8284 -18.0558  -9.5017  -9.5017  -8.2744
    -7.9934

          k = 0.2500-0.5000 0.0000 (423782 PWs)   bands (ev):

   -36.7692 -21.2023 -19.8284 -19.8284 -18.0558  -9.5017  -9.5017  -8.2615
    -8.0343

          k = 0.2500-0.2500 0.0000 (423766 PWs)   bands (ev):

   -36.7692 -21.2023 -19.8284 -19.8284 -18.0558  -9.5017  -9.5017  -8.2747
    -8.0010

          k =-0.5000 0.0000 0.0000 (423542 PWs)   bands (ev):

   -36.7692 -21.2023 -19.8284 -19.8284 -18.0558  -9.5017  -9.5017  -8.2711
    -8.0558

          k =-0.5000 0.2500 0.0000 (423782 PWs)   bands (ev):

   -36.7692 -21.2023 -19.8284 -19.8284 -18.0558  -9.5017  -9.5017  -8.2608
    -8.0325

          k =-0.5000-0.5000 0.0000 (423708 PWs)   bands (ev):

   -36.7692 -21.2023 -19.8284 -19.8284 -18.0558  -9.5017  -9.5017  -8.2505
    -7.9379

 ------ SPIN DOWN ----------


          k = 0.0000 0.0000 0.0000 (423701 PWs)   bands (ev):

   -36.7692 -21.2023 -19.8284 -19.8284 -18.0558  -9.5017  -9.5017  -8.2970
    -7.9217

          k = 0.0000 0.2500 0.0000 (423725 PWs)   bands (ev):

   -36.7692 -21.2023 -19.8284 -19.8284 -18.0558  -9.5017  -9.5017  -8.2850
    -8.0036

          k = 0.0000-0.5000 0.0000 (423542 PWs)   bands (ev):

   -36.7692 -21.2023 -19.8284 -19.8284 -18.0558  -9.5017  -9.5017  -8.2708
    -8.0566

          k = 0.2500 0.0000 0.0000 (423725 PWs)   bands (ev):

   -36.7692 -21.2023 -19.8284 -19.8284 -18.0558  -9.5017  -9.5017  -8.2850
    -8.0023

          k = 0.2500 0.2500 0.0000 (423766 PWs)   bands (ev):

   -36.7692 -21.2023 -19.8284 -19.8284 -18.0558  -9.5017  -9.5017  -8.2746
    -8.0017

          k = 0.2500-0.5000 0.0000 (423782 PWs)   bands (ev):

   -36.7692 -21.2023 -19.8284 -19.8284 -18.0558  -9.5017  -9.5017  -8.2611
    -8.0338

          k = 0.2500-0.2500 0.0000 (423766 PWs)   bands (ev):

   -36.7692 -21.2023 -19.8284 -19.8284 -18.0558  -9.5017  -9.5017  -8.2746
    -8.0018

          k =-0.5000 0.0000 0.0000 (423542 PWs)   bands (ev):

   -36.7692 -21.2023 -19.8284 -19.8284 -18.0558  -9.5017  -9.5017  -8.2708
    -8.0562

          k =-0.5000 0.2500 0.0000 (423782 PWs)   bands (ev):

   -36.7692 -21.2023 -19.8284 -19.8284 -18.0558  -9.5017  -9.5017  -8.2612
    -8.0347

          k =-0.5000-0.5000 0.0000 (423708 PWs)   bands (ev):

   -36.7692 -21.2023 -19.8284 -19.8284 -18.0558  -9.5018  -9.5017  -8.2504
    -7.9837

     the Fermi energy is   -14.9975 ev

!    total energy              =     -40.38171207 Ry
     estimated scf accuracy    <          9.3E-09 Ry
     smearing contrib. (-TS)   =       0.00000000 Ry
     internal energy E=F+TS    =     -40.38171207 Ry

     The total energy is F=E-TS. E is the sum of the following terms:
     one-electron contribution =    -101.80329807 Ry
     hartree contribution      =      48.89922678 Ry
     xc contribution           =     -10.61128643 Ry
     ewald contribution        =      17.35412415 Ry
     Dispersion Correction     =      -0.00000221 Ry
     electric field correction =       5.77952371 Ry

     total magnetization       =    -0.00 Bohr mag/cell
     absolute magnetization    =     0.00 Bohr mag/cell

     convergence has been achieved in   8 iterations

     negative rho (up, down):  3.388E-04 3.388E-04

     Forces acting on atoms (cartesian axes, Ry/au):

     atom    1 type  1   force =     0.00000001   -0.00000001    0.27903867
     atom    2 type  1   force =    -0.00000001    0.00000001   -0.27903867

     Total force =     0.279039     Total SCF correction =     0.000196
     Energy error            =      7.6E-03
     Gradient error          =      2.8E-01

     number of scf cycles    =   2
     number of bfgs steps    =   1

     energy   old            =     -40.3893230936 Ry
     energy   new            =     -40.3817120697 Ry

     CASE: energy  _new > energy  _old

     new trust radius        =       0.0412460032 bohr
     new conv_thr            =       0.0000000100 Ry


ATOMIC_POSITIONS (angstrom)
N            10.0000000000       10.0000000000        0.0000000000    0   0   0
N             9.9999999994       10.0000000002       -1.1081735550



     Writing output data file ./N2_ESM_VA12.save/
     NEW-OLD atomic charge density approx. for the potential

     negative rho (up, down):  3.493E-04 3.493E-04

     Adding external electric field
        E field amplitude [Ha a.u.]: -2.3644E-02
        Potential amp.       -1.6085 Ry
        Total length         34.0151 bohr

     Generating pointlists ...

     total cpu time spent up to now is      457.6 secs

     Self-consistent Calculation

     iteration #  1     ecut=    60.00 Ry     beta= 0.70
     CG style diagonalization
     ethr =  1.00E-06,  avg # of iterations =  8.4

     negative rho (up, down):  2.983E-04 2.983E-04

     total cpu time spent up to now is      489.2 secs

     total energy              =     -40.39099673 Ry
     estimated scf accuracy    <       0.00475302 Ry

     total magnetization       =     0.00 Bohr mag/cell
     absolute magnetization    =     0.00 Bohr mag/cell

     iteration #  2     ecut=    60.00 Ry     beta= 0.70
     CG style diagonalization
     ethr =  4.75E-05,  avg # of iterations =  3.6

     negative rho (up, down):  3.034E-04 3.034E-04

     total cpu time spent up to now is      509.1 secs

     total energy              =     -40.39177697 Ry
     estimated scf accuracy    <       0.00052317 Ry

     total magnetization       =     0.00 Bohr mag/cell
     absolute magnetization    =     0.00 Bohr mag/cell

     iteration #  3     ecut=    60.00 Ry     beta= 0.70
     CG style diagonalization
     ethr =  5.23E-06,  avg # of iterations =  4.0

     negative rho (up, down):  3.036E-04 3.036E-04

     total cpu time spent up to now is      530.1 secs

     total energy              =     -40.39208079 Ry
     estimated scf accuracy    <       0.00021963 Ry

     total magnetization       =    -0.00 Bohr mag/cell
     absolute magnetization    =     0.00 Bohr mag/cell

     iteration #  4     ecut=    60.00 Ry     beta= 0.70
     CG style diagonalization
     ethr =  2.20E-06,  avg # of iterations =  3.1

     negative rho (up, down):  3.003E-04 3.003E-04

     total cpu time spent up to now is      549.1 secs

     total energy              =     -40.39213105 Ry
     estimated scf accuracy    <       0.00003493 Ry

     total magnetization       =    -0.00 Bohr mag/cell
     absolute magnetization    =     0.00 Bohr mag/cell

     iteration #  5     ecut=    60.00 Ry     beta= 0.70
     CG style diagonalization
     ethr =  3.49E-07,  avg # of iterations =  3.1

     negative rho (up, down):  3.001E-04 3.001E-04

     total cpu time spent up to now is      568.1 secs

     total energy              =     -40.39213742 Ry
     estimated scf accuracy    <       0.00000023 Ry

     total magnetization       =     0.00 Bohr mag/cell
     absolute magnetization    =     0.00 Bohr mag/cell

     iteration #  6     ecut=    60.00 Ry     beta= 0.70
     CG style diagonalization
     ethr =  2.32E-09,  avg # of iterations =  4.1

     negative rho (up, down):  3.000E-04 3.000E-04

     total cpu time spent up to now is      589.6 secs

     total energy              =     -40.39213791 Ry
     estimated scf accuracy    <       0.00000009 Ry

     total magnetization       =     0.00 Bohr mag/cell
     absolute magnetization    =     0.00 Bohr mag/cell

     iteration #  7     ecut=    60.00 Ry     beta= 0.70
     CG style diagonalization
     ethr =  8.90E-10,  avg # of iterations =  3.4

     negative rho (up, down):  3.000E-04 3.000E-04

     total cpu time spent up to now is      609.6 secs

     total energy              =     -40.39213796 Ry
     estimated scf accuracy    <       0.00000002 Ry

     total magnetization       =    -0.00 Bohr mag/cell
     absolute magnetization    =     0.00 Bohr mag/cell

     iteration #  8     ecut=    60.00 Ry     beta= 0.70
     CG style diagonalization
     ethr =  1.61E-10,  avg # of iterations =  3.6

     negative rho (up, down):  2.999E-04 2.999E-04

     Magnetic moment per site:
     atom:    1    charge:    1.4866    magn:   -0.0000    constr:    0.0000
     atom:    2    charge:    1.4671    magn:    0.0000    constr:    0.0000

     total cpu time spent up to now is      627.9 secs

     End of self-consistent calculation

 ------ SPIN UP ------------


          k = 0.0000 0.0000 0.0000 (423701 PWs)   bands (ev):

   -36.0765 -21.4742 -19.4369 -19.4369 -18.0170  -9.9844  -9.9844  -8.3012
    -7.9255

          k = 0.0000 0.2500 0.0000 (423725 PWs)   bands (ev):

   -36.0765 -21.4742 -19.4369 -19.4369 -18.0170  -9.9844  -9.9844  -8.2899
    -8.0041

          k = 0.0000-0.5000 0.0000 (423542 PWs)   bands (ev):

   -36.0765 -21.4742 -19.4369 -19.4369 -18.0170  -9.9844  -9.9844  -8.2763
    -8.0570

          k = 0.2500 0.0000 0.0000 (423725 PWs)   bands (ev):

   -36.0765 -21.4742 -19.4369 -19.4369 -18.0170  -9.9844  -9.9844  -8.2900
    -8.0045

          k = 0.2500 0.2500 0.0000 (423766 PWs)   bands (ev):

   -36.0765 -21.4742 -19.4369 -19.4369 -18.0170  -9.9844  -9.9844  -8.2795
    -7.9946

          k = 0.2500-0.5000 0.0000 (423782 PWs)   bands (ev):

   -36.0765 -21.4742 -19.4369 -19.4369 -18.0170  -9.9844  -9.9844  -8.2671
    -8.0343

          k = 0.2500-0.2500 0.0000 (423766 PWs)   bands (ev):

   -36.0765 -21.4742 -19.4369 -19.4369 -18.0170  -9.9844  -9.9844  -8.2797
    -8.0023

          k =-0.5000 0.0000 0.0000 (423542 PWs)   bands (ev):

   -36.0765 -21.4742 -19.4369 -19.4369 -18.0170  -9.9844  -9.9844  -8.2763
    -8.0563

          k =-0.5000 0.2500 0.0000 (423782 PWs)   bands (ev):

   -36.0765 -21.4742 -19.4369 -19.4369 -18.0170  -9.9844  -9.9844  -8.2667
    -8.0328

          k =-0.5000-0.5000 0.0000 (423708 PWs)   bands (ev):

   -36.0765 -21.4742 -19.4369 -19.4369 -18.0170  -9.9844  -9.9844  -8.2566
    -7.9357

 ------ SPIN DOWN ----------


          k = 0.0000 0.0000 0.0000 (423701 PWs)   bands (ev):

   -36.0765 -21.4742 -19.4369 -19.4369 -18.0170  -9.9844  -9.9844  -8.3011
    -7.9230

          k = 0.0000 0.2500 0.0000 (423725 PWs)   bands (ev):

   -36.0765 -21.4742 -19.4369 -19.4369 -18.0170  -9.9844  -9.9844  -8.2898
    -8.0043

          k = 0.0000-0.5000 0.0000 (423542 PWs)   bands (ev):

   -36.0765 -21.4742 -19.4369 -19.4369 -18.0170  -9.9844  -9.9844  -8.2762
    -8.0568

          k = 0.2500 0.0000 0.0000 (423725 PWs)   bands (ev):

   -36.0765 -21.4742 -19.4369 -19.4369 -18.0170  -9.9844  -9.9844  -8.2898
    -8.0035

          k = 0.2500 0.2500 0.0000 (423766 PWs)   bands (ev):

   -36.0765 -21.4742 -19.4369 -19.4369 -18.0170  -9.9844  -9.9844  -8.2796
    -8.0027

          k = 0.2500-0.5000 0.0000 (423782 PWs)   bands (ev):

   -36.0765 -21.4742 -19.4369 -19.4369 -18.0170  -9.9844  -9.9844  -8.2669
    -8.0339

          k = 0.2500-0.2500 0.0000 (423766 PWs)   bands (ev):

   -36.0765 -21.4742 -19.4369 -19.4369 -18.0170  -9.9844  -9.9844  -8.2796
    -8.0028

          k =-0.5000 0.0000 0.0000 (423542 PWs)   bands (ev):

   -36.0765 -21.4742 -19.4369 -19.4369 -18.0170  -9.9844  -9.9844  -8.2762
    -8.0565

          k =-0.5000 0.2500 0.0000 (423782 PWs)   bands (ev):

   -36.0765 -21.4742 -19.4369 -19.4369 -18.0170  -9.9844  -9.9844  -8.2670
    -8.0348

          k =-0.5000-0.5000 0.0000 (423708 PWs)   bands (ev):

   -36.0765 -21.4742 -19.4369 -19.4369 -18.0170  -9.9844  -9.9844  -8.2566
    -7.9850

     the Fermi energy is   -14.8253 ev

!    total energy              =     -40.39213796 Ry
     estimated scf accuracy    <          7.6E-10 Ry
     smearing contrib. (-TS)   =       0.00000000 Ry
     internal energy E=F+TS    =     -40.39213796 Ry

     The total energy is F=E-TS. E is the sum of the following terms:
     one-electron contribution =    -100.09196451 Ry
     hartree contribution      =      48.06667445 Ry
     xc contribution           =     -10.50437694 Ry
     ewald contribution        =      16.37747766 Ry
     Dispersion Correction     =      -0.00000236 Ry
     electric field correction =       5.76005373 Ry

     total magnetization       =     0.00 Bohr mag/cell
     absolute magnetization    =     0.00 Bohr mag/cell

     convergence has been achieved in   8 iterations

     negative rho (up, down):  2.999E-04 2.999E-04

     Forces acting on atoms (cartesian axes, Ry/au):

     atom    1 type  1   force =    -0.00000000    0.00000000   -0.01129475
     atom    2 type  1   force =     0.00000000   -0.00000000    0.01129475

     Total force =     0.011295     Total SCF correction =     0.000007
     Energy error            =      2.8E-03
     Gradient error          =      1.1E-02

     number of scf cycles    =   3
     number of bfgs steps    =   1

     energy   old            =     -40.3893230936 Ry
     energy   new            =     -40.3921379644 Ry

     CASE: energy  _new < energy  _old

     new trust radius        =       0.0041484154 bohr
     new conv_thr            =       0.0000000029 Ry


ATOMIC_POSITIONS (angstrom)
N            10.0000000000       10.0000000000        0.0000000000    0   0   0
N            10.0000000009        9.9999999989       -1.1059783081



     Writing output data file ./N2_ESM_VA12.save/
     NEW-OLD atomic charge density approx. for the potential

     negative rho (up, down):  2.984E-04 2.984E-04

     Adding external electric field
        E field amplitude [Ha a.u.]: -2.3644E-02
        Potential amp.       -1.6085 Ry
        Total length         34.0151 bohr

     Generating pointlists ...

     total cpu time spent up to now is      648.7 secs

     Self-consistent Calculation

     iteration #  1     ecut=    60.00 Ry     beta= 0.70
     CG style diagonalization
     ethr =  1.00E-06,  avg # of iterations =  2.8

     negative rho (up, down):  3.013E-04 3.013E-04

     total cpu time spent up to now is      667.3 secs

     total energy              =     -40.39212867 Ry
     estimated scf accuracy    <       0.00001919 Ry

     total magnetization       =    -0.00 Bohr mag/cell
     absolute magnetization    =     0.00 Bohr mag/cell

     iteration #  2     ecut=    60.00 Ry     beta= 0.70
     CG style diagonalization
     ethr =  1.92E-07,  avg # of iterations =  4.1

     negative rho (up, down):  3.019E-04 3.019E-04

     total cpu time spent up to now is      688.4 secs

     total energy              =     -40.39214673 Ry
     estimated scf accuracy    <       0.00006338 Ry

     total magnetization       =     0.00 Bohr mag/cell
     absolute magnetization    =     0.00 Bohr mag/cell

     iteration #  3     ecut=    60.00 Ry     beta= 0.70
     CG style diagonalization
     ethr =  1.92E-07,  avg # of iterations =  3.2

     negative rho (up, down):  3.022E-04 3.022E-04

     total cpu time spent up to now is      707.6 secs

     total energy              =     -40.39215511 Ry
     estimated scf accuracy    <       0.00000135 Ry

     total magnetization       =    -0.00 Bohr mag/cell
     absolute magnetization    =     0.00 Bohr mag/cell

     iteration #  4     ecut=    60.00 Ry     beta= 0.70
     CG style diagonalization
     ethr =  1.35E-08,  avg # of iterations =  3.3

     negative rho (up, down):  3.022E-04 3.022E-04

     total cpu time spent up to now is      727.2 secs

     total energy              =     -40.39215555 Ry
     estimated scf accuracy    <       0.00000016 Ry

     total magnetization       =     0.00 Bohr mag/cell
     absolute magnetization    =     0.00 Bohr mag/cell

     iteration #  5     ecut=    60.00 Ry     beta= 0.70
     CG style diagonalization
     ethr =  1.62E-09,  avg # of iterations =  3.9

     negative rho (up, down):  3.023E-04 3.023E-04

     total cpu time spent up to now is      748.0 secs

     total energy              =     -40.39215573 Ry
     estimated scf accuracy    <       0.00000007 Ry

     total magnetization       =     0.00 Bohr mag/cell
     absolute magnetization    =     0.00 Bohr mag/cell

     iteration #  6     ecut=    60.00 Ry     beta= 0.70
     CG style diagonalization
     ethr =  6.79E-10,  avg # of iterations =  3.4

     negative rho (up, down):  3.023E-04 3.023E-04

     total cpu time spent up to now is      767.9 secs

     total energy              =     -40.39215575 Ry
     estimated scf accuracy    <       0.00000001 Ry

     total magnetization       =    -0.00 Bohr mag/cell
     absolute magnetization    =     0.00 Bohr mag/cell

     iteration #  7     ecut=    60.00 Ry     beta= 0.70
     CG style diagonalization
     ethr =  1.14E-10,  avg # of iterations =  3.3

     negative rho (up, down):  3.023E-04 3.023E-04

     Magnetic moment per site:
     atom:    1    charge:    1.4883    magn:   -0.0000    constr:    0.0000
     atom:    2    charge:    1.4689    magn:    0.0000    constr:    0.0000

     total cpu time spent up to now is      785.6 secs

     End of self-consistent calculation

 ------ SPIN UP ------------


          k = 0.0000 0.0000 0.0000 (423701 PWs)   bands (ev):

   -36.1113 -21.4606 -19.4558 -19.4558 -18.0191  -9.9607  -9.9607  -8.3010
    -7.9255

          k = 0.0000 0.2500 0.0000 (423725 PWs)   bands (ev):

   -36.1113 -21.4606 -19.4558 -19.4558 -18.0191  -9.9607  -9.9607  -8.2898
    -8.0042

          k = 0.0000-0.5000 0.0000 (423542 PWs)   bands (ev):

   -36.1113 -21.4606 -19.4558 -19.4558 -18.0191  -9.9607  -9.9607  -8.2761
    -8.0571

          k = 0.2500 0.0000 0.0000 (423725 PWs)   bands (ev):

   -36.1113 -21.4606 -19.4558 -19.4558 -18.0191  -9.9607  -9.9607  -8.2898
    -8.0045

          k = 0.2500 0.2500 0.0000 (423766 PWs)   bands (ev):

   -36.1113 -21.4606 -19.4558 -19.4558 -18.0191  -9.9607  -9.9607  -8.2793
    -7.9951

          k = 0.2500-0.5000 0.0000 (423782 PWs)   bands (ev):

   -36.1113 -21.4606 -19.4558 -19.4558 -18.0191  -9.9607  -9.9607  -8.2669
    -8.0344

          k = 0.2500-0.2500 0.0000 (423766 PWs)   bands (ev):

   -36.1113 -21.4606 -19.4558 -19.4558 -18.0191  -9.9607  -9.9607  -8.2795
    -8.0025

          k =-0.5000 0.0000 0.0000 (423542 PWs)   bands (ev):

   -36.1113 -21.4606 -19.4558 -19.4558 -18.0191  -9.9607  -9.9607  -8.2761
    -8.0566

          k =-0.5000 0.2500 0.0000 (423782 PWs)   bands (ev):

   -36.1113 -21.4606 -19.4558 -19.4558 -18.0191  -9.9607  -9.9607  -8.2667
    -8.0331

          k =-0.5000-0.5000 0.0000 (423708 PWs)   bands (ev):

   -36.1113 -21.4606 -19.4558 -19.4558 -18.0191  -9.9607  -9.9607  -8.2563
    -7.9358

 ------ SPIN DOWN ----------


          k = 0.0000 0.0000 0.0000 (423701 PWs)   bands (ev):

   -36.1113 -21.4606 -19.4558 -19.4558 -18.0191  -9.9607  -9.9607  -8.3010
    -7.9231

          k = 0.0000 0.2500 0.0000 (423725 PWs)   bands (ev):

   -36.1113 -21.4606 -19.4558 -19.4558 -18.0191  -9.9607  -9.9607  -8.2897
    -8.0044

          k = 0.0000-0.5000 0.0000 (423542 PWs)   bands (ev):

   -36.1113 -21.4606 -19.4558 -19.4558 -18.0191  -9.9607  -9.9607  -8.2760
    -8.0569

          k = 0.2500 0.0000 0.0000 (423725 PWs)   bands (ev):

   -36.1113 -21.4606 -19.4558 -19.4558 -18.0191  -9.9607  -9.9607  -8.2897
    -8.0037

          k = 0.2500 0.2500 0.0000 (423766 PWs)   bands (ev):

   -36.1113 -21.4606 -19.4558 -19.4558 -18.0191  -9.9607  -9.9607  -8.2794
    -8.0028

          k = 0.2500-0.5000 0.0000 (423782 PWs)   bands (ev):

   -36.1113 -21.4606 -19.4558 -19.4558 -18.0191  -9.9607  -9.9607  -8.2668
    -8.0341

          k = 0.2500-0.2500 0.0000 (423766 PWs)   bands (ev):

   -36.1113 -21.4606 -19.4558 -19.4558 -18.0191  -9.9607  -9.9607  -8.2794
    -8.0029

          k =-0.5000 0.0000 0.0000 (423542 PWs)   bands (ev):

   -36.1113 -21.4606 -19.4558 -19.4558 -18.0191  -9.9607  -9.9607  -8.2760
    -8.0567

          k =-0.5000 0.2500 0.0000 (423782 PWs)   bands (ev):

   -36.1113 -21.4606 -19.4558 -19.4558 -18.0191  -9.9607  -9.9607  -8.2668
    -8.0349

          k =-0.5000-0.5000 0.0000 (423708 PWs)   bands (ev):

   -36.1113 -21.4606 -19.4558 -19.4558 -18.0191  -9.9607  -9.9607  -8.2563
    -7.9852

     the Fermi energy is   -14.8341 ev

!    total energy              =     -40.39215576 Ry
     estimated scf accuracy    <          3.4E-10 Ry
     smearing contrib. (-TS)   =       0.00000000 Ry
     internal energy E=F+TS    =     -40.39215576 Ry

     The total energy is F=E-TS. E is the sum of the following terms:
     one-electron contribution =    -100.17594627 Ry
     hartree contribution      =      48.10745985 Ry
     xc contribution           =     -10.50953670 Ry
     ewald contribution        =      16.42483515 Ry
     Dispersion Correction     =      -0.00000236 Ry
     electric field correction =       5.76103457 Ry

     total magnetization       =     0.00 Bohr mag/cell
     absolute magnetization    =     0.00 Bohr mag/cell

     convergence has been achieved in   7 iterations

     negative rho (up, down):  3.023E-04 3.023E-04

     Forces acting on atoms (cartesian axes, Ry/au):

     atom    1 type  1   force =    -0.00000000    0.00000000    0.00110795
     atom    2 type  1   force =     0.00000000   -0.00000000   -0.00110795

     Total force =     0.001108     Total SCF correction =     0.000013
     Energy error            =      1.8E-05
     Gradient error          =      1.1E-03

     number of scf cycles    =   4
     number of bfgs steps    =   2

     energy   old            =     -40.3921379644 Ry
     energy   new            =     -40.3921557555 Ry

     CASE: energy  _new < energy  _old

     new trust radius        =       0.0003705840 bohr
     new conv_thr            =       0.0000000003 Ry


ATOMIC_POSITIONS (angstrom)
N            10.0000000000       10.0000000000        0.0000000000    0   0   0
N            10.0000000022        9.9999999977       -1.1061744127



     Writing output data file ./N2_ESM_VA12.save/
     NEW-OLD atomic charge density approx. for the potential

     negative rho (up, down):  3.024E-04 3.024E-04

     Adding external electric field
        E field amplitude [Ha a.u.]: -2.3644E-02
        Potential amp.       -1.6085 Ry
        Total length         34.0151 bohr

     Generating pointlists ...

     total cpu time spent up to now is      806.4 secs

     Self-consistent Calculation

     iteration #  1     ecut=    60.00 Ry     beta= 0.70
     CG style diagonalization
     ethr =  1.00E-06,  avg # of iterations =  2.0

     Threshold (ethr) on eigenvalues was too large:
     Diagonalizing with lowered threshold

     CG style diagonalization
     ethr =  1.58E-09,  avg # of iterations =  3.1

     negative rho (up, down):  3.022E-04 3.022E-04

     total cpu time spent up to now is      833.0 secs

     total energy              =     -40.39215623 Ry
     estimated scf accuracy    <       0.00000010 Ry

     total magnetization       =    -0.00 Bohr mag/cell
     absolute magnetization    =     0.00 Bohr mag/cell

     iteration #  2     ecut=    60.00 Ry     beta= 0.70
     CG style diagonalization
     ethr =  9.57E-10,  avg # of iterations =  3.6

     negative rho (up, down):  3.021E-04 3.021E-04

     total cpu time spent up to now is      852.9 secs

     total energy              =     -40.39215624 Ry
     estimated scf accuracy    <       0.00000008 Ry

     total magnetization       =    -0.00 Bohr mag/cell
     absolute magnetization    =     0.00 Bohr mag/cell

     iteration #  3     ecut=    60.00 Ry     beta= 0.70
     CG style diagonalization
     ethr =  7.73E-10,  avg # of iterations =  3.3

     negative rho (up, down):  3.021E-04 3.021E-04

     total cpu time spent up to now is      872.3 secs

     total energy              =     -40.39215626 Ry
     estimated scf accuracy    <       0.00000002 Ry

     total magnetization       =     0.00 Bohr mag/cell
     absolute magnetization    =     0.00 Bohr mag/cell

     iteration #  4     ecut=    60.00 Ry     beta= 0.70
     CG style diagonalization
     ethr =  1.55E-10,  avg # of iterations =  3.0

     negative rho (up, down):  3.021E-04 3.021E-04

     Magnetic moment per site:
     atom:    1    charge:    1.4882    magn:   -0.0000    constr:    0.0000
     atom:    2    charge:    1.4687    magn:    0.0000    constr:    0.0000

     total cpu time spent up to now is      889.2 secs

     End of self-consistent calculation

 ------ SPIN UP ------------


          k = 0.0000 0.0000 0.0000 (423701 PWs)   bands (ev):

   -36.1082 -21.4619 -19.4542 -19.4542 -18.0190  -9.9629  -9.9629  -8.3010
    -7.9255

          k = 0.0000 0.2500 0.0000 (423725 PWs)   bands (ev):

   -36.1082 -21.4619 -19.4542 -19.4542 -18.0190  -9.9629  -9.9629  -8.2898
    -8.0043

          k = 0.0000-0.5000 0.0000 (423542 PWs)   bands (ev):

   -36.1082 -21.4619 -19.4542 -19.4542 -18.0190  -9.9629  -9.9629  -8.2761
    -8.0571

          k = 0.2500 0.0000 0.0000 (423725 PWs)   bands (ev):

   -36.1082 -21.4619 -19.4542 -19.4542 -18.0190  -9.9629  -9.9629  -8.2899
    -8.0046

          k = 0.2500 0.2500 0.0000 (423766 PWs)   bands (ev):

   -36.1082 -21.4619 -19.4542 -19.4542 -18.0190  -9.9629  -9.9629  -8.2794
    -7.9954

          k = 0.2500-0.5000 0.0000 (423782 PWs)   bands (ev):

   -36.1082 -21.4619 -19.4542 -19.4542 -18.0190  -9.9629  -9.9629  -8.2670
    -8.0345

          k = 0.2500-0.2500 0.0000 (423766 PWs)   bands (ev):

   -36.1082 -21.4619 -19.4542 -19.4542 -18.0190  -9.9629  -9.9629  -8.2795
    -8.0027

          k =-0.5000 0.0000 0.0000 (423542 PWs)   bands (ev):

   -36.1082 -21.4619 -19.4542 -19.4542 -18.0190  -9.9629  -9.9629  -8.2761
    -8.0567

          k =-0.5000 0.2500 0.0000 (423782 PWs)   bands (ev):

   -36.1082 -21.4619 -19.4542 -19.4542 -18.0190  -9.9629  -9.9629  -8.2668
    -8.0332

          k =-0.5000-0.5000 0.0000 (423708 PWs)   bands (ev):

   -36.1082 -21.4619 -19.4542 -19.4542 -18.0190  -9.9629  -9.9629  -8.2564
    -7.9358

 ------ SPIN DOWN ----------


          k = 0.0000 0.0000 0.0000 (423701 PWs)   bands (ev):

   -36.1082 -21.4619 -19.4542 -19.4542 -18.0190  -9.9629  -9.9629  -8.3010
    -7.9233

          k = 0.0000 0.2500 0.0000 (423725 PWs)   bands (ev):

   -36.1082 -21.4619 -19.4542 -19.4542 -18.0190  -9.9629  -9.9629  -8.2898
    -8.0045

          k = 0.0000-0.5000 0.0000 (423542 PWs)   bands (ev):

   -36.1082 -21.4619 -19.4542 -19.4542 -18.0190  -9.9629  -9.9629  -8.2761
    -8.0570

          k = 0.2500 0.0000 0.0000 (423725 PWs)   bands (ev):

   -36.1082 -21.4619 -19.4542 -19.4542 -18.0190  -9.9629  -9.9629  -8.2898
    -8.0038

          k = 0.2500 0.2500 0.0000 (423766 PWs)   bands (ev):

   -36.1082 -21.4619 -19.4542 -19.4542 -18.0190  -9.9629  -9.9629  -8.2795
    -8.0029

          k = 0.2500-0.5000 0.0000 (423782 PWs)   bands (ev):

   -36.1082 -21.4619 -19.4542 -19.4542 -18.0190  -9.9629  -9.9629  -8.2668
    -8.0342

          k = 0.2500-0.2500 0.0000 (423766 PWs)   bands (ev):

   -36.1082 -21.4619 -19.4542 -19.4542 -18.0190  -9.9629  -9.9629  -8.2795
    -8.0030

          k =-0.5000 0.0000 0.0000 (423542 PWs)   bands (ev):

   -36.1082 -21.4619 -19.4542 -19.4542 -18.0190  -9.9629  -9.9629  -8.2761
    -8.0568

          k =-0.5000 0.2500 0.0000 (423782 PWs)   bands (ev):

   -36.1082 -21.4619 -19.4542 -19.4542 -18.0190  -9.9629  -9.9629  -8.2669
    -8.0349

          k =-0.5000-0.5000 0.0000 (423708 PWs)   bands (ev):

   -36.1082 -21.4619 -19.4542 -19.4542 -18.0190  -9.9629  -9.9629  -8.2564
    -7.9853

     the Fermi energy is   -14.8335 ev

!    total energy              =     -40.39215627 Ry
     estimated scf accuracy    <          2.0E-10 Ry
     smearing contrib. (-TS)   =       0.00000000 Ry
     internal energy E=F+TS    =     -40.39215627 Ry

     The total energy is F=E-TS. E is the sum of the following terms:
     one-electron contribution =    -100.16848803 Ry
     hartree contribution      =      48.10387741 Ry
     xc contribution           =     -10.50908722 Ry
     ewald contribution        =      16.42059698 Ry
     Dispersion Correction     =      -0.00000236 Ry
     electric field correction =       5.76094695 Ry

     total magnetization       =     0.00 Bohr mag/cell
     absolute magnetization    =     0.00 Bohr mag/cell

     convergence has been achieved in   4 iterations

     negative rho (up, down):  3.021E-04 3.021E-04

     Forces acting on atoms (cartesian axes, Ry/au):

     atom    1 type  1   force =    -0.00000000    0.00000000   -0.00000883
     atom    2 type  1   force =     0.00000000   -0.00000000    0.00000883

     Total force =     0.000009     Total SCF correction =     0.000024
     SCF correction compared to forces is large: reduce conv_thr to get better values
     Energy error            =      5.1E-07
     Gradient error          =      8.8E-06
Begin final coordinates

ATOMIC_POSITIONS (angstrom)
N            10.0000000000       10.0000000000        0.0000000000    0   0   0
N            10.0000000022        9.9999999977       -1.1061744127
End final coordinates



     Writing output data file ./N2_ESM_VA12.save/

     lsda relaxation :  a final configuration with zero
                        absolute magnetization has been found

     the program is checking if it is really the minimum energy structure
     by performing a new scf iteration without any "electronic" history

     Initial potential from superposition of free atoms

     starting charge    9.99999, renormalised to   10.00000

     negative rho (up, down):  1.334E-04 1.091E-04

     total cpu time spent up to now is      907.8 secs

     Self-consistent Calculation

     iteration #  1     ecut=    60.00 Ry     beta= 0.70
     CG style diagonalization
     ethr =  1.00E-06,  avg # of iterations = 10.6

     negative rho (up, down):  2.489E-04 2.422E-04

     total cpu time spent up to now is      944.5 secs

     total energy              =     -40.33037606 Ry
     estimated scf accuracy    <       0.20767180 Ry

     total magnetization       =     0.00 Bohr mag/cell
     absolute magnetization    =     0.06 Bohr mag/cell

     iteration #  2     ecut=    60.00 Ry     beta= 0.70
     CG style diagonalization
     ethr =  2.08E-03,  avg # of iterations =  3.6

     negative rho (up, down):  3.273E-04 3.240E-04

     total cpu time spent up to now is      964.4 secs

     total energy              =     -40.31968176 Ry
     estimated scf accuracy    <       0.23878127 Ry

     total magnetization       =    -0.00 Bohr mag/cell
     absolute magnetization    =     0.03 Bohr mag/cell

     iteration #  3     ecut=    60.00 Ry     beta= 0.70
     CG style diagonalization
     ethr =  2.08E-03,  avg # of iterations =  3.3

     negative rho (up, down):  3.026E-04 3.019E-04

     total cpu time spent up to now is      983.9 secs

     total energy              =     -40.38625533 Ry
     estimated scf accuracy    <       0.03609242 Ry

     total magnetization       =     0.00 Bohr mag/cell
     absolute magnetization    =     0.02 Bohr mag/cell

     iteration #  4     ecut=    60.00 Ry     beta= 0.70
     CG style diagonalization
     ethr =  3.61E-04,  avg # of iterations =  3.0

     negative rho (up, down):  2.997E-04 2.988E-04

     total cpu time spent up to now is     1002.6 secs

     total energy              =     -40.39161601 Ry
     estimated scf accuracy    <       0.00044279 Ry

     total magnetization       =    -0.00 Bohr mag/cell
     absolute magnetization    =     0.02 Bohr mag/cell

     iteration #  5     ecut=    60.00 Ry     beta= 0.70
     CG style diagonalization
     ethr =  4.43E-06,  avg # of iterations =  5.6

     negative rho (up, down):  3.015E-04 3.011E-04

     total cpu time spent up to now is     1027.4 secs

     total energy              =     -40.39208552 Ry
     estimated scf accuracy    <       0.00019646 Ry

     total magnetization       =    -0.00 Bohr mag/cell
     absolute magnetization    =     0.01 Bohr mag/cell

     iteration #  6     ecut=    60.00 Ry     beta= 0.70
     CG style diagonalization
     ethr =  1.96E-06,  avg # of iterations =  4.5

     negative rho (up, down):  3.018E-04 3.014E-04

     total cpu time spent up to now is     1049.9 secs

     total energy              =     -40.39214420 Ry
     estimated scf accuracy    <       0.00004823 Ry

     total magnetization       =     0.00 Bohr mag/cell
     absolute magnetization    =     0.00 Bohr mag/cell

     iteration #  7     ecut=    60.00 Ry     beta= 0.70
     CG style diagonalization
     ethr =  4.82E-07,  avg # of iterations =  3.6

     negative rho (up, down):  3.024E-04 3.023E-04

     total cpu time spent up to now is     1070.3 secs

     total energy              =     -40.39215385 Ry
     estimated scf accuracy    <       0.00000881 Ry

     total magnetization       =     0.00 Bohr mag/cell
     absolute magnetization    =     0.00 Bohr mag/cell

     iteration #  8     ecut=    60.00 Ry     beta= 0.70
     CG style diagonalization
     ethr =  8.81E-08,  avg # of iterations =  3.8

     negative rho (up, down):  3.021E-04 3.021E-04

     total cpu time spent up to now is     1091.2 secs

     total energy              =     -40.39215573 Ry
     estimated scf accuracy    <       0.00000505 Ry

     total magnetization       =    -0.00 Bohr mag/cell
     absolute magnetization    =     0.00 Bohr mag/cell

     iteration #  9     ecut=    60.00 Ry     beta= 0.70
     CG style diagonalization
     ethr =  5.05E-08,  avg # of iterations =  3.3

     negative rho (up, down):  3.021E-04 3.021E-04

     total cpu time spent up to now is     1111.0 secs

     total energy              =     -40.39215609 Ry
     estimated scf accuracy    <       0.00000080 Ry

     total magnetization       =    -0.00 Bohr mag/cell
     absolute magnetization    =     0.00 Bohr mag/cell

     iteration # 10     ecut=    60.00 Ry     beta= 0.70
     CG style diagonalization
     ethr =  8.03E-09,  avg # of iterations =  3.4

     negative rho (up, down):  3.020E-04 3.021E-04

     total cpu time spent up to now is     1131.4 secs

     total energy              =     -40.39215624 Ry
     estimated scf accuracy    <       0.00000002 Ry

     total magnetization       =     0.00 Bohr mag/cell
     absolute magnetization    =     0.00 Bohr mag/cell

     iteration # 11     ecut=    60.00 Ry     beta= 0.70
     CG style diagonalization
     ethr =  1.74E-10,  avg # of iterations =  4.0

     negative rho (up, down):  3.021E-04 3.021E-04

     total cpu time spent up to now is     1153.0 secs

     total energy              =     -40.39215626 Ry
     estimated scf accuracy    <       0.00000001 Ry

     total magnetization       =    -0.00 Bohr mag/cell
     absolute magnetization    =     0.00 Bohr mag/cell

     iteration # 12     ecut=    60.00 Ry     beta= 0.70
     CG style diagonalization
     ethr =  1.11E-10,  avg # of iterations =  3.0

     negative rho (up, down):  3.021E-04 3.021E-04

     total cpu time spent up to now is     1172.5 secs

     total energy              =     -40.39215627 Ry
     estimated scf accuracy    <          2.5E-09 Ry

     total magnetization       =    -0.00 Bohr mag/cell
     absolute magnetization    =     0.00 Bohr mag/cell

     iteration # 13     ecut=    60.00 Ry     beta= 0.70
     CG style diagonalization
     ethr =  2.47E-11,  avg # of iterations =  3.4

     negative rho (up, down):  3.021E-04 3.021E-04

     total cpu time spent up to now is     1193.0 secs

     total energy              =     -40.39215627 Ry
     estimated scf accuracy    <          5.2E-10 Ry

     total magnetization       =    -0.00 Bohr mag/cell
     absolute magnetization    =     0.00 Bohr mag/cell

     iteration # 14     ecut=    60.00 Ry     beta= 0.70
     CG style diagonalization
     ethr =  5.17E-12,  avg # of iterations =  3.6

     negative rho (up, down):  3.021E-04 3.021E-04

     Magnetic moment per site:
     atom:    1    charge:    1.4882    magn:   -0.0000    constr:    0.0000
     atom:    2    charge:    1.4687    magn:    0.0000    constr:    0.0000

     total cpu time spent up to now is     1211.3 secs

     End of self-consistent calculation

 ------ SPIN UP ------------


          k = 0.0000 0.0000 0.0000 (423701 PWs)   bands (ev):

   -36.1082 -21.4618 -19.4541 -19.4541 -18.0189  -9.9629  -9.9629  -8.3009
    -7.9252

          k = 0.0000 0.2500 0.0000 (423725 PWs)   bands (ev):

   -36.1082 -21.4618 -19.4541 -19.4541 -18.0189  -9.9629  -9.9629  -8.2898
    -8.0044

          k = 0.0000-0.5000 0.0000 (423542 PWs)   bands (ev):

   -36.1082 -21.4618 -19.4541 -19.4541 -18.0189  -9.9629  -9.9629  -8.2760
    -8.0569

          k = 0.2500 0.0000 0.0000 (423725 PWs)   bands (ev):

   -36.1082 -21.4618 -19.4541 -19.4541 -18.0189  -9.9629  -9.9629  -8.2893
    -8.0043

          k = 0.2500 0.2500 0.0000 (423766 PWs)   bands (ev):

   -36.1082 -21.4619 -19.4541 -19.4541 -18.0189  -9.9629  -9.9629  -8.2794
    -7.9981

          k = 0.2500-0.5000 0.0000 (423782 PWs)   bands (ev):

   -36.1082 -21.4619 -19.4541 -19.4541 -18.0189  -9.9629  -9.9629  -8.2668
    -8.0344

          k = 0.2500-0.2500 0.0000 (423766 PWs)   bands (ev):

   -36.1082 -21.4619 -19.4541 -19.4541 -18.0189  -9.9629  -9.9629  -8.2794
    -8.0025

          k =-0.5000 0.0000 0.0000 (423542 PWs)   bands (ev):

   -36.1082 -21.4618 -19.4541 -19.4541 -18.0189  -9.9629  -9.9629  -8.2760
    -8.0570

          k =-0.5000 0.2500 0.0000 (423782 PWs)   bands (ev):

   -36.1082 -21.4619 -19.4541 -19.4541 -18.0189  -9.9629  -9.9629  -8.2668
    -8.0340

          k =-0.5000-0.5000 0.0000 (423708 PWs)   bands (ev):

   -36.1082 -21.4619 -19.4541 -19.4541 -18.0189  -9.9629  -9.9629  -8.2564
    -7.9359

 ------ SPIN DOWN ----------


          k = 0.0000 0.0000 0.0000 (423701 PWs)   bands (ev):

   -36.1082 -21.4618 -19.4541 -19.4541 -18.0189  -9.9629  -9.9629  -8.3010
    -7.9239

          k = 0.0000 0.2500 0.0000 (423725 PWs)   bands (ev):

   -36.1082 -21.4618 -19.4541 -19.4541 -18.0189  -9.9629  -9.9629  -8.2893
    -8.0044

          k = 0.0000-0.5000 0.0000 (423542 PWs)   bands (ev):

   -36.1082 -21.4618 -19.4541 -19.4541 -18.0189  -9.9629  -9.9629  -8.2756
    -8.0567

          k = 0.2500 0.0000 0.0000 (423725 PWs)   bands (ev):

   -36.1082 -21.4618 -19.4541 -19.4541 -18.0189  -9.9629  -9.9629  -8.2897
    -8.0039

          k = 0.2500 0.2500 0.0000 (423766 PWs)   bands (ev):

   -36.1082 -21.4619 -19.4541 -19.4541 -18.0189  -9.9629  -9.9629  -8.2794
    -8.0025

          k = 0.2500-0.5000 0.0000 (423782 PWs)   bands (ev):

   -36.1082 -21.4619 -19.4541 -19.4541 -18.0189  -9.9629  -9.9629  -8.2668
    -8.0343

          k = 0.2500-0.2500 0.0000 (423766 PWs)   bands (ev):

   -36.1082 -21.4619 -19.4541 -19.4541 -18.0189  -9.9629  -9.9629  -8.2792
    -8.0027

          k =-0.5000 0.0000 0.0000 (423542 PWs)   bands (ev):

   -36.1082 -21.4618 -19.4541 -19.4541 -18.0189  -9.9629  -9.9629  -8.2756
    -8.0566

          k =-0.5000 0.2500 0.0000 (423782 PWs)   bands (ev):

   -36.1082 -21.4619 -19.4541 -19.4541 -18.0189  -9.9629  -9.9629  -8.2665
    -8.0346

          k =-0.5000-0.5000 0.0000 (423708 PWs)   bands (ev):

   -36.1082 -21.4619 -19.4541 -19.4541 -18.0189  -9.9629  -9.9629  -8.2562
    -7.9863

     the Fermi energy is   -14.8339 ev

!    total energy              =     -40.39215627 Ry
     estimated scf accuracy    <          5.4E-11 Ry
     smearing contrib. (-TS)   =       0.00000000 Ry
     internal energy E=F+TS    =     -40.39215627 Ry

     The total energy is F=E-TS. E is the sum of the following terms:
     one-electron contribution =    -100.16845406 Ry
     hartree contribution      =      48.10383648 Ry
     xc contribution           =     -10.50908026 Ry
     ewald contribution        =      16.42059698 Ry
     Dispersion Correction     =      -0.00000236 Ry
     electric field correction =       5.76094695 Ry

     total magnetization       =     0.00 Bohr mag/cell
     absolute magnetization    =     0.00 Bohr mag/cell

     convergence has been achieved in  14 iterations

     negative rho (up, down):  3.021E-04 3.021E-04

     Forces acting on atoms (cartesian axes, Ry/au):

     atom    1 type  1   force =     0.00000000   -0.00000000   -0.00000726
     atom    2 type  1   force =    -0.00000000    0.00000000    0.00000726

     Total force =     0.000007     Total SCF correction =     0.000009
     SCF correction compared to forces is large: reduce conv_thr to get better values
     Energy error            =      5.1E-07
     Gradient error          =      7.3E-06

     bfgs converged in   5 scf cycles and   3 bfgs steps
     (criteria: energy <  7.3E-07 Ry, force <  3.9E-04 Ry/Bohr)

     End of BFGS Geometry Optimization

     Final energy   =     -40.3921562669 Ry

     File ./N2_ESM_VA12.bfgs deleted, as requested
Begin final coordinates

ATOMIC_POSITIONS (angstrom)
N            10.0000000000       10.0000000000        0.0000000000    0   0   0
N            10.0000000022        9.9999999977       -1.1061744127
End final coordinates



     Writing output data file ./N2_ESM_VA12.save/

     init_run     :     19.92s CPU     21.14s WALL (       1 calls)
     electrons    :   1032.93s CPU   1103.91s WALL (       6 calls)
     update_pot   :     29.58s CPU     31.31s WALL (       4 calls)
     forces       :     46.55s CPU     50.03s WALL (       6 calls)

     Called by init_run:
     wfcinit      :      1.83s CPU      1.90s WALL (       1 calls)
     potinit      :     14.56s CPU     15.77s WALL (       2 calls)
     hinit0       :      1.03s CPU      1.18s WALL (       1 calls)

     Called by electrons:
     c_bands      :    462.90s CPU    469.84s WALL (      52 calls)
     sum_band     :    122.68s CPU    126.62s WALL (      52 calls)
     v_of_rho     :    320.25s CPU    349.55s WALL (      57 calls)
     newd         :     41.89s CPU     44.28s WALL (      57 calls)
     mix_rho      :     67.32s CPU     82.15s WALL (      52 calls)

     Called by c_bands:
     init_us_2    :      2.06s CPU      2.14s WALL (     333 calls)
     ccgdiagg     :    370.43s CPU    374.68s WALL (     156 calls)
     wfcrot       :     85.90s CPU     86.86s WALL (     138 calls)

     Called by *cgdiagg:
     h_psi        :    389.80s CPU    394.23s WALL (    4645 calls)
     s_psi        :     27.57s CPU     27.88s WALL (    9152 calls)

     Called by h_psi:
     h_psi:calbec :     17.71s CPU     17.94s WALL (    4645 calls)
     vloc_psi     :    349.18s CPU    353.12s WALL (    4645 calls)
     add_vuspsi   :     20.95s CPU     21.19s WALL (    4645 calls)
     hs_1psi      :    323.41s CPU    327.10s WALL (    4507 calls)
     s_1psi       :     29.76s CPU     30.07s WALL (    4507 calls)

     General routines
     calbec       :     34.29s CPU     34.74s WALL (    9380 calls)
     fft          :    349.84s CPU    359.76s WALL (    1507 calls)
     ffts         :     18.58s CPU     18.74s WALL (     218 calls)
     fftw         :    323.95s CPU    327.52s WALL (   12902 calls)
     interpolate  :     39.05s CPU     42.01s WALL (     114 calls)
     davcio       :      0.15s CPU      8.91s WALL (    1002 calls)

     Parallel routines
     fft_scatt_xy :    113.72s CPU    115.02s WALL (   14627 calls)
     fft_scatt_yz :    234.57s CPU    237.35s WALL (   14627 calls)

     PWSCF        :  19m 5.70s CPU  20m24.96s WALL


   This run was terminated on:  21:10:33  28Sep2022            

=------------------------------------------------------------------------------=
   JOB DONE.
=------------------------------------------------------------------------------=
