
     Program PWSCF v.6.4.1 starts on 15Jun2022 at 15: 7:38 

     This program is part of the open-source Quantum ESPRESSO suite
     for quantum simulation of materials; please cite
         "P. Giannozzi et al., J. Phys.:Condens. Matter 21 395502 (2009);
         "P. Giannozzi et al., J. Phys.:Condens. Matter 29 465901 (2017);
          URL http://www.quantum-espresso.org", 
     in publications or presentations arising from this work. More details at
     http://www.quantum-espresso.org/quote

     Parallel version (MPI), running on   160 processors

     MPI processes distributed on     8 nodes
     K-points division:     npool     =       8
     R & G space division:  proc/nbgrp/npool/nimage =      20
     Waiting for input...
     Reading input from standard input
Warning: card &CELL ignored
Warning: card / ignored

     Current dimensions of program PWSCF are:
     Max number of different atomic species (ntypx) = 10
     Max number of k-points (npk) =  40000
     Max angular momentum in pseudopotentials (lmaxx) =  3

     IMPORTANT: XC functional enforced from input :
     Exchange-correlation      = PBE ( 1  4  3  4 0 0)
     Any further DFT definition will be discarded
     Please, verify this is what you really want

               file Fe.pbe-spn-kjpaw_psl.0.2.1.UPF: wavefunction(s)  3D renormalized

     -------------------------------------------------
     Parameters for Dispersion (Grimme-D2) Correction:
     -------------------------------------------------
       atom      VdW radius       C_6     

        Fe         2.952        374.666
        N          2.640         42.670

     Subspace diagonalization in iterative solution of the eigenvalue problem:
     one sub-group per band group will be used
     scalapack distributed-memory algorithm (size of sub-group:  3*  3 procs)


     Parallelization info
     --------------------
     sticks:   dense  smooth     PW     G-vecs:    dense   smooth      PW
     Min         634     317     83               145278    51361    6989
     Max         635     318     84               145287    51370    7000
     Sum       12685    6351   1677              2905599  1027285  139897



     bravais-lattice index     =            0
     lattice parameter (alat)  =      18.7640  a.u.
     unit-cell volume          =   16360.3163 (a.u.)^3
     number of atoms/cell      =           65
     number of atomic types    =            2
     number of electrons       =      1029.00
     number of Kohn-Sham states=          618
     kinetic-energy cutoff     =      60.0000  Ry
     charge density cutoff     =     480.0000  Ry
     convergence threshold     =      1.0E-08
     mixing beta               =       0.2000
     number of iterations used =           10  local-TF  mixing
     Exchange-correlation      = PBE ( 1  4  3  4 0 0)
     nstep                     =           50


     Effective Screening Medium Method
     =================================
     Boundary Conditions: Metal-Slab-Metal
     field strength                   =    -0.02 Ry/a.u.
     grid points for fit at edges     =        4 


     celldm(1)=  18.764036  celldm(2)=   0.000000  celldm(3)=   0.000000
     celldm(4)=   0.000000  celldm(5)=   0.000000  celldm(6)=   0.000000

     crystal axes: (cart. coord. in units of alat)
               a(1) = (   1.000000   0.000000   0.000000 )  
               a(2) = (   0.333330   0.942807   0.000000 )  
               a(3) = (   0.000000   0.000000   2.626577 )  

     reciprocal axes: (cart. coord. in units 2 pi/alat)
               b(1) = (  1.000000 -0.353551  0.000000 )  
               b(2) = (  0.000000  1.060663  0.000000 )  
               b(3) = (  0.000000  0.000000  0.380724 )  


     PseudoPot. # 1 for Fe read from file:
     ../../SSSP/Fe.pbe-spn-kjpaw_psl.0.2.1.UPF
     MD5 check sum: e86618425769142926afa95317d90200
     Pseudo is Projector augmented-wave + core cor, Zval = 16.0
     Generated using "atomic" code by A. Dal Corso v.5.0.99 svn rev. 10869
     Shape of augmentation charge: PSQ
     Using radial grid of 1191 points,  6 beta functions with: 
                l(1) =   0
                l(2) =   0
                l(3) =   1
                l(4) =   1
                l(5) =   2
                l(6) =   2
     Q(r) pseudized with 0 coefficients 


     PseudoPot. # 2 for N  read from file:
     ../../SSSP/N.pbe-n-radius_5.UPF
     MD5 check sum: 16739722b17309cd8fe442a2ace49922
     Pseudo is Ultrasoft + core correction, Zval =  5.0
     Generated using "atomic" code by A. Dal Corso v.5.1
     Using radial grid of 1085 points,  4 beta functions with: 
                l(1) =   0
                l(2) =   0
                l(3) =   1
                l(4) =   1
     Q(r) pseudized with 0 coefficients 


     atomic species   valence    mass     pseudopotential
        Fe            16.00    55.84500     Fe( 1.00)
        N              5.00    14.00700     N ( 1.00)

     Starting magnetic structure 
     atomic species   magnetization
        Fe           0.100
        N            0.100

     No symmetry found



   Cartesian axes

     site n.     atom                  positions (alat units)
         1           Fe  tau(   1) = (   0.1666663   0.1178509   0.0000000  )
         2           Fe  tau(   2) = (   0.0000000   0.0000000   0.2041376  )
         3           Fe  tau(   3) = (   0.4999989   0.3535526   0.0000000  )
         4           Fe  tau(   4) = (   0.3333326   0.2357017   0.2041376  )
         5           Fe  tau(   5) = (   0.1690727   0.1176288   0.4057194  )
         6           Fe  tau(   6) = (   0.3359160   0.9392168   0.6057353  )
         7           Fe  tau(   7) = (   0.4995644   0.3558345   0.4070645  )
         8           Fe  tau(   8) = (   0.3412927   0.2358348   0.6065762  )
         9           Fe  tau(   9) = (   0.2499989   0.3535526   0.0000000  )
        10           Fe  tau(  10) = (   0.4166663   0.1178509   0.0000000  )
        11           Fe  tau(  11) = (   0.0833326   0.2357017   0.2041376  )
        12           Fe  tau(  12) = (   0.2500000   0.0000000   0.2041376  )
        13           Fe  tau(  13) = (   0.2500203   0.3535763   0.4075499  )
        14           Fe  tau(  14) = (   0.4190799   0.1195871   0.4060585  )
        15           Fe  tau(  15) = (   0.0914261   0.2320770   0.6073416  )
        16           Fe  tau(  16) = (   0.2529283   0.0020986   0.6065179  )
        17           Fe  tau(  17) = (   0.6666663   0.1178509   0.0000000  )
        18           Fe  tau(  18) = (   0.5000000   0.0000000   0.2041376  )
        19           Fe  tau(  19) = (   0.9999989   0.3535526   0.0000000  )
        20           Fe  tau(  20) = (   0.8333326   0.2357017   0.2041376  )
        21           Fe  tau(  21) = (   0.6686343   0.1166754   0.4070389  )
        22           Fe  tau(  22) = (   0.5027431   0.0075021   0.6066084  )
        23           Fe  tau(  23) = (   1.0004982   0.3513340   0.4070421  )
        24           Fe  tau(  24) = (   0.8514393   0.2101662   0.6018299  )
        25           Fe  tau(  25) = (   0.7499989   0.3535526   0.0000000  )
        26           Fe  tau(  26) = (   0.9166663   0.1178509   0.0000000  )
        27           Fe  tau(  27) = (   0.5833326   0.2357017   0.2041376  )
        28           Fe  tau(  28) = (   0.7500000   0.0000000   0.2041376  )
        29           Fe  tau(  29) = (   0.7500398   0.3535478   0.4083785  )
        30           Fe  tau(  30) = (   0.9196089   0.1137332   0.4024139  )
        31           Fe  tau(  31) = (   0.5921362   0.2419152   0.6050478  )
        32           Fe  tau(  32) = (   1.0841186   0.9340179   0.6073385  )
        33           Fe  tau(  33) = (   0.3333315   0.5892543   0.0000000  )
        34           Fe  tau(  34) = (   0.1666652   0.4714034   0.2041376  )
        35           Fe  tau(  35) = (   0.6666640   0.8249560   0.0000000  )
        36           Fe  tau(  36) = (   0.4999978   0.7071052   0.2041376  )
        37           Fe  tau(  37) = (   0.3309653   0.5895123   0.4057390  )
        38           Fe  tau(  38) = (   1.1587597   0.4713650   0.6066125  )
        39           Fe  tau(  39) = (   0.6672499   0.8273038   0.4057400  )
        40           Fe  tau(  40) = (   0.4974426   0.7107795   0.6058552  )
        41           Fe  tau(  41) = (   0.4166640   0.8249560   0.0000000  )
        42           Fe  tau(  42) = (   0.5833315   0.5892543   0.0000000  )
        43           Fe  tau(  43) = (   0.2499978   0.7071052   0.2041376  )
        44           Fe  tau(  44) = (   0.4166652   0.4714034   0.2041376  )
        45           Fe  tau(  45) = (   0.4166815   0.8249754   0.4044643  )
        46           Fe  tau(  46) = (   0.5804083   0.5934342   0.4024474  )
        47           Fe  tau(  47) = (   1.2471034   0.7050934   0.6065072  )
        48           Fe  tau(  48) = (   0.4086594   0.4751371   0.6073854  )
        49           Fe  tau(  49) = (   0.8333315   0.5892543   0.0000000  )
        50           Fe  tau(  50) = (   0.6666652   0.4714034   0.2041376  )
        51           Fe  tau(  51) = (   1.1666640   0.8249560   0.0000000  )
        52           Fe  tau(  52) = (   0.9999978   0.7071052   0.2041376  )
        53           Fe  tau(  53) = (   0.8313705   0.5904580   0.4070690  )
        54           Fe  tau(  54) = (   0.6486499   0.4969598   0.6018181  )
        55           Fe  tau(  55) = (   1.1661130   0.8226447   0.4057146  )
        56           Fe  tau(  56) = (   0.9972850   0.6996988   0.6065727  )
        57           Fe  tau(  57) = (   0.9166640   0.8249560   0.0000000  )
        58           Fe  tau(  58) = (   1.0833315   0.5892543   0.0000000  )
        59           Fe  tau(  59) = (   0.7499978   0.7071052   0.2041376  )
        60           Fe  tau(  60) = (   0.9166652   0.4714034   0.2041376  )
        61           Fe  tau(  61) = (   0.9166766   0.8249782   0.4075497  )
        62           Fe  tau(  62) = (   1.0809342   0.5875864   0.4060604  )
        63           Fe  tau(  63) = (   0.7492091   0.7159586   0.6073929  )
        64           Fe  tau(  64) = (   0.9079534   0.4652243   0.6050544  )
        65           N   tau(  65) = (   0.7500460   0.3535666   0.6387381  )

     number of k points=    10  Methfessel-Paxton smearing, width (Ry)=  0.0100
                       cart. coord. in units 2pi/alat
        k(    1) = (   0.0000000   0.0000000   0.0000000), wk =   0.0625000
        k(    2) = (   0.0000000   0.2651656   0.0000000), wk =   0.1250000
        k(    3) = (   0.0000000  -0.5303313   0.0000000), wk =   0.0625000
        k(    4) = (   0.2500000  -0.0883878   0.0000000), wk =   0.1250000
        k(    5) = (   0.2500000   0.1767779   0.0000000), wk =   0.1250000
        k(    6) = (   0.2500000  -0.6187190   0.0000000), wk =   0.1250000
        k(    7) = (   0.2500000  -0.3535534   0.0000000), wk =   0.1250000
        k(    8) = (  -0.5000000   0.1767755   0.0000000), wk =   0.0625000
        k(    9) = (  -0.5000000   0.4419412   0.0000000), wk =   0.1250000
        k(   10) = (  -0.5000000  -0.3535558   0.0000000), wk =   0.0625000

     Dense  grid:  2905599 G-vectors     FFT dimensions: ( 135, 135, 360)

     Smooth grid:  1027285 G-vectors     FFT dimensions: (  96,  96, 243)

     Estimated max dynamical RAM per process >       1.00 GB

     Estimated total dynamical RAM >     160.27 GB
     Generating pointlists ...
     new r_m :   0.0740 (alat units)  1.3890 (a.u.) for type    1
     new r_m :   0.0740 (alat units)  1.3890 (a.u.) for type    2

     Check: negative core charge=   -0.000039

     Initial potential from superposition of free atoms

     starting charge 1028.97194, renormalised to 1029.00000

     negative rho (up, down):  2.481E-02 2.532E-03
     Starting wfcs are  836 randomized atomic wfcs
     Checking if some PAW data can be deallocated... 

     total cpu time spent up to now is       85.7 secs

     Self-consistent Calculation

     iteration #  1     ecut=    60.00 Ry     beta= 0.20
     Davidson diagonalization with overlap
     ethr =  1.00E-04,  avg # of iterations = 18.4

     negative rho (up, down):  1.517E-02 3.017E-03

     total cpu time spent up to now is     1125.2 secs

     total energy              =  -21077.17833278 Ry
     Harris-Foulkes estimate   =  -21099.34324115 Ry
     estimated scf accuracy    <    1154.92374843 Ry

     total magnetization       =    69.17 Bohr mag/cell
     absolute magnetization    =    71.07 Bohr mag/cell

     iteration #  2     ecut=    60.00 Ry     beta= 0.20
     Davidson diagonalization with overlap
     ethr =  1.00E-02,  avg # of iterations =  1.0

     negative rho (up, down):  1.291E-02 2.841E-02

     total cpu time spent up to now is     1260.3 secs

     total energy              =  -21089.68795499 Ry
     Harris-Foulkes estimate   =  -21096.52103426 Ry
     estimated scf accuracy    <     359.62734284 Ry

     total magnetization       =    81.99 Bohr mag/cell
     absolute magnetization    =    83.91 Bohr mag/cell

     iteration #  3     ecut=    60.00 Ry     beta= 0.20
     Davidson diagonalization with overlap
     ethr =  1.00E-02,  avg # of iterations =  1.0

     negative rho (up, down):  1.033E-02 5.863E-02

     total cpu time spent up to now is     1391.1 secs

     total energy              =  -21092.44039268 Ry
     Harris-Foulkes estimate   =  -21092.69345457 Ry
     estimated scf accuracy    <      14.50813463 Ry

     total magnetization       =   119.97 Bohr mag/cell
     absolute magnetization    =   120.57 Bohr mag/cell

     iteration #  4     ecut=    60.00 Ry     beta= 0.20
     Davidson diagonalization with overlap
     ethr =  1.41E-03,  avg # of iterations =  1.0

     negative rho (up, down):  7.441E-03 6.309E-02

     total cpu time spent up to now is     1522.7 secs

     total energy              =  -21092.52258041 Ry
     Harris-Foulkes estimate   =  -21092.57525647 Ry
     estimated scf accuracy    <      17.18291162 Ry

     total magnetization       =   127.03 Bohr mag/cell
     absolute magnetization    =   127.57 Bohr mag/cell

     iteration #  5     ecut=    60.00 Ry     beta= 0.20
     Davidson diagonalization with overlap
     ethr =  1.41E-03,  avg # of iterations =  1.0

     negative rho (up, down):  2.342E-02 2.254E-01

     total cpu time spent up to now is     1654.9 secs

     total energy              =  -21090.79203307 Ry
     Harris-Foulkes estimate   =  -21092.56529247 Ry
     estimated scf accuracy    <      20.34388109 Ry

     total magnetization       =   131.43 Bohr mag/cell
     absolute magnetization    =   132.00 Bohr mag/cell

     iteration #  6     ecut=    60.00 Ry     beta= 0.20
     Davidson diagonalization with overlap
     ethr =  1.41E-03,  avg # of iterations =  2.5

     negative rho (up, down):  1.563E-02 1.924E-01

     total cpu time spent up to now is     1811.3 secs

     total energy              =  -21091.57521962 Ry
     Harris-Foulkes estimate   =  -21091.77548180 Ry
     estimated scf accuracy    <       6.93373814 Ry

     total magnetization       =   154.65 Bohr mag/cell
     absolute magnetization    =   155.96 Bohr mag/cell

     iteration #  7     ecut=    60.00 Ry     beta= 0.20
     Davidson diagonalization with overlap
     ethr =  6.74E-04,  avg # of iterations =  4.7

     negative rho (up, down):  6.510E-03 1.081E-01

     total cpu time spent up to now is     1996.9 secs

     total energy              =  -21091.71057612 Ry
     Harris-Foulkes estimate   =  -21091.78375796 Ry
     estimated scf accuracy    <       2.25084360 Ry

     total magnetization       =   154.25 Bohr mag/cell
     absolute magnetization    =   156.05 Bohr mag/cell

     iteration #  8     ecut=    60.00 Ry     beta= 0.20
     Davidson diagonalization with overlap
     ethr =  2.19E-04,  avg # of iterations = 13.0

     negative rho (up, down):  8.782E-04 4.354E-02

     total cpu time spent up to now is     2758.5 secs

     total energy              =  -21092.28842106 Ry
     Harris-Foulkes estimate   =  -21093.01082053 Ry
     estimated scf accuracy    <       5.65030876 Ry

     total magnetization       =   153.79 Bohr mag/cell
     absolute magnetization    =   160.24 Bohr mag/cell

     iteration #  9     ecut=    60.00 Ry     beta= 0.20
     Davidson diagonalization with overlap
     ethr =  2.19E-04,  avg # of iterations =  3.8

     negative rho (up, down):  6.961E-04 2.875E-02

     total cpu time spent up to now is     2928.7 secs

     total energy              =  -21092.55805329 Ry
     Harris-Foulkes estimate   =  -21092.56579206 Ry
     estimated scf accuracy    <       0.69126245 Ry

     total magnetization       =   147.62 Bohr mag/cell
     absolute magnetization    =   153.13 Bohr mag/cell

     iteration # 10     ecut=    60.00 Ry     beta= 0.20
     Davidson diagonalization with overlap
     ethr =  6.72E-05,  avg # of iterations =  6.5

     negative rho (up, down):  3.082E-04 1.776E-02

     total cpu time spent up to now is     3139.2 secs

     total energy              =  -21092.61974845 Ry
     Harris-Foulkes estimate   =  -21092.61764105 Ry
     estimated scf accuracy    <       0.66369531 Ry

     total magnetization       =   147.57 Bohr mag/cell
     absolute magnetization    =   152.79 Bohr mag/cell

     iteration # 11     ecut=    60.00 Ry     beta= 0.20
     Davidson diagonalization with overlap
     ethr =  6.45E-05,  avg # of iterations =  3.7

     negative rho (up, down):  6.053E-04 4.136E-02

     total cpu time spent up to now is     3296.8 secs

     total energy              =  -21092.64010793 Ry
     Harris-Foulkes estimate   =  -21092.65240482 Ry
     estimated scf accuracy    <       0.38648031 Ry

     total magnetization       =   151.63 Bohr mag/cell
     absolute magnetization    =   156.69 Bohr mag/cell

     iteration # 12     ecut=    60.00 Ry     beta= 0.20
     Davidson diagonalization with overlap
     ethr =  3.76E-05,  avg # of iterations =  7.3

     negative rho (up, down):  4.149E-04 2.901E-02

     total cpu time spent up to now is     3511.4 secs

     total energy              =  -21092.68737381 Ry
     Harris-Foulkes estimate   =  -21092.68755929 Ry
     estimated scf accuracy    <       0.39568579 Ry

     total magnetization       =   156.07 Bohr mag/cell
     absolute magnetization    =   161.41 Bohr mag/cell

     iteration # 13     ecut=    60.00 Ry     beta= 0.20
     Davidson diagonalization with overlap
     ethr =  3.76E-05,  avg # of iterations =  1.1

     negative rho (up, down):  8.411E-04 4.224E-02

     total cpu time spent up to now is     3648.6 secs

     total energy              =  -21092.68835768 Ry
     Harris-Foulkes estimate   =  -21092.70050254 Ry
     estimated scf accuracy    <       0.39481639 Ry

     total magnetization       =   158.40 Bohr mag/cell
     absolute magnetization    =   163.72 Bohr mag/cell

     iteration # 14     ecut=    60.00 Ry     beta= 0.20
     Davidson diagonalization with overlap
     ethr =  3.76E-05,  avg # of iterations =  5.2

     negative rho (up, down):  1.194E-03 3.986E-02

     total cpu time spent up to now is     3837.2 secs

     total energy              =  -21092.71000444 Ry
     Harris-Foulkes estimate   =  -21092.72110547 Ry
     estimated scf accuracy    <       0.95400492 Ry

     total magnetization       =   160.88 Bohr mag/cell
     absolute magnetization    =   166.41 Bohr mag/cell

     iteration # 15     ecut=    60.00 Ry     beta= 0.20
     Davidson diagonalization with overlap
     ethr =  3.76E-05,  avg # of iterations =  2.5

     negative rho (up, down):  3.644E-03 4.351E-02

     total cpu time spent up to now is     4003.5 secs

     total energy              =  -21092.68929473 Ry
     Harris-Foulkes estimate   =  -21092.72118268 Ry
     estimated scf accuracy    <       0.56935318 Ry

     total magnetization       =   161.42 Bohr mag/cell
     absolute magnetization    =   166.98 Bohr mag/cell

     iteration # 16     ecut=    60.00 Ry     beta= 0.20
     Davidson diagonalization with overlap
     ethr =  3.76E-05,  avg # of iterations =  4.6

     negative rho (up, down):  2.579E-03 3.987E-02

     total cpu time spent up to now is     4168.8 secs

     total energy              =  -21092.70545977 Ry
     Harris-Foulkes estimate   =  -21092.70548694 Ry
     estimated scf accuracy    <       0.21763391 Ry

     total magnetization       =   161.98 Bohr mag/cell
     absolute magnetization    =   167.65 Bohr mag/cell

     iteration # 17     ecut=    60.00 Ry     beta= 0.20
     Davidson diagonalization with overlap
     ethr =  2.12E-05,  avg # of iterations =  3.0

     negative rho (up, down):  1.597E-03 3.756E-02

     total cpu time spent up to now is     4331.8 secs

     total energy              =  -21092.69624795 Ry
     Harris-Foulkes estimate   =  -21092.71067957 Ry
     estimated scf accuracy    <       0.22574958 Ry

     total magnetization       =   161.81 Bohr mag/cell
     absolute magnetization    =   167.52 Bohr mag/cell

     iteration # 18     ecut=    60.00 Ry     beta= 0.20
     Davidson diagonalization with overlap
     ethr =  2.12E-05,  avg # of iterations =  1.0

     negative rho (up, down):  1.950E-03 2.959E-02

     total cpu time spent up to now is     4462.7 secs

     total energy              =  -21092.66690755 Ry
     Harris-Foulkes estimate   =  -21092.70163080 Ry
     estimated scf accuracy    <       0.21946764 Ry

     total magnetization       =   161.81 Bohr mag/cell
     absolute magnetization    =   167.60 Bohr mag/cell

     iteration # 19     ecut=    60.00 Ry     beta= 0.20
     Davidson diagonalization with overlap
     ethr =  2.12E-05,  avg # of iterations = 11.6

     negative rho (up, down):  1.338E-03 2.589E-02

     total cpu time spent up to now is     5197.8 secs

     total energy              =  -21092.68772829 Ry
     Harris-Foulkes estimate   =  -21092.70133858 Ry
     estimated scf accuracy    <       0.05395564 Ry

     total magnetization       =   161.66 Bohr mag/cell
     absolute magnetization    =   168.03 Bohr mag/cell

     iteration # 20     ecut=    60.00 Ry     beta= 0.20
     Davidson diagonalization with overlap
     c_bands:  1 eigenvalues not converged
     c_bands:  3 eigenvalues not converged
     ethr =  5.24E-06,  avg # of iterations = 45.0

     negative rho (up, down):  9.736E-04 3.169E-02

     total cpu time spent up to now is     7451.8 secs

     total energy              =  -21092.74822534 Ry
     Harris-Foulkes estimate   =  -21092.75685669 Ry
     estimated scf accuracy    <       0.41734705 Ry

     total magnetization       =   159.59 Bohr mag/cell
     absolute magnetization    =   168.96 Bohr mag/cell

     iteration # 21     ecut=    60.00 Ry     beta= 0.20
     Davidson diagonalization with overlap
     ethr =  5.24E-06,  avg # of iterations = 13.5

     negative rho (up, down):  1.405E-03 2.345E-02

     total cpu time spent up to now is     7736.2 secs

     total energy              =  -21092.75247434 Ry
     Harris-Foulkes estimate   =  -21092.75046233 Ry
     estimated scf accuracy    <       0.30369038 Ry

     total magnetization       =   159.96 Bohr mag/cell
     absolute magnetization    =   169.06 Bohr mag/cell

     iteration # 22     ecut=    60.00 Ry     beta= 0.20
     Davidson diagonalization with overlap
     ethr =  5.24E-06,  avg # of iterations =  8.3

     negative rho (up, down):  1.332E-03 1.501E-02

     total cpu time spent up to now is     8025.4 secs

     total energy              =  -21092.74726352 Ry
     Harris-Foulkes estimate   =  -21092.75800208 Ry
     estimated scf accuracy    <       0.57022426 Ry

     total magnetization       =   160.33 Bohr mag/cell
     absolute magnetization    =   168.94 Bohr mag/cell

     iteration # 23     ecut=    60.00 Ry     beta= 0.20
     Davidson diagonalization with overlap
     ethr =  5.24E-06,  avg # of iterations =  7.8

     negative rho (up, down):  1.714E-03 1.691E-01

     total cpu time spent up to now is     8392.9 secs

     total energy              =  -21092.78040971 Ry
     Harris-Foulkes estimate   =  -21092.75208476 Ry
     estimated scf accuracy    <       0.64451695 Ry

     total magnetization       =   160.73 Bohr mag/cell
     absolute magnetization    =   168.40 Bohr mag/cell

     iteration # 24     ecut=    60.00 Ry     beta= 0.20
     Davidson diagonalization with overlap
     ethr =  5.24E-06,  avg # of iterations = 12.8

     negative rho (up, down):  3.021E-03 1.572E-01

     total cpu time spent up to now is     8684.2 secs

     total energy              =  -21092.82896376 Ry
     Harris-Foulkes estimate   =  -21092.81553284 Ry
     estimated scf accuracy    <       1.34010114 Ry

     total magnetization       =   159.08 Bohr mag/cell
     absolute magnetization    =   170.02 Bohr mag/cell

     iteration # 25     ecut=    60.00 Ry     beta= 0.20
     Davidson diagonalization with overlap
     ethr =  5.24E-06,  avg # of iterations =  5.1

     negative rho (up, down):  1.498E-03 1.754E-01

     total cpu time spent up to now is     8950.1 secs

     total energy              =  -21092.81433910 Ry
     Harris-Foulkes estimate   =  -21092.82994716 Ry
     estimated scf accuracy    <       1.61889848 Ry

     total magnetization       =   159.27 Bohr mag/cell
     absolute magnetization    =   170.51 Bohr mag/cell

     iteration # 26     ecut=    60.00 Ry     beta= 0.20
     Davidson diagonalization with overlap
     ethr =  5.24E-06,  avg # of iterations =  4.3

     negative rho (up, down):  1.396E-03 1.818E-01

     total cpu time spent up to now is     9179.9 secs

     total energy              =  -21092.80814412 Ry
     Harris-Foulkes estimate   =  -21092.81570934 Ry
     estimated scf accuracy    <       1.39875794 Ry

     total magnetization       =   159.00 Bohr mag/cell
     absolute magnetization    =   169.91 Bohr mag/cell

     iteration # 27     ecut=    60.00 Ry     beta= 0.20
     Davidson diagonalization with overlap
     ethr =  5.24E-06,  avg # of iterations =  1.5

     negative rho (up, down):  1.845E-03 1.858E-01

     total cpu time spent up to now is     9329.7 secs

     total energy              =  -21092.78810968 Ry
     Harris-Foulkes estimate   =  -21092.80852759 Ry
     estimated scf accuracy    <       1.30598343 Ry

     total magnetization       =   159.13 Bohr mag/cell
     absolute magnetization    =   169.91 Bohr mag/cell

     iteration # 28     ecut=    60.00 Ry     beta= 0.20
     Davidson diagonalization with overlap
     ethr =  5.24E-06,  avg # of iterations =  1.0

     negative rho (up, down):  3.773E-03 3.305E-02

     total cpu time spent up to now is     9473.3 secs

     total energy              =  -21092.67965454 Ry
     Harris-Foulkes estimate   =  -21092.78946177 Ry
     estimated scf accuracy    <       1.04743168 Ry

     total magnetization       =   159.25 Bohr mag/cell
     absolute magnetization    =   169.96 Bohr mag/cell

     iteration # 29     ecut=    60.00 Ry     beta= 0.20
     Davidson diagonalization with overlap
     ethr =  5.24E-06,  avg # of iterations = 14.7

     negative rho (up, down):  6.054E-03 3.890E-02

     total cpu time spent up to now is     9984.2 secs

     total energy              =  -21092.73903141 Ry
     Harris-Foulkes estimate   =  -21092.72275141 Ry
     estimated scf accuracy    <       0.08826244 Ry

     total magnetization       =   160.66 Bohr mag/cell
     absolute magnetization    =   168.65 Bohr mag/cell

     iteration # 30     ecut=    60.00 Ry     beta= 0.20
     Davidson diagonalization with overlap
     ethr =  5.24E-06,  avg # of iterations = 14.8

     negative rho (up, down):  1.353E-02 1.032E-01

     total cpu time spent up to now is    10375.0 secs

     total energy              =  -21092.68194375 Ry
     Harris-Foulkes estimate   =  -21092.74871029 Ry
     estimated scf accuracy    <       0.65379858 Ry

     total magnetization       =   160.57 Bohr mag/cell
     absolute magnetization    =   168.70 Bohr mag/cell

     iteration # 31     ecut=    60.00 Ry     beta= 0.20
     Davidson diagonalization with overlap
     ethr =  5.24E-06,  avg # of iterations = 15.2

     negative rho (up, down):  3.328E-02 1.021E-01

     total cpu time spent up to now is    10684.6 secs

     total energy              =  -21092.70601008 Ry
     Harris-Foulkes estimate   =  -21092.71673188 Ry
     estimated scf accuracy    <       0.00821896 Ry

     total magnetization       =   161.57 Bohr mag/cell
     absolute magnetization    =   168.09 Bohr mag/cell

     iteration # 32     ecut=    60.00 Ry     beta= 0.20
     Davidson diagonalization with overlap
     ethr =  7.99E-07,  avg # of iterations = 15.9

     negative rho (up, down):  2.998E-02 9.615E-02

     total cpu time spent up to now is    10988.4 secs

     total energy              =  -21092.71198578 Ry
     Harris-Foulkes estimate   =  -21092.71281503 Ry
     estimated scf accuracy    <       0.06423690 Ry

     total magnetization       =   161.30 Bohr mag/cell
     absolute magnetization    =   167.88 Bohr mag/cell

     iteration # 33     ecut=    60.00 Ry     beta= 0.20
     Davidson diagonalization with overlap
     ethr =  7.99E-07,  avg # of iterations = 11.2

     negative rho (up, down):  2.106E-02 1.537E-01

     total cpu time spent up to now is    11281.5 secs

     total energy              =  -21092.70729833 Ry
     Harris-Foulkes estimate   =  -21092.71219141 Ry
     estimated scf accuracy    <       0.05146324 Ry

     total magnetization       =   161.34 Bohr mag/cell
     absolute magnetization    =   167.93 Bohr mag/cell

     iteration # 34     ecut=    60.00 Ry     beta= 0.20
     Davidson diagonalization with overlap
     ethr =  7.99E-07,  avg # of iterations = 20.7

     negative rho (up, down):  1.956E-02 8.210E-02

     total cpu time spent up to now is    11912.9 secs

     total energy              =  -21092.71171254 Ry
     Harris-Foulkes estimate   =  -21092.72572207 Ry
     estimated scf accuracy    <       0.04406808 Ry

     total magnetization       =   160.38 Bohr mag/cell
     absolute magnetization    =   168.67 Bohr mag/cell

     iteration # 35     ecut=    60.00 Ry     beta= 0.20
     Davidson diagonalization with overlap
     ethr =  7.99E-07,  avg # of iterations = 14.4

     negative rho (up, down):  1.912E-02 8.000E-02

     total cpu time spent up to now is    12212.9 secs

     total energy              =  -21092.71529945 Ry
     Harris-Foulkes estimate   =  -21092.71547190 Ry
     estimated scf accuracy    <       0.00282896 Ry

     total magnetization       =   160.75 Bohr mag/cell
     absolute magnetization    =   168.23 Bohr mag/cell

     iteration # 36     ecut=    60.00 Ry     beta= 0.20
     Davidson diagonalization with overlap
     ethr =  2.75E-07,  avg # of iterations =  8.1

     negative rho (up, down):  2.141E-02 7.402E-02

     total cpu time spent up to now is    12474.2 secs

     total energy              =  -21092.71292833 Ry
     Harris-Foulkes estimate   =  -21092.71553607 Ry
     estimated scf accuracy    <       0.00210807 Ry

     total magnetization       =   160.76 Bohr mag/cell
     absolute magnetization    =   168.28 Bohr mag/cell

     iteration # 37     ecut=    60.00 Ry     beta= 0.20
     Davidson diagonalization with overlap
     ethr =  2.05E-07,  avg # of iterations = 11.3

     negative rho (up, down):  2.034E-02 7.423E-02

     total cpu time spent up to now is    12762.2 secs

     total energy              =  -21092.71280919 Ry
     Harris-Foulkes estimate   =  -21092.71354798 Ry
     estimated scf accuracy    <       0.00457304 Ry

     total magnetization       =   160.98 Bohr mag/cell
     absolute magnetization    =   168.18 Bohr mag/cell

     iteration # 38     ecut=    60.00 Ry     beta= 0.20
     Davidson diagonalization with overlap
     ethr =  2.05E-07,  avg # of iterations =  7.6

     negative rho (up, down):  1.953E-02 7.571E-02

     total cpu time spent up to now is    12991.9 secs

     total energy              =  -21092.71170306 Ry
     Harris-Foulkes estimate   =  -21092.71314684 Ry
     estimated scf accuracy    <       0.00183477 Ry

     total magnetization       =   160.95 Bohr mag/cell
     absolute magnetization    =   168.14 Bohr mag/cell

     iteration # 39     ecut=    60.00 Ry     beta= 0.20
     Davidson diagonalization with overlap
     ethr =  1.78E-07,  avg # of iterations = 13.3

     negative rho (up, down):  1.478E-02 7.543E-02

     total cpu time spent up to now is    13284.0 secs

     total energy              =  -21092.71258287 Ry
     Harris-Foulkes estimate   =  -21092.71188775 Ry
     estimated scf accuracy    <       0.00166898 Ry

     total magnetization       =   160.98 Bohr mag/cell
     absolute magnetization    =   168.01 Bohr mag/cell

     iteration # 40     ecut=    60.00 Ry     beta= 0.20
     Davidson diagonalization with overlap
     ethr =  1.62E-07,  avg # of iterations = 14.1

     negative rho (up, down):  1.467E-02 7.185E-02

     total cpu time spent up to now is    13579.8 secs

     total energy              =  -21092.71530652 Ry
     Harris-Foulkes estimate   =  -21092.71619047 Ry
     estimated scf accuracy    <       0.00492442 Ry

     total magnetization       =   160.51 Bohr mag/cell
     absolute magnetization    =   168.36 Bohr mag/cell

     iteration # 41     ecut=    60.00 Ry     beta= 0.20
     Davidson diagonalization with overlap
     ethr =  1.62E-07,  avg # of iterations =  8.6

     negative rho (up, down):  1.495E-02 7.015E-02

     total cpu time spent up to now is    13819.3 secs

     total energy              =  -21092.71504006 Ry
     Harris-Foulkes estimate   =  -21092.71551845 Ry
     estimated scf accuracy    <       0.01350590 Ry

     total magnetization       =   160.49 Bohr mag/cell
     absolute magnetization    =   168.32 Bohr mag/cell

     iteration # 42     ecut=    60.00 Ry     beta= 0.20
     Davidson diagonalization with overlap
     ethr =  1.62E-07,  avg # of iterations = 10.1

     negative rho (up, down):  1.628E-02 7.318E-02

     total cpu time spent up to now is    14067.3 secs

     total energy              =  -21092.71031163 Ry
     Harris-Foulkes estimate   =  -21092.71536702 Ry
     estimated scf accuracy    <       0.03298603 Ry

     total magnetization       =   160.51 Bohr mag/cell
     absolute magnetization    =   168.28 Bohr mag/cell

     iteration # 43     ecut=    60.00 Ry     beta= 0.20
     Davidson diagonalization with overlap
     ethr =  1.62E-07,  avg # of iterations = 15.0

     negative rho (up, down):  1.341E-02 8.165E-02

     total cpu time spent up to now is    14375.7 secs

     total energy              =  -21092.70526893 Ry
     Harris-Foulkes estimate   =  -21092.71463957 Ry
     estimated scf accuracy    <       0.13943196 Ry

     total magnetization       =   161.08 Bohr mag/cell
     absolute magnetization    =   167.99 Bohr mag/cell

     iteration # 44     ecut=    60.00 Ry     beta= 0.20
     Davidson diagonalization with overlap
     ethr =  1.62E-07,  avg # of iterations = 18.1

     negative rho (up, down):  1.101E-02 7.098E-02

     total cpu time spent up to now is    14859.6 secs

     total energy              =  -21092.70970035 Ry
     Harris-Foulkes estimate   =  -21092.70914810 Ry
     estimated scf accuracy    <       0.00403953 Ry

     total magnetization       =   161.37 Bohr mag/cell
     absolute magnetization    =   168.02 Bohr mag/cell

     iteration # 45     ecut=    60.00 Ry     beta= 0.20
     Davidson diagonalization with overlap
     ethr =  1.62E-07,  avg # of iterations = 12.7

     negative rho (up, down):  1.332E-02 7.881E-02

     total cpu time spent up to now is    15152.8 secs

     total energy              =  -21092.70804538 Ry
     Harris-Foulkes estimate   =  -21092.71083338 Ry
     estimated scf accuracy    <       0.04941304 Ry

     total magnetization       =   161.38 Bohr mag/cell
     absolute magnetization    =   168.01 Bohr mag/cell

     iteration # 46     ecut=    60.00 Ry     beta= 0.20
     Davidson diagonalization with overlap
     ethr =  1.62E-07,  avg # of iterations =  9.7

     negative rho (up, down):  1.806E-02 3.516E-02

     total cpu time spent up to now is    15430.1 secs

     total energy              =  -21092.69209483 Ry
     Harris-Foulkes estimate   =  -21092.70879433 Ry
     estimated scf accuracy    <       0.00828782 Ry

     total magnetization       =   161.46 Bohr mag/cell
     absolute magnetization    =   168.10 Bohr mag/cell

     iteration # 47     ecut=    60.00 Ry     beta= 0.20
     Davidson diagonalization with overlap
     ethr =  1.62E-07,  avg # of iterations = 16.9

     negative rho (up, down):  1.780E-02 4.139E-02

     total cpu time spent up to now is    15881.4 secs

     total energy              =  -21092.71414621 Ry
     Harris-Foulkes estimate   =  -21092.71353175 Ry
     estimated scf accuracy    <       0.02170436 Ry

     total magnetization       =   160.32 Bohr mag/cell
     absolute magnetization    =   168.50 Bohr mag/cell

     iteration # 48     ecut=    60.00 Ry     beta= 0.20
     Davidson diagonalization with overlap
     ethr =  1.62E-07,  avg # of iterations = 10.5

     negative rho (up, down):  1.586E-02 4.281E-02

     total cpu time spent up to now is    16145.6 secs

     total energy              =  -21092.70180659 Ry
     Harris-Foulkes estimate   =  -21092.71425323 Ry
     estimated scf accuracy    <       0.01212636 Ry

     total magnetization       =   160.37 Bohr mag/cell
     absolute magnetization    =   168.41 Bohr mag/cell

     iteration # 49     ecut=    60.00 Ry     beta= 0.20
     Davidson diagonalization with overlap
     ethr =  1.62E-07,  avg # of iterations = 15.2

     negative rho (up, down):  2.137E-02 6.585E-02

     total cpu time spent up to now is    16483.1 secs

     total energy              =  -21092.70021478 Ry
     Harris-Foulkes estimate   =  -21092.70951838 Ry
     estimated scf accuracy    <       0.08266511 Ry

     total magnetization       =   161.04 Bohr mag/cell
     absolute magnetization    =   168.03 Bohr mag/cell

     iteration # 50     ecut=    60.00 Ry     beta= 0.20
     Davidson diagonalization with overlap
     ethr =  1.62E-07,  avg # of iterations = 15.2

     negative rho (up, down):  2.081E-02 6.210E-02

     total cpu time spent up to now is    16797.1 secs

     total energy              =  -21092.70410415 Ry
     Harris-Foulkes estimate   =  -21092.70459714 Ry
     estimated scf accuracy    <       0.00113980 Ry

     total magnetization       =   161.50 Bohr mag/cell
     absolute magnetization    =   168.17 Bohr mag/cell

     iteration # 51     ecut=    60.00 Ry     beta= 0.20
     Davidson diagonalization with overlap
     ethr =  1.11E-07,  avg # of iterations = 10.8

     negative rho (up, down):  2.003E-02 5.678E-02

     total cpu time spent up to now is    17083.2 secs

     total energy              =  -21092.70375907 Ry
     Harris-Foulkes estimate   =  -21092.70416205 Ry
     estimated scf accuracy    <       0.00129502 Ry

     total magnetization       =   161.41 Bohr mag/cell
     absolute magnetization    =   168.09 Bohr mag/cell

     iteration # 52     ecut=    60.00 Ry     beta= 0.20
     Davidson diagonalization with overlap
     ethr =  1.11E-07,  avg # of iterations =  9.9

     negative rho (up, down):  2.065E-02 7.745E-02

     total cpu time spent up to now is    17358.8 secs

     total energy              =  -21092.70403446 Ry
     Harris-Foulkes estimate   =  -21092.70399475 Ry
     estimated scf accuracy    <       0.00215310 Ry

     total magnetization       =   161.28 Bohr mag/cell
     absolute magnetization    =   167.95 Bohr mag/cell

     iteration # 53     ecut=    60.00 Ry     beta= 0.20
     Davidson diagonalization with overlap
     ethr =  1.11E-07,  avg # of iterations = 10.4

     negative rho (up, down):  2.148E-02 9.352E-02

     total cpu time spent up to now is    17644.7 secs

     total energy              =  -21092.70573418 Ry
     Harris-Foulkes estimate   =  -21092.70512636 Ry
     estimated scf accuracy    <       0.00152540 Ry

     total magnetization       =   161.52 Bohr mag/cell
     absolute magnetization    =   168.20 Bohr mag/cell

     iteration # 54     ecut=    60.00 Ry     beta= 0.20
     Davidson diagonalization with overlap
     ethr =  1.11E-07,  avg # of iterations = 13.6

     negative rho (up, down):  1.972E-02 8.940E-02

     total cpu time spent up to now is    17950.9 secs

     total energy              =  -21092.70650092 Ry
     Harris-Foulkes estimate   =  -21092.70684059 Ry
     estimated scf accuracy    <       0.02558795 Ry

     total magnetization       =   161.36 Bohr mag/cell
     absolute magnetization    =   168.06 Bohr mag/cell

     iteration # 55     ecut=    60.00 Ry     beta= 0.20
     Davidson diagonalization with overlap
     ethr =  1.11E-07,  avg # of iterations =  9.6

     negative rho (up, down):  2.445E-02 9.341E-02

     total cpu time spent up to now is    18221.5 secs

     total energy              =  -21092.70675599 Ry
     Harris-Foulkes estimate   =  -21092.70654154 Ry
     estimated scf accuracy    <       0.02004302 Ry

     total magnetization       =   161.41 Bohr mag/cell
     absolute magnetization    =   168.11 Bohr mag/cell

     iteration # 56     ecut=    60.00 Ry     beta= 0.20
     Davidson diagonalization with overlap
     ethr =  1.11E-07,  avg # of iterations =  4.2

     negative rho (up, down):  2.911E-02 9.447E-02

     total cpu time spent up to now is    18444.4 secs

     total energy              =  -21092.70691687 Ry
     Harris-Foulkes estimate   =  -21092.70680273 Ry
     estimated scf accuracy    <       0.02733619 Ry

     total magnetization       =   161.33 Bohr mag/cell
     absolute magnetization    =   168.04 Bohr mag/cell

     iteration # 57     ecut=    60.00 Ry     beta= 0.20
     Davidson diagonalization with overlap
     ethr =  1.11E-07,  avg # of iterations =  6.2

     negative rho (up, down):  2.122E-02 1.122E-01

     total cpu time spent up to now is    18703.9 secs

     total energy              =  -21092.70871926 Ry
     Harris-Foulkes estimate   =  -21092.70704480 Ry
     estimated scf accuracy    <       0.03841602 Ry

     total magnetization       =   161.25 Bohr mag/cell
     absolute magnetization    =   167.96 Bohr mag/cell

     iteration # 58     ecut=    60.00 Ry     beta= 0.20
     Davidson diagonalization with overlap
     ethr =  1.11E-07,  avg # of iterations = 13.2

     negative rho (up, down):  2.147E-02 1.138E-01

     total cpu time spent up to now is    18994.9 secs

     total energy              =  -21092.70880536 Ry
     Harris-Foulkes estimate   =  -21092.70877972 Ry
     estimated scf accuracy    <       0.04767960 Ry

     total magnetization       =   161.21 Bohr mag/cell
     absolute magnetization    =   167.92 Bohr mag/cell

     iteration # 59     ecut=    60.00 Ry     beta= 0.20
     Davidson diagonalization with overlap
     ethr =  1.11E-07,  avg # of iterations =  5.9

     negative rho (up, down):  2.190E-02 2.812E-02

     total cpu time spent up to now is    19228.6 secs

     total energy              =  -21092.70400581 Ry
     Harris-Foulkes estimate   =  -21092.70881444 Ry
     estimated scf accuracy    <       0.04643551 Ry

     total magnetization       =   161.22 Bohr mag/cell
     absolute magnetization    =   167.93 Bohr mag/cell

     iteration # 60     ecut=    60.00 Ry     beta= 0.20
     Davidson diagonalization with overlap
     ethr =  1.11E-07,  avg # of iterations = 15.2

     negative rho (up, down):  2.228E-02 1.458E-01

     total cpu time spent up to now is    19556.9 secs

     total energy              =  -21092.71152399 Ry
     Harris-Foulkes estimate   =  -21092.70600858 Ry
     estimated scf accuracy    <       0.03961556 Ry

     total magnetization       =   160.89 Bohr mag/cell
     absolute magnetization    =   167.92 Bohr mag/cell

     iteration # 61     ecut=    60.00 Ry     beta= 0.20
     Davidson diagonalization with overlap
     ethr =  1.11E-07,  avg # of iterations = 17.2

     negative rho (up, down):  2.344E-02 3.526E-02

     total cpu time spent up to now is    20057.2 secs

     total energy              =  -21092.68817992 Ry
     Harris-Foulkes estimate   =  -21092.71914918 Ry
     estimated scf accuracy    <       0.01887943 Ry

     total magnetization       =   160.38 Bohr mag/cell
     absolute magnetization    =   168.56 Bohr mag/cell

     iteration # 62     ecut=    60.00 Ry     beta= 0.20
     Davidson diagonalization with overlap
     ethr =  1.11E-07,  avg # of iterations = 16.0

     negative rho (up, down):  2.282E-02 3.462E-02

     total cpu time spent up to now is    20465.2 secs

     total energy              =  -21092.70245459 Ry
     Harris-Foulkes estimate   =  -21092.70289599 Ry
     estimated scf accuracy    <       0.00466658 Ry

     total magnetization       =   161.05 Bohr mag/cell
     absolute magnetization    =   167.88 Bohr mag/cell

     iteration # 63     ecut=    60.00 Ry     beta= 0.20
     Davidson diagonalization with overlap
     ethr =  1.11E-07,  avg # of iterations =  7.2

     negative rho (up, down):  2.331E-02 2.964E-02

     total cpu time spent up to now is    20712.1 secs

     total energy              =  -21092.70118174 Ry
     Harris-Foulkes estimate   =  -21092.70255813 Ry
     estimated scf accuracy    <       0.00158548 Ry

     total magnetization       =   160.98 Bohr mag/cell
     absolute magnetization    =   167.94 Bohr mag/cell

     iteration # 64     ecut=    60.00 Ry     beta= 0.20
     Davidson diagonalization with overlap
     ethr =  1.11E-07,  avg # of iterations = 14.2

     negative rho (up, down):  2.312E-02 3.462E-02

     total cpu time spent up to now is    21007.9 secs

     total energy              =  -21092.70167835 Ry
     Harris-Foulkes estimate   =  -21092.70409593 Ry
     estimated scf accuracy    <       0.00688520 Ry

     total magnetization       =   160.60 Bohr mag/cell
     absolute magnetization    =   168.34 Bohr mag/cell

     iteration # 65     ecut=    60.00 Ry     beta= 0.20
     Davidson diagonalization with overlap
     ethr =  1.11E-07,  avg # of iterations = 12.7

     negative rho (up, down):  1.927E-02 5.864E-02

     total cpu time spent up to now is    21272.5 secs

     total energy              =  -21092.69564986 Ry
     Harris-Foulkes estimate   =  -21092.70205933 Ry
     estimated scf accuracy    <       0.01059917 Ry

     total magnetization       =   160.69 Bohr mag/cell
     absolute magnetization    =   168.24 Bohr mag/cell

     iteration # 66     ecut=    60.00 Ry     beta= 0.20
     Davidson diagonalization with overlap
     ethr =  1.11E-07,  avg # of iterations = 14.8

     negative rho (up, down):  2.160E-02 6.400E-02

     total cpu time spent up to now is    21572.6 secs

     total energy              =  -21092.69646802 Ry
     Harris-Foulkes estimate   =  -21092.69819601 Ry
     estimated scf accuracy    <       0.00076106 Ry

     total magnetization       =   161.12 Bohr mag/cell
     absolute magnetization    =   167.86 Bohr mag/cell

     iteration # 67     ecut=    60.00 Ry     beta= 0.20
     Davidson diagonalization with overlap
     ethr =  7.40E-08,  avg # of iterations = 10.0

     negative rho (up, down):  2.167E-02 6.864E-02

     total cpu time spent up to now is    21851.0 secs

     total energy              =  -21092.69631904 Ry
     Harris-Foulkes estimate   =  -21092.69664717 Ry
     estimated scf accuracy    <       0.00731779 Ry

     total magnetization       =   161.16 Bohr mag/cell
     absolute magnetization    =   167.88 Bohr mag/cell

     iteration # 68     ecut=    60.00 Ry     beta= 0.20
     Davidson diagonalization with overlap
     ethr =  7.40E-08,  avg # of iterations = 10.1

     negative rho (up, down):  2.240E-02 7.148E-02

     total cpu time spent up to now is    22118.7 secs

     total energy              =  -21092.69625443 Ry
     Harris-Foulkes estimate   =  -21092.69640966 Ry
     estimated scf accuracy    <       0.00401229 Ry

     total magnetization       =   161.24 Bohr mag/cell
     absolute magnetization    =   167.93 Bohr mag/cell

     iteration # 69     ecut=    60.00 Ry     beta= 0.20
     Davidson diagonalization with overlap
     ethr =  7.40E-08,  avg # of iterations =  9.7

     negative rho (up, down):  2.632E-02 8.474E-02

     total cpu time spent up to now is    22381.6 secs

     total energy              =  -21092.69608054 Ry
     Harris-Foulkes estimate   =  -21092.69629877 Ry
     estimated scf accuracy    <       0.00734852 Ry

     total magnetization       =   161.30 Bohr mag/cell
     absolute magnetization    =   167.99 Bohr mag/cell

     iteration # 70     ecut=    60.00 Ry     beta= 0.20
     Davidson diagonalization with overlap
     ethr =  7.40E-08,  avg # of iterations = 15.0

     negative rho (up, down):  3.153E-02 1.227E-01

     total cpu time spent up to now is    22689.0 secs

     total energy              =  -21092.69619202 Ry
     Harris-Foulkes estimate   =  -21092.69646923 Ry
     estimated scf accuracy    <       0.01596421 Ry

     total magnetization       =   161.47 Bohr mag/cell
     absolute magnetization    =   168.15 Bohr mag/cell

     iteration # 71     ecut=    60.00 Ry     beta= 0.20
     Davidson diagonalization with overlap
     ethr =  7.40E-08,  avg # of iterations = 14.9

     negative rho (up, down):  3.284E-02 1.056E-01

     total cpu time spent up to now is    22993.3 secs

     total energy              =  -21092.69708251 Ry
     Harris-Foulkes estimate   =  -21092.69750478 Ry
     estimated scf accuracy    <       0.00580234 Ry

     total magnetization       =   161.67 Bohr mag/cell
     absolute magnetization    =   168.36 Bohr mag/cell

     iteration # 72     ecut=    60.00 Ry     beta= 0.20
     Davidson diagonalization with overlap
     ethr =  7.40E-08,  avg # of iterations = 11.7

     negative rho (up, down):  2.033E-02 9.301E-02

     total cpu time spent up to now is    23266.9 secs

     total energy              =  -21092.66925869 Ry
     Harris-Foulkes estimate   =  -21092.69726755 Ry
     estimated scf accuracy    <       0.00736735 Ry

     total magnetization       =   161.60 Bohr mag/cell
     absolute magnetization    =   168.30 Bohr mag/cell

     iteration # 73     ecut=    60.00 Ry     beta= 0.20
     Davidson diagonalization with overlap
     ethr =  7.40E-08,  avg # of iterations = 16.2

     negative rho (up, down):  2.042E-02 9.517E-02

     total cpu time spent up to now is    23689.0 secs

     total energy              =  -21092.71113411 Ry
     Harris-Foulkes estimate   =  -21092.71067425 Ry
     estimated scf accuracy    <       0.00423335 Ry

     total magnetization       =   160.65 Bohr mag/cell
     absolute magnetization    =   168.23 Bohr mag/cell

     iteration # 74     ecut=    60.00 Ry     beta= 0.20
     Davidson diagonalization with overlap
     ethr =  7.40E-08,  avg # of iterations =  9.1

     negative rho (up, down):  2.494E-02 5.613E-02

     total cpu time spent up to now is    23946.0 secs

     total energy              =  -21092.69403637 Ry
     Harris-Foulkes estimate   =  -21092.71114826 Ry
     estimated scf accuracy    <       0.00401873 Ry

     total magnetization       =   160.65 Bohr mag/cell
     absolute magnetization    =   168.23 Bohr mag/cell

     iteration # 75     ecut=    60.00 Ry     beta= 0.20
     Davidson diagonalization with overlap
     ethr =  7.40E-08,  avg # of iterations = 16.2

     negative rho (up, down):  2.281E-02 5.674E-02

     total cpu time spent up to now is    24356.8 secs

     total energy              =  -21092.69636110 Ry
     Harris-Foulkes estimate   =  -21092.69704454 Ry
     estimated scf accuracy    <       0.00664775 Ry

     total magnetization       =   160.79 Bohr mag/cell
     absolute magnetization    =   168.04 Bohr mag/cell

     iteration # 76     ecut=    60.00 Ry     beta= 0.20
     Davidson diagonalization with overlap
     ethr =  7.40E-08,  avg # of iterations = 10.6

     negative rho (up, down):  2.226E-02 5.853E-02

     total cpu time spent up to now is    24642.0 secs

     total energy              =  -21092.69648278 Ry
     Harris-Foulkes estimate   =  -21092.69656624 Ry
     estimated scf accuracy    <       0.00569822 Ry

     total magnetization       =   160.93 Bohr mag/cell
     absolute magnetization    =   167.93 Bohr mag/cell

     iteration # 77     ecut=    60.00 Ry     beta= 0.20
     Davidson diagonalization with overlap
     ethr =  7.40E-08,  avg # of iterations =  5.5

     negative rho (up, down):  2.445E-02 5.944E-02

     total cpu time spent up to now is    24890.4 secs

     total energy              =  -21092.69600037 Ry
     Harris-Foulkes estimate   =  -21092.69650509 Ry
     estimated scf accuracy    <       0.00325174 Ry

     total magnetization       =   160.91 Bohr mag/cell
     absolute magnetization    =   167.94 Bohr mag/cell

     iteration # 78     ecut=    60.00 Ry     beta= 0.20
     Davidson diagonalization with overlap
     ethr =  7.40E-08,  avg # of iterations =  7.3

     negative rho (up, down):  1.924E-02 5.314E-02

     total cpu time spent up to now is    25140.2 secs

     total energy              =  -21092.69753233 Ry
     Harris-Foulkes estimate   =  -21092.69603112 Ry
     estimated scf accuracy    <       0.00656745 Ry

     total magnetization       =   160.93 Bohr mag/cell
     absolute magnetization    =   167.92 Bohr mag/cell

     iteration # 79     ecut=    60.00 Ry     beta= 0.20
     Davidson diagonalization with overlap
     ethr =  7.40E-08,  avg # of iterations = 10.7

     negative rho (up, down):  1.971E-02 4.997E-02

     total cpu time spent up to now is    25416.2 secs

     total energy              =  -21092.69883309 Ry
     Harris-Foulkes estimate   =  -21092.69872346 Ry
     estimated scf accuracy    <       0.00072433 Ry

     total magnetization       =   160.75 Bohr mag/cell
     absolute magnetization    =   168.10 Bohr mag/cell

     iteration # 80     ecut=    60.00 Ry     beta= 0.20
     Davidson diagonalization with overlap
     ethr =  7.04E-08,  avg # of iterations =  6.7

     negative rho (up, down):  1.967E-02 5.103E-02

     total cpu time spent up to now is    25651.8 secs

     total energy              =  -21092.70115326 Ry
     Harris-Foulkes estimate   =  -21092.69907879 Ry
     estimated scf accuracy    <       0.00703128 Ry

     total magnetization       =   160.70 Bohr mag/cell
     absolute magnetization    =   168.19 Bohr mag/cell

     iteration # 81     ecut=    60.00 Ry     beta= 0.20
     Davidson diagonalization with overlap
     ethr =  7.04E-08,  avg # of iterations = 11.9

     negative rho (up, down):  1.909E-02 7.054E-02

     total cpu time spent up to now is    25950.0 secs

     total energy              =  -21092.70390213 Ry
     Harris-Foulkes estimate   =  -21092.70297538 Ry
     estimated scf accuracy    <       0.00290568 Ry

     total magnetization       =   160.47 Bohr mag/cell
     absolute magnetization    =   168.37 Bohr mag/cell

     iteration # 82     ecut=    60.00 Ry     beta= 0.20
     Davidson diagonalization with overlap
     ethr =  7.04E-08,  avg # of iterations = 11.2

     negative rho (up, down):  1.995E-02 5.808E-02

     total cpu time spent up to now is    26245.0 secs

     total energy              =  -21092.69970559 Ry
     Harris-Foulkes estimate   =  -21092.70416051 Ry
     estimated scf accuracy    <       0.00097668 Ry

     total magnetization       =   160.60 Bohr mag/cell
     absolute magnetization    =   168.26 Bohr mag/cell

     iteration # 83     ecut=    60.00 Ry     beta= 0.20
     Davidson diagonalization with overlap
     ethr =  7.04E-08,  avg # of iterations = 12.3

     negative rho (up, down):  2.893E-02 5.954E-02

     total cpu time spent up to now is    26524.3 secs

     total energy              =  -21092.69441545 Ry
     Harris-Foulkes estimate   =  -21092.69980969 Ry
     estimated scf accuracy    <       0.00058359 Ry

     total magnetization       =   160.62 Bohr mag/cell
     absolute magnetization    =   168.22 Bohr mag/cell

     iteration # 84     ecut=    60.00 Ry     beta= 0.20
     Davidson diagonalization with overlap
     ethr =  5.67E-08,  avg # of iterations = 14.8

     negative rho (up, down):  2.820E-02 7.627E-02

     total cpu time spent up to now is    26833.5 secs

     total energy              =  -21092.68781500 Ry
     Harris-Foulkes estimate   =  -21092.69872921 Ry
     estimated scf accuracy    <       0.09335271 Ry

     total magnetization       =   161.00 Bohr mag/cell
     absolute magnetization    =   167.97 Bohr mag/cell

     iteration # 85     ecut=    60.00 Ry     beta= 0.20
     Davidson diagonalization with overlap
     ethr =  5.67E-08,  avg # of iterations = 20.2

     negative rho (up, down):  1.651E-02 8.980E-02

     total cpu time spent up to now is    27455.4 secs

     total energy              =  -21092.71165006 Ry
     Harris-Foulkes estimate   =  -21092.71369532 Ry
     estimated scf accuracy    <       0.11064127 Ry

     total magnetization       =   160.09 Bohr mag/cell
     absolute magnetization    =   168.91 Bohr mag/cell

     iteration # 86     ecut=    60.00 Ry     beta= 0.20
     Davidson diagonalization with overlap
     ethr =  5.67E-08,  avg # of iterations = 14.6

     negative rho (up, down):  2.794E-02 5.015E-02

     total cpu time spent up to now is    27854.0 secs

     total energy              =  -21092.69758923 Ry
     Harris-Foulkes estimate   =  -21092.71305680 Ry
     estimated scf accuracy    <       0.04307692 Ry

     total magnetization       =   160.26 Bohr mag/cell
     absolute magnetization    =   168.69 Bohr mag/cell

     iteration # 87     ecut=    60.00 Ry     beta= 0.20
     Davidson diagonalization with overlap
     ethr =  5.67E-08,  avg # of iterations = 15.2

     negative rho (up, down):  2.343E-02 5.090E-02

     total cpu time spent up to now is    28183.0 secs

     total energy              =  -21092.70149937 Ry
     Harris-Foulkes estimate   =  -21092.70118670 Ry
     estimated scf accuracy    <       0.04024414 Ry

     total magnetization       =   160.51 Bohr mag/cell
     absolute magnetization    =   168.41 Bohr mag/cell

     iteration # 88     ecut=    60.00 Ry     beta= 0.20
     Davidson diagonalization with overlap
     ethr =  5.67E-08,  avg # of iterations = 10.8

     negative rho (up, down):  1.632E-02 5.369E-02

     total cpu time spent up to now is    28462.1 secs

     total energy              =  -21092.70347835 Ry
     Harris-Foulkes estimate   =  -21092.70272314 Ry
     estimated scf accuracy    <       0.02736571 Ry

     total magnetization       =   160.32 Bohr mag/cell
     absolute magnetization    =   168.58 Bohr mag/cell

     iteration # 89     ecut=    60.00 Ry     beta= 0.20
     Davidson diagonalization with overlap
     ethr =  5.67E-08,  avg # of iterations = 14.7

     negative rho (up, down):  1.450E-02 7.779E-02

     total cpu time spent up to now is    28757.9 secs

     total energy              =  -21092.70883155 Ry
     Harris-Foulkes estimate   =  -21092.70385607 Ry
     estimated scf accuracy    <       0.00620013 Ry

     total magnetization       =   160.44 Bohr mag/cell
     absolute magnetization    =   168.42 Bohr mag/cell

     iteration # 90     ecut=    60.00 Ry     beta= 0.20
     Davidson diagonalization with overlap
     ethr =  5.67E-08,  avg # of iterations = 14.1

     negative rho (up, down):  1.416E-02 9.464E-02

     total cpu time spent up to now is    29054.4 secs

     total energy              =  -21092.71092421 Ry
     Harris-Foulkes estimate   =  -21092.70918609 Ry
     estimated scf accuracy    <       0.02108319 Ry

     total magnetization       =   160.33 Bohr mag/cell
     absolute magnetization    =   168.55 Bohr mag/cell

     iteration # 91     ecut=    60.00 Ry     beta= 0.20
     Davidson diagonalization with overlap
     ethr =  5.67E-08,  avg # of iterations =  7.2

     negative rho (up, down):  1.442E-02 6.368E-02

     total cpu time spent up to now is    29298.8 secs

     total energy              =  -21092.70704014 Ry
     Harris-Foulkes estimate   =  -21092.71096621 Ry
     estimated scf accuracy    <       0.02937203 Ry

     total magnetization       =   160.28 Bohr mag/cell
     absolute magnetization    =   168.60 Bohr mag/cell

     iteration # 92     ecut=    60.00 Ry     beta= 0.20
     Davidson diagonalization with overlap
     ethr =  5.67E-08,  avg # of iterations =  9.2

     negative rho (up, down):  1.368E-02 7.452E-02

     total cpu time spent up to now is    29566.4 secs

     total energy              =  -21092.70929986 Ry
     Harris-Foulkes estimate   =  -21092.70718888 Ry
     estimated scf accuracy    <       0.01535974 Ry

     total magnetization       =   160.36 Bohr mag/cell
     absolute magnetization    =   168.50 Bohr mag/cell

     iteration # 93     ecut=    60.00 Ry     beta= 0.20
     Davidson diagonalization with overlap
     ethr =  5.67E-08,  avg # of iterations =  9.4

     negative rho (up, down):  1.344E-02 6.424E-02

     total cpu time spent up to now is    29835.9 secs

     total energy              =  -21092.70678167 Ry
     Harris-Foulkes estimate   =  -21092.70946882 Ry
     estimated scf accuracy    <       0.03054582 Ry

     total magnetization       =   160.29 Bohr mag/cell
     absolute magnetization    =   168.60 Bohr mag/cell

     iteration # 94     ecut=    60.00 Ry     beta= 0.20
     Davidson diagonalization with overlap
     ethr =  5.67E-08,  avg # of iterations =  9.5

     negative rho (up, down):  1.311E-02 6.744E-02

     total cpu time spent up to now is    30113.0 secs

     total energy              =  -21092.70605031 Ry
     Harris-Foulkes estimate   =  -21092.70696868 Ry
     estimated scf accuracy    <       0.01741205 Ry

     total magnetization       =   160.35 Bohr mag/cell
     absolute magnetization    =   168.52 Bohr mag/cell

     iteration # 95     ecut=    60.00 Ry     beta= 0.20
     Davidson diagonalization with overlap
     ethr =  5.67E-08,  avg # of iterations =  9.4

     negative rho (up, down):  1.439E-02 5.354E-02

     total cpu time spent up to now is    30373.3 secs

     total energy              =  -21092.70303219 Ry
     Harris-Foulkes estimate   =  -21092.70611371 Ry
     estimated scf accuracy    <       0.02156070 Ry

     total magnetization       =   160.33 Bohr mag/cell
     absolute magnetization    =   168.54 Bohr mag/cell

     iteration # 96     ecut=    60.00 Ry     beta= 0.20
     Davidson diagonalization with overlap
     ethr =  5.67E-08,  avg # of iterations = 13.8

     negative rho (up, down):  1.311E-02 6.193E-02

     total cpu time spent up to now is    30652.8 secs

     total energy              =  -21092.70637588 Ry
     Harris-Foulkes estimate   =  -21092.70309055 Ry
     estimated scf accuracy    <       0.01410712 Ry

     total magnetization       =   160.37 Bohr mag/cell
     absolute magnetization    =   168.49 Bohr mag/cell

     iteration # 97     ecut=    60.00 Ry     beta= 0.20
     Davidson diagonalization with overlap
     ethr =  5.67E-08,  avg # of iterations =  9.9

     negative rho (up, down):  1.148E-02 8.721E-02

     total cpu time spent up to now is    30920.4 secs

     total energy              =  -21092.70904979 Ry
     Harris-Foulkes estimate   =  -21092.70651609 Ry
     estimated scf accuracy    <       0.02828742 Ry

     total magnetization       =   160.31 Bohr mag/cell
     absolute magnetization    =   168.59 Bohr mag/cell

     iteration # 98     ecut=    60.00 Ry     beta= 0.20
     Davidson diagonalization with overlap
     ethr =  5.67E-08,  avg # of iterations = 13.2

     negative rho (up, down):  1.178E-02 6.175E-02

     total cpu time spent up to now is    31184.4 secs

     total energy              =  -21092.70514401 Ry
     Harris-Foulkes estimate   =  -21092.70915940 Ry
     estimated scf accuracy    <       0.03958081 Ry

     total magnetization       =   160.26 Bohr mag/cell
     absolute magnetization    =   168.65 Bohr mag/cell

     iteration # 99     ecut=    60.00 Ry     beta= 0.20
     Davidson diagonalization with overlap
     ethr =  5.67E-08,  avg # of iterations =  9.1

     negative rho (up, down):  1.194E-02 5.767E-02

     total cpu time spent up to now is    31430.1 secs

     total energy              =  -21092.70552553 Ry
     Harris-Foulkes estimate   =  -21092.70554767 Ry
     estimated scf accuracy    <       0.01168939 Ry

     total magnetization       =   160.41 Bohr mag/cell
     absolute magnetization    =   168.49 Bohr mag/cell

     iteration #100     ecut=    60.00 Ry     beta= 0.20
     Davidson diagonalization with overlap
     ethr =  5.67E-08,  avg # of iterations =  7.2

     negative rho (up, down):  1.192E-02 5.514E-02

     Magnetic moment per site:
     atom:    1    charge:   12.6142    magn:    2.3596    constr:    0.0000
     atom:    2    charge:   12.6049    magn:    2.1715    constr:    0.0000
     atom:    3    charge:   12.6137    magn:    2.3624    constr:    0.0000
     atom:    4    charge:   12.6030    magn:    2.2060    constr:    0.0000
     atom:    5    charge:   12.6075    magn:    2.1882    constr:    0.0000
     atom:    6    charge:   12.6124    magn:    2.3633    constr:    0.0000
     atom:    7    charge:   12.6037    magn:    2.2591    constr:    0.0000
     atom:    8    charge:   12.6164    magn:    2.3601    constr:    0.0000
     atom:    9    charge:   12.6141    magn:    2.3555    constr:    0.0000
     atom:   10    charge:   12.6140    magn:    2.3582    constr:    0.0000
     atom:   11    charge:   12.6035    magn:    2.2093    constr:    0.0000
     atom:   12    charge:   12.6039    magn:    2.1966    constr:    0.0000
     atom:   13    charge:   12.6042    magn:    2.1999    constr:    0.0000
     atom:   14    charge:   12.6081    magn:    2.1836    constr:    0.0000
     atom:   15    charge:   12.6187    magn:    2.3429    constr:    0.0000
     atom:   16    charge:   12.6185    magn:    2.3316    constr:    0.0000
     atom:   17    charge:   12.6136    magn:    2.3623    constr:    0.0000
     atom:   18    charge:   12.6029    magn:    2.2060    constr:    0.0000
     atom:   19    charge:   12.6136    magn:    2.3623    constr:    0.0000
     atom:   20    charge:   12.6029    magn:    2.2213    constr:    0.0000
     atom:   21    charge:   12.6040    magn:    2.2589    constr:    0.0000
     atom:   22    charge:   12.6162    magn:    2.3603    constr:    0.0000
     atom:   23    charge:   12.6040    magn:    2.2589    constr:    0.0000
     atom:   24    charge:   12.6246    magn:    1.6485    constr:    0.0000
     atom:   25    charge:   12.6136    magn:    2.3612    constr:    0.0000
     atom:   26    charge:   12.6134    magn:    2.3658    constr:    0.0000
     atom:   27    charge:   12.6028    magn:    2.2322    constr:    0.0000
     atom:   28    charge:   12.6035    magn:    2.2093    constr:    0.0000
     atom:   29    charge:   12.6045    magn:    2.2846    constr:    0.0000
     atom:   30    charge:   12.6091    magn:    2.0807    constr:    0.0000
     atom:   31    charge:   12.6109    magn:    2.1501    constr:    0.0000
     atom:   32    charge:   12.6187    magn:    2.3430    constr:    0.0000
     atom:   33    charge:   12.6141    magn:    2.3595    constr:    0.0000
     atom:   34    charge:   12.6029    magn:    2.2060    constr:    0.0000
     atom:   35    charge:   12.6141    magn:    2.3596    constr:    0.0000
     atom:   36    charge:   12.6053    magn:    2.1716    constr:    0.0000
     atom:   37    charge:   12.6073    magn:    2.1881    constr:    0.0000
     atom:   38    charge:   12.6162    magn:    2.3603    constr:    0.0000
     atom:   39    charge:   12.6073    magn:    2.1882    constr:    0.0000
     atom:   40    charge:   12.6118    magn:    2.3638    constr:    0.0000
     atom:   41    charge:   12.6145    magn:    2.3647    constr:    0.0000
     atom:   42    charge:   12.6139    magn:    2.3659    constr:    0.0000
     atom:   43    charge:   12.6039    magn:    2.1966    constr:    0.0000
     atom:   44    charge:   12.6035    magn:    2.2094    constr:    0.0000
     atom:   45    charge:   12.6071    magn:    2.1379    constr:    0.0000
     atom:   46    charge:   12.6090    magn:    2.0808    constr:    0.0000
     atom:   47    charge:   12.6185    magn:    2.3315    constr:    0.0000
     atom:   48    charge:   12.6185    magn:    2.3430    constr:    0.0000
     atom:   49    charge:   12.6137    magn:    2.3624    constr:    0.0000
     atom:   50    charge:   12.6035    magn:    2.2217    constr:    0.0000
     atom:   51    charge:   12.6142    magn:    2.3596    constr:    0.0000
     atom:   52    charge:   12.6030    magn:    2.2059    constr:    0.0000
     atom:   53    charge:   12.6037    magn:    2.2592    constr:    0.0000
     atom:   54    charge:   12.6244    magn:    1.6484    constr:    0.0000
     atom:   55    charge:   12.6075    magn:    2.1881    constr:    0.0000
     atom:   56    charge:   12.6164    magn:    2.3601    constr:    0.0000
     atom:   57    charge:   12.6141    magn:    2.3556    constr:    0.0000
     atom:   58    charge:   12.6140    magn:    2.3582    constr:    0.0000
     atom:   59    charge:   12.6035    magn:    2.2094    constr:    0.0000
     atom:   60    charge:   12.6028    magn:    2.2322    constr:    0.0000
     atom:   61    charge:   12.6042    magn:    2.1999    constr:    0.0000
     atom:   62    charge:   12.6081    magn:    2.1836    constr:    0.0000
     atom:   63    charge:   12.6185    magn:    2.3432    constr:    0.0000
     atom:   64    charge:   12.6109    magn:    2.1502    constr:    0.0000
     atom:   65    charge:    3.7341    magn:   -0.1375    constr:    0.0000

     total cpu time spent up to now is    31653.8 secs

     total energy              =  -21092.70591520 Ry
     Harris-Foulkes estimate   =  -21092.70556275 Ry
     estimated scf accuracy    <       0.00685159 Ry

     total magnetization       =   160.45 Bohr mag/cell
     absolute magnetization    =   168.46 Bohr mag/cell

     iteration #101     ecut=    60.00 Ry     beta= 0.20
     Davidson diagonalization with overlap
     ethr =  5.67E-08,  avg # of iterations =  8.1

     negative rho (up, down):  1.200E-02 5.421E-02

     total cpu time spent up to now is    31898.1 secs

     total energy              =  -21092.70548182 Ry
     Harris-Foulkes estimate   =  -21092.70593380 Ry
     estimated scf accuracy    <       0.00512980 Ry

     total magnetization       =   160.47 Bohr mag/cell
     absolute magnetization    =   168.44 Bohr mag/cell

     iteration #102     ecut=    60.00 Ry     beta= 0.20
     Davidson diagonalization with overlap
     ethr =  5.67E-08,  avg # of iterations =  6.4

     negative rho (up, down):  1.078E-02 6.486E-02

     total cpu time spent up to now is    32114.4 secs

     total energy              =  -21092.70757182 Ry
     Harris-Foulkes estimate   =  -21092.70549042 Ry
     estimated scf accuracy    <       0.00449855 Ry

     total magnetization       =   160.48 Bohr mag/cell
     absolute magnetization    =   168.43 Bohr mag/cell

     iteration #103     ecut=    60.00 Ry     beta= 0.20
     Davidson diagonalization with overlap
     ethr =  5.67E-08,  avg # of iterations = 14.3

     negative rho (up, down):  1.191E-02 6.167E-02

     total cpu time spent up to now is    32402.4 secs

     total energy              =  -21092.70744109 Ry
     Harris-Foulkes estimate   =  -21092.70769318 Ry
     estimated scf accuracy    <       0.00158596 Ry

     total magnetization       =   160.51 Bohr mag/cell
     absolute magnetization    =   168.39 Bohr mag/cell

     iteration #104     ecut=    60.00 Ry     beta= 0.20
     Davidson diagonalization with overlap
     ethr =  5.67E-08,  avg # of iterations =  5.0

     negative rho (up, down):  1.090E-02 6.334E-02

     total cpu time spent up to now is    32608.8 secs

     total energy              =  -21092.70766373 Ry
     Harris-Foulkes estimate   =  -21092.70745044 Ry
     estimated scf accuracy    <       0.00089171 Ry

     total magnetization       =   160.53 Bohr mag/cell
     absolute magnetization    =   168.37 Bohr mag/cell

     iteration #105     ecut=    60.00 Ry     beta= 0.20
     Davidson diagonalization with overlap
     ethr =  5.67E-08,  avg # of iterations =  3.2

     negative rho (up, down):  1.138E-02 6.127E-02

     total cpu time spent up to now is    32771.3 secs

     total energy              =  -21092.70782988 Ry
     Harris-Foulkes estimate   =  -21092.70768811 Ry
     estimated scf accuracy    <       0.00252834 Ry

     total magnetization       =   160.50 Bohr mag/cell
     absolute magnetization    =   168.41 Bohr mag/cell

     iteration #106     ecut=    60.00 Ry     beta= 0.20
     Davidson diagonalization with overlap
     ethr =  5.67E-08,  avg # of iterations =  7.0

     negative rho (up, down):  1.135E-02 6.206E-02

     total cpu time spent up to now is    33007.4 secs

     total energy              =  -21092.70788569 Ry
     Harris-Foulkes estimate   =  -21092.70785215 Ry
     estimated scf accuracy    <       0.00115066 Ry

     total magnetization       =   160.52 Bohr mag/cell
     absolute magnetization    =   168.38 Bohr mag/cell

     iteration #107     ecut=    60.00 Ry     beta= 0.20
     Davidson diagonalization with overlap
     ethr =  5.67E-08,  avg # of iterations =  1.0

     negative rho (up, down):  1.062E-02 6.157E-02

     total cpu time spent up to now is    33138.7 secs

     total energy              =  -21092.70861213 Ry
     Harris-Foulkes estimate   =  -21092.70788709 Ry
     estimated scf accuracy    <       0.00131638 Ry

     total magnetization       =   160.51 Bohr mag/cell
     absolute magnetization    =   168.38 Bohr mag/cell

     iteration #108     ecut=    60.00 Ry     beta= 0.20
     Davidson diagonalization with overlap
     ethr =  5.67E-08,  avg # of iterations =  9.4

     negative rho (up, down):  1.031E-02 6.647E-02

     total cpu time spent up to now is    33416.1 secs

     total energy              =  -21092.70933277 Ry
     Harris-Foulkes estimate   =  -21092.70865698 Ry
     estimated scf accuracy    <       0.00156527 Ry

     total magnetization       =   160.51 Bohr mag/cell
     absolute magnetization    =   168.39 Bohr mag/cell

     iteration #109     ecut=    60.00 Ry     beta= 0.20
     Davidson diagonalization with overlap
     ethr =  5.67E-08,  avg # of iterations =  5.5

     negative rho (up, down):  1.045E-02 7.134E-02

     total cpu time spent up to now is    33616.0 secs

     total energy              =  -21092.70991380 Ry
     Harris-Foulkes estimate   =  -21092.70934054 Ry
     estimated scf accuracy    <       0.00092585 Ry

     total magnetization       =   160.51 Bohr mag/cell
     absolute magnetization    =   168.37 Bohr mag/cell

     iteration #110     ecut=    60.00 Ry     beta= 0.20
     Davidson diagonalization with overlap
     ethr =  5.67E-08,  avg # of iterations =  5.8

     negative rho (up, down):  1.035E-02 6.862E-02

     total cpu time spent up to now is    33832.2 secs

     total energy              =  -21092.70977182 Ry
     Harris-Foulkes estimate   =  -21092.70992091 Ry
     estimated scf accuracy    <       0.00058615 Ry

     total magnetization       =   160.53 Bohr mag/cell
     absolute magnetization    =   168.37 Bohr mag/cell

     iteration #111     ecut=    60.00 Ry     beta= 0.20
     Davidson diagonalization with overlap
     ethr =  5.67E-08,  avg # of iterations =  1.0

     negative rho (up, down):  1.080E-02 7.389E-02

     total cpu time spent up to now is    33959.9 secs

     total energy              =  -21092.70916597 Ry
     Harris-Foulkes estimate   =  -21092.70977352 Ry
     estimated scf accuracy    <       0.00074360 Ry

     total magnetization       =   160.52 Bohr mag/cell
     absolute magnetization    =   168.37 Bohr mag/cell

     iteration #112     ecut=    60.00 Ry     beta= 0.20
     Davidson diagonalization with overlap
     ethr =  5.67E-08,  avg # of iterations =  8.3

     negative rho (up, down):  1.060E-02 7.148E-02

     total cpu time spent up to now is    34219.4 secs

     total energy              =  -21092.70830473 Ry
     Harris-Foulkes estimate   =  -21092.70921917 Ry
     estimated scf accuracy    <       0.00040474 Ry

     total magnetization       =   160.53 Bohr mag/cell
     absolute magnetization    =   168.35 Bohr mag/cell

     iteration #113     ecut=    60.00 Ry     beta= 0.20
     Davidson diagonalization with overlap
     ethr =  3.93E-08,  avg # of iterations =  9.0

     negative rho (up, down):  1.089E-02 7.485E-02

     total cpu time spent up to now is    34495.9 secs

     total energy              =  -21092.70931553 Ry
     Harris-Foulkes estimate   =  -21092.70832992 Ry
     estimated scf accuracy    <       0.00048075 Ry

     total magnetization       =   160.52 Bohr mag/cell
     absolute magnetization    =   168.35 Bohr mag/cell

     iteration #114     ecut=    60.00 Ry     beta= 0.20
     Davidson diagonalization with overlap
     ethr =  3.93E-08,  avg # of iterations =  7.8

     negative rho (up, down):  1.118E-02 6.385E-02

     total cpu time spent up to now is    34748.4 secs

     total energy              =  -21092.70670898 Ry
     Harris-Foulkes estimate   =  -21092.70933063 Ry
     estimated scf accuracy    <       0.00040334 Ry

     total magnetization       =   160.53 Bohr mag/cell
     absolute magnetization    =   168.34 Bohr mag/cell

     iteration #115     ecut=    60.00 Ry     beta= 0.20
     Davidson diagonalization with overlap
     ethr =  3.92E-08,  avg # of iterations = 10.0

     negative rho (up, down):  1.103E-02 6.476E-02

     total cpu time spent up to now is    35020.0 secs

     total energy              =  -21092.70677504 Ry
     Harris-Foulkes estimate   =  -21092.70677080 Ry
     estimated scf accuracy    <       0.00077491 Ry

     total magnetization       =   160.52 Bohr mag/cell
     absolute magnetization    =   168.36 Bohr mag/cell

     iteration #116     ecut=    60.00 Ry     beta= 0.20
     Davidson diagonalization with overlap
     ethr =  3.92E-08,  avg # of iterations =  1.9

     negative rho (up, down):  1.131E-02 6.484E-02

     total cpu time spent up to now is    35180.9 secs

     total energy              =  -21092.70724459 Ry
     Harris-Foulkes estimate   =  -21092.70677611 Ry
     estimated scf accuracy    <       0.00092181 Ry

     total magnetization       =   160.51 Bohr mag/cell
     absolute magnetization    =   168.36 Bohr mag/cell

     iteration #117     ecut=    60.00 Ry     beta= 0.20
     Davidson diagonalization with overlap
     ethr =  3.92E-08,  avg # of iterations =  5.8

     negative rho (up, down):  1.197E-02 8.130E-02

     total cpu time spent up to now is    35394.1 secs

     total energy              =  -21092.70900048 Ry
     Harris-Foulkes estimate   =  -21092.70725051 Ry
     estimated scf accuracy    <       0.00077764 Ry

     total magnetization       =   160.52 Bohr mag/cell
     absolute magnetization    =   168.36 Bohr mag/cell

     iteration #118     ecut=    60.00 Ry     beta= 0.20
     Davidson diagonalization with overlap
     ethr =  3.92E-08,  avg # of iterations =  6.8

     negative rho (up, down):  9.631E-03 6.642E-02

     total cpu time spent up to now is    35619.1 secs

     total energy              =  -21092.70762547 Ry
     Harris-Foulkes estimate   =  -21092.70900579 Ry
     estimated scf accuracy    <       0.00052283 Ry

     total magnetization       =   160.52 Bohr mag/cell
     absolute magnetization    =   168.35 Bohr mag/cell

[...]
   -11.5852 -11.5778 -11.5492 -11.5303 -11.4797 -11.4723 -11.4429 -11.4039
   -11.3856 -11.3649 -11.3325 -11.3145 -11.3082 -11.2858 -11.2768 -11.2592
   -11.2525 -11.2368 -11.2193 -11.2052 -11.1917 -11.1535 -11.1211 -11.0911
   -11.0775 -11.0739 -11.0557 -11.0486 -11.0357 -11.0275 -11.0184 -11.0040
   -10.9951 -10.9767 -10.9561 -10.9293 -10.9180 -10.8914 -10.8855 -10.8825
   -10.8480 -10.8408 -10.8091 -10.8025 -10.7958 -10.7882 -10.7718 -10.7536
   -10.7422 -10.7271 -10.7238 -10.7147 -10.7070 -10.6973 -10.6871 -10.6713
   -10.6643 -10.6629 -10.6495 -10.6411 -10.6286 -10.6165 -10.6144 -10.5775
   -10.5659 -10.5595 -10.5445 -10.5374 -10.5291 -10.5250 -10.5161 -10.5121
   -10.5086 -10.5028 -10.4861 -10.4776 -10.4628 -10.4511 -10.4454 -10.4387
   -10.4293 -10.4212 -10.4123 -10.4052 -10.3991 -10.3839 -10.3793 -10.3585
   -10.3503 -10.3410 -10.3400 -10.3279 -10.3124 -10.3083 -10.3008 -10.2931
   -10.2895 -10.2868 -10.2760 -10.2696 -10.2656 -10.2609 -10.2563 -10.2371
   -10.2317 -10.2287 -10.2200 -10.2071 -10.1913 -10.1805 -10.1703 -10.1696
   -10.1634 -10.1564 -10.1550 -10.1534 -10.1409 -10.1352 -10.1256 -10.1240
   -10.1183 -10.1117 -10.1039 -10.0980 -10.0842 -10.0765 -10.0611 -10.0472
   -10.0468 -10.0381 -10.0209  -9.9942  -9.9896  -9.9712  -9.9628  -9.9612
    -9.9535  -9.9393  -9.9305  -9.9255  -9.9103  -9.8884  -9.8750  -9.8622
    -9.8604  -9.8364  -9.8252  -9.8150  -9.7971  -9.7897  -9.7429  -9.7250
    -9.6551  -9.6494  -9.5749  -9.5471  -9.5037  -9.4598  -9.4330  -9.3456
    -9.3251  -9.2695

          k =-0.5000-0.3536 0.0000 (128560 PWs)   bands (ev):

   -98.0569 -98.0565 -97.6139 -97.6137 -97.5090 -97.4956 -97.4952 -97.3974
   -97.3799 -97.3764 -97.3729 -97.3635 -97.3623 -97.3534 -97.3495 -97.3490
   -97.3442 -97.3435 -97.3418 -97.3368 -97.3361 -97.3339 -97.3331 -97.3317
   -97.3311 -97.3296 -97.3274 -97.3270 -97.3250 -97.3234 -97.3222 -97.3211
   -97.3205 -97.3154 -97.3122 -97.3107 -97.3072 -97.3023 -97.3007 -97.3004
   -97.2994 -97.2991 -97.2961 -97.2944 -97.2915 -97.2914 -97.2898 -97.2883
   -97.2855 -97.2762 -97.2742 -97.2741 -97.2728 -97.2707 -97.2707 -97.2705
   -97.2680 -97.2677 -97.2675 -97.2662 -97.2526 -97.2490 -97.2474 -97.2445
   -64.6010 -64.5929 -64.0621 -64.0521 -63.9824 -63.9752 -63.9341 -63.9287
   -63.7273 -63.7152 -63.7050 -63.7031 -63.6958 -63.6905 -63.6840 -63.6638
   -63.6630 -63.6573 -63.6495 -63.6465 -63.6444 -63.6388 -63.6278 -63.6256
   -63.6240 -63.6230 -63.6210 -63.6153 -63.6120 -63.6098 -63.6071 -63.6057
   -63.5989 -63.5943 -63.5905 -63.5903 -63.5883 -63.5863 -63.5856 -63.5832
   -63.5820 -63.5813 -63.5776 -63.5734 -63.5674 -63.5649 -63.5640 -63.5625
   -63.5623 -63.5612 -63.5542 -63.5512 -63.5509 -63.5493 -63.5464 -63.5445
   -63.5430 -63.5427 -63.5404 -63.5395 -63.5380 -63.5366 -63.5341 -63.5328
   -63.5327 -63.5314 -63.5308 -63.5245 -63.5214 -63.5206 -63.5199 -63.5170
   -63.5102 -63.5011 -63.4955 -63.4919 -63.4882 -63.4852 -63.4803 -63.4764
   -63.4723 -63.4701 -63.4695 -63.4648 -63.4495 -63.4474 -63.4471 -63.4457
   -63.4406 -63.4354 -63.4350 -63.4349 -63.4322 -63.4314 -63.4274 -63.4256
   -63.4249 -63.4220 -63.4205 -63.4199 -63.4148 -63.4135 -63.4122 -63.4095
   -63.4092 -63.4049 -63.3992 -63.3991 -63.3975 -63.3923 -63.3909 -63.3907
   -63.3905 -63.3888 -63.3886 -63.3873 -63.3868 -63.3860 -63.3835 -63.3772
   -63.3750 -63.3742 -63.3654 -63.3652 -63.3633 -63.3627 -63.3613 -63.3602
   -63.3592 -63.3576 -63.3550 -63.3496 -63.3474 -63.3454 -63.3446 -63.3437
   -63.3404 -63.3400 -63.3387 -63.3354 -63.3347 -63.3341 -63.3334 -63.3330
   -63.3300 -63.3300 -63.3296 -63.3268 -63.3261 -63.3253 -63.3247 -63.3239
   -63.3232 -63.3228 -63.3205 -63.3200 -63.3161 -63.3153 -63.3141 -63.3121
   -63.3094 -63.3084 -63.3069 -63.3066 -63.3017 -63.3014 -63.3003 -63.3002
   -63.3001 -63.2994 -63.2985 -63.2981 -63.2957 -63.2953 -63.2949 -63.2943
   -63.2942 -63.2913 -63.2882 -63.2866 -63.2855 -63.2854 -63.2842 -63.2811
   -63.2778 -63.2776 -63.2771 -63.2727 -63.2718 -63.2705 -63.2673 -63.2636
   -27.9860 -19.3707 -19.3258 -18.8761 -18.7469 -18.4376 -18.2782 -18.0025
   -17.8721 -17.5650 -17.3800 -17.2222 -16.7653 -16.7125 -16.6975 -16.5746
   -16.3202 -16.2833 -15.9383 -15.9315 -15.9048 -15.8815 -15.8766 -15.8175
   -15.8074 -15.7767 -15.7428 -15.7284 -15.7099 -15.5679 -15.3578 -15.3528
   -15.3483 -15.3420 -15.3026 -15.2478 -15.1578 -15.0012 -14.8938 -14.8937
   -14.8840 -14.8518 -14.8331 -14.8289 -14.8242 -14.7794 -14.7519 -14.7225
   -14.6897 -14.5910 -14.5893 -14.5752 -14.5635 -14.5527 -14.5324 -14.3588
   -14.3359 -14.3206 -14.3132 -14.2905 -14.2696 -14.2433 -14.0902 -14.0684
   -14.0511 -14.0382 -13.9842 -13.9834 -13.9795 -13.9033 -13.8652 -13.8425
   -13.8278 -13.7988 -13.7884 -13.7804 -13.7791 -13.7522 -13.7499 -13.7361
   -13.7270 -13.6753 -13.6583 -13.6525 -13.6480 -13.6466 -13.6402 -13.6376
   -13.6102 -13.6068 -13.5796 -13.5645 -13.4848 -13.4410 -13.4395 -13.4340
   -13.4266 -13.3598 -13.3442 -13.3164 -13.3014 -13.2948 -13.2940 -13.2784
   -13.2709 -13.2670 -13.2627 -13.2265 -13.2225 -13.2105 -13.2026 -13.2024
   -13.1943 -13.1885 -13.1830 -13.1771 -13.1644 -13.1642 -13.1589 -13.1584
   -13.1293 -13.1267 -13.1255 -13.1239 -13.1190 -13.1102 -13.0982 -13.0881
   -13.0792 -13.0580 -13.0518 -13.0515 -13.0505 -13.0430 -13.0405 -13.0300
   -13.0219 -13.0077 -13.0018 -12.9784 -12.8689 -12.8321 -12.8244 -12.8138
   -12.7999 -12.7955 -12.7861 -12.7851 -12.7800 -12.7632 -12.7474 -12.7359
   -12.6683 -12.6403 -12.6351 -12.6254 -12.6187 -12.6035 -12.6035 -12.5979
   -12.5745 -12.5538 -12.5414 -12.5240 -12.4918 -12.4648 -12.4395 -12.4314
   -12.4149 -12.3661 -12.3259 -12.2917 -12.2769 -12.2689 -12.2560 -12.2491
   -12.2398 -12.2231 -12.2208 -12.2088 -12.1789 -12.1757 -12.1625 -12.1508
   -12.1347 -12.1131 -12.1091 -12.0941 -11.9807 -11.9763 -11.8973 -11.8846
   -11.8823 -11.8586 -11.7627 -11.7610 -11.7594 -11.6307 -11.6067 -11.5977
   -11.5674 -11.4994 -11.4800 -11.4613 -11.4593 -11.4078 -11.4066 -11.4062
   -11.3754 -11.3731 -11.3493 -11.3373 -11.3133 -11.3035 -11.2556 -11.2305
   -11.2228 -11.2208 -11.1990 -11.1914 -11.1387 -11.1154 -11.1114 -11.0953
   -11.0891 -11.0864 -11.0587 -11.0326 -11.0279 -11.0071 -10.9873 -10.9863
   -10.9790 -10.9788 -10.9596 -10.9456 -10.9406 -10.9084 -10.8910 -10.8820
   -10.8769 -10.8742 -10.8417 -10.8384 -10.8271 -10.8255 -10.7983 -10.7983
   -10.7568 -10.7230 -10.7020 -10.6935 -10.6767 -10.6419 -10.6279 -10.6247
   -10.6112 -10.6096 -10.5761 -10.5720 -10.5660 -10.5552 -10.5516 -10.5503
   -10.5231 -10.5220 -10.4996 -10.4963 -10.4961 -10.4906 -10.4789 -10.4749
   -10.4638 -10.4629 -10.4581 -10.4466 -10.4460 -10.4199 -10.4171 -10.4156
   -10.4085 -10.4064 -10.3907 -10.3900 -10.3894 -10.3798 -10.3751 -10.3687
   -10.3554 -10.3519 -10.3447 -10.3365 -10.3322 -10.3114 -10.3109 -10.3042
   -10.2965 -10.2961 -10.2862 -10.2858 -10.2804 -10.2599 -10.2511 -10.2456
   -10.2344 -10.2145 -10.2091 -10.1991 -10.1904 -10.1900 -10.1805 -10.1750
   -10.1555 -10.1527 -10.1412 -10.1232 -10.1231 -10.1106 -10.1057 -10.1024
   -10.0915 -10.0915 -10.0813 -10.0797 -10.0767 -10.0690 -10.0670 -10.0600
   -10.0575 -10.0445 -10.0342 -10.0267 -10.0231 -10.0175 -10.0136 -10.0028
    -9.9980  -9.9901  -9.9624  -9.9428  -9.9420  -9.9386  -9.9301  -9.9074
    -9.9067  -9.8938  -9.7455  -9.7425  -9.7028  -9.6858  -9.6557  -9.6527
    -9.6120  -9.5464  -9.4941  -9.4905  -9.4726  -9.4640  -9.4193  -9.4178
    -9.4043  -9.3940

     the Fermi energy is   -12.2387 ev

!    total energy              =  -21092.71765718 Ry
     Harris-Foulkes estimate   =  -21092.71765900 Ry
     estimated scf accuracy    <          9.4E-11 Ry

     The total energy is the sum of the following terms:

     one-electron contribution = -742653.39451491 Ry
     hartree contribution      =  370858.53922724 Ry
     xc contribution           =   -2233.49846198 Ry
     ewald contribution        =  357810.46072605 Ry
     Dispersion Correction     =      -1.38837024 Ry
     one-center paw contrib.   =   -4873.43994711 Ry
     smearing contrib. (-TS)   =       0.00368377 Ry

     total magnetization       =   160.83 Bohr mag/cell
     absolute magnetization    =   168.67 Bohr mag/cell

     convergence has been achieved in  31 iterations

     negative rho (up, down):  1.163E-02 1.214E-01

     Forces acting on atoms (cartesian axes, Ry/au):

     atom    1 type  1   force =    -0.00003948    0.00081177    0.00857016
     atom    2 type  1   force =     0.00320029   -0.00450698   -0.01458057
     atom    3 type  1   force =    -0.00081103   -0.00075130    0.00808237
     atom    4 type  1   force =     0.00063983    0.00092658   -0.00633286
     atom    5 type  1   force =     0.00017016   -0.00002602   -0.00013382
     atom    6 type  1   force =     0.00008026   -0.00012095    0.00015016
     atom    7 type  1   force =    -0.00010316    0.00004014   -0.00008385
     atom    8 type  1   force =    -0.00005618   -0.00004753    0.00016167
     atom    9 type  1   force =    -0.00001682   -0.00000809    0.00771685
     atom   10 type  1   force =    -0.00090328   -0.00067140    0.00826443
     atom   11 type  1   force =     0.00113604   -0.00072276   -0.00682256
     atom   12 type  1   force =     0.00054065    0.00045383   -0.01064114
     atom   13 type  1   force =     0.00000294   -0.00000050   -0.00010907
     atom   14 type  1   force =     0.00001008   -0.00001564   -0.00007098
     atom   15 type  1   force =     0.00018621    0.00010358   -0.00017266
     atom   16 type  1   force =     0.00015462    0.00010285    0.00013327
     atom   17 type  1   force =    -0.00101189   -0.00051454    0.00810497
     atom   18 type  1   force =     0.00109566    0.00031209   -0.00630283
     atom   19 type  1   force =     0.00081989    0.00077869    0.00807991
     atom   20 type  1   force =    -0.00109566    0.00159277   -0.00241876
     atom   21 type  1   force =     0.00000108   -0.00010938   -0.00008533
     atom   22 type  1   force =    -0.00003974   -0.00003143    0.00022899
     atom   23 type  1   force =     0.00009878   -0.00003712   -0.00008810
     atom   24 type  1   force =    -0.00007242    0.00009337    0.00005378
     atom   25 type  1   force =     0.00001304   -0.00000513    0.00838595
     atom   26 type  1   force =    -0.00116462    0.00164648    0.00770603
     atom   27 type  1   force =     0.00132019    0.00088771   -0.00225468
     atom   28 type  1   force =     0.00031707   -0.00129784   -0.00681938
     atom   29 type  1   force =    -0.00000276    0.00000344    0.00006169
     atom   30 type  1   force =     0.00008221   -0.00012108    0.00007671
     atom   31 type  1   force =     0.00005485    0.00003781   -0.00010410
     atom   32 type  1   force =    -0.00016621   -0.00014097   -0.00016922
     atom   33 type  1   force =     0.00002379   -0.00083447    0.00856186
     atom   34 type  1   force =    -0.00064775   -0.00091640   -0.00630365
     atom   35 type  1   force =     0.00077163   -0.00029846    0.00857128
     atom   36 type  1   force =    -0.00325404    0.00458633   -0.01462989
     atom   37 type  1   force =    -0.00019458    0.00004795   -0.00013548
     atom   38 type  1   force =     0.00003594    0.00002127    0.00021546
     atom   39 type  1   force =     0.00001882    0.00019347   -0.00013643
     atom   40 type  1   force =    -0.00008438    0.00011628    0.00013829
     atom   41 type  1   force =     0.00001238   -0.00001511    0.00914615
     atom   42 type  1   force =     0.00115482   -0.00161993    0.00764262
     atom   43 type  1   force =    -0.00061240   -0.00033830   -0.01064756
     atom   44 type  1   force =    -0.00112090    0.00072041   -0.00674674
     atom   45 type  1   force =    -0.00001105    0.00001083   -0.00008907
     atom   46 type  1   force =    -0.00009044    0.00011956    0.00006343
     atom   47 type  1   force =    -0.00015331   -0.00010769    0.00013604
     atom   48 type  1   force =    -0.00019327   -0.00014073   -0.00021407
     atom   49 type  1   force =     0.00097894    0.00051020    0.00809524
     atom   50 type  1   force =     0.00119947   -0.00169373   -0.00236809
     atom   51 type  1   force =    -0.00075104    0.00030117    0.00858768
     atom   52 type  1   force =    -0.00107985   -0.00027459   -0.00634158
     atom   53 type  1   force =    -0.00000661    0.00010808   -0.00008199
     atom   54 type  1   force =     0.00005620   -0.00008305    0.00005202
     atom   55 type  1   force =    -0.00003593   -0.00017474   -0.00013080
     atom   56 type  1   force =     0.00005825    0.00003077    0.00017280
     atom   57 type  1   force =    -0.00000062    0.00000332    0.00773536
     atom   58 type  1   force =     0.00091849    0.00061355    0.00827106
     atom   59 type  1   force =    -0.00029608    0.00131282   -0.00674338
     atom   60 type  1   force =    -0.00127717   -0.00092532   -0.00224910
     atom   61 type  1   force =    -0.00000443   -0.00000386   -0.00010619
     atom   62 type  1   force =     0.00000718   -0.00001547   -0.00006911
     atom   63 type  1   force =     0.00019335    0.00013328   -0.00021217
     atom   64 type  1   force =    -0.00005630   -0.00004708   -0.00011579
     atom   65 type  2   force =     0.00000030   -0.00000277    0.00027878

     Total force =     0.001114     Total SCF correction =     0.000053

     bfgs converged in  12 scf cycles and  10 bfgs steps
     (criteria: energy <  7.3E-07 Ry, force <  3.9E-04 Ry/Bohr)

     End of BFGS Geometry Optimization

     Final energy   =  -21092.7176571843 Ry
Begin final coordinates

ATOMIC_POSITIONS (angstrom)
Fe       1.654912953   1.170200133   0.000000000    0   0   0
Fe       0.000000000   0.000000000   2.026984232    0   0   0
Fe       4.964738858   3.510600399   0.000000000    0   0   0
Fe       3.309825906   2.340400266   2.026984232    0   0   0
Fe       1.679042761   1.167889461   4.035871492
Fe       3.335863064   9.325293763   6.029133854
Fe       4.959044064   3.534307990   4.046896462
Fe       3.391792676   2.342196452   6.038991440
Fe       2.482363858   3.510600399   0.000000000    0   0   0
Fe       4.137287953   1.170200133   0.000000000    0   0   0
Fe       0.827450906   2.340400266   2.026984232    0   0   0
Fe       2.482375000   0.000000000   2.026984232    0   0   0
Fe       2.482457025   3.510739776   4.055747449
Fe       4.161060368   1.187412826   4.038863126
Fe       0.907272124   2.301636932   6.048432330
Fe       2.511535024   0.020957784   6.036051986
Fe       6.619662953   1.170200133   0.000000000    0   0   0
Fe       4.964750000   0.000000000   2.026984232    0   0   0
Fe       9.929488858   3.510600399   0.000000000    0   0   0
Fe       8.274575906   2.340400266   2.026984232    0   0   0
Fe       6.639934179   1.156756186   4.046690839
Fe       4.993376860   0.077109992   6.038944954
Fe       9.935805967   3.487283089   4.046735979
Fe       8.457435534   2.082407439   5.976486228
Fe       7.447113858   3.510600399   0.000000000    0   0   0
Fe       9.102037953   1.170200133   0.000000000    0   0   0
Fe       5.792200906   2.340400266   2.026984232    0   0   0
Fe       7.447125000   0.000000000   2.026984232    0   0   0
Fe       7.447525892   3.510483717   4.060697071
Fe       9.132739792   1.127193371   3.998156779
Fe       5.878801620   2.401196550   6.011659551
Fe      10.767454286   9.273813540   6.048398065
Fe       3.309814764   5.851000664   0.000000000    0   0   0
Fe       1.654901811   4.680800531   2.026984232    0   0   0
Fe       6.619640670   8.191400930   0.000000000    0   0   0
Fe       4.964727717   7.021200797   2.026984232    0   0   0
Fe       3.285924737   5.853607243   4.036069975
Fe      11.502870142   4.679881169   6.039049449
Fe       6.625469808   8.215039675   4.036100230
Fe       4.938919671   7.058105161   6.028394837
Fe       4.137265670   8.191400930   0.000000000    0   0   0
Fe       5.792189764   5.851000664   0.000000000    0   0   0
Fe       2.482352717   7.021200797   2.026984232    0   0   0
Fe       4.137276811   4.680800531   2.026984232    0   0   0
Fe       4.137390401   8.191573601   4.022150929
Fe       5.761838995   5.894284424   3.998017269
Fe      12.382823246   7.001042563   6.035960004
Fe       4.058175301   4.720462848   6.048245617
Fe       8.274564764   5.851000664   0.000000000    0   0   0
Fe       6.619651811   4.680800531   2.026984232    0   0   0
Fe      11.584390670   8.191400930   0.000000000    0   0   0
Fe       9.929477717   7.021200797   2.026984232    0   0   0
Fe       8.254466462   5.864561254   4.046954828
Fe       6.437581792   4.938938506   5.975987272
Fe      11.578872241   8.168161413   4.035823375
Fe       9.900928485   6.945003264   6.038926241
Fe       9.102015670   8.191400930   0.000000000    0   0   0
Fe      10.756939764   5.851000664   0.000000000    0   0   0
Fe       7.447102717   7.021200797   2.026984232    0   0   0
Fe       9.102026811   4.680800531   2.026984232    0   0   0
Fe       9.102186705   8.191646693   4.055729687
Fe      10.733140339   5.834569286   4.038915671
Fe       7.436510474   7.109539111   6.048374162
Fe       9.016497405   4.619889076   6.011764695
N        7.447488110   3.510736773   6.309812273
End final coordinates



     Writing output data file Fe_N_paper_480c_ESM_pn5.save/

     init_run     :     82.07s CPU     84.06s WALL (       1 calls)
     electrons    : 168430.61s CPU 169666.87s WALL (      12 calls)
     update_pot   :    164.97s CPU    165.21s WALL (      11 calls)
     forces       :    515.83s CPU    519.70s WALL (      12 calls)

     Called by init_run:
     wfcinit      :     59.84s CPU     61.55s WALL (       1 calls)
     potinit      :      6.33s CPU      6.40s WALL (       1 calls)
     hinit0       :     13.22s CPU     13.31s WALL (       1 calls)

     Called by electrons:
     c_bands      : 153112.72s CPU 154143.31s WALL (     547 calls)
     sum_band     :   8865.97s CPU   9003.01s WALL (     547 calls)
     v_of_rho     :    898.89s CPU    903.36s WALL (     550 calls)
     newd         :    157.92s CPU    166.03s WALL (     550 calls)
     PAW_pot      :    248.32s CPU    249.63s WALL (     561 calls)
     mix_rho      :   4898.40s CPU   4947.13s WALL (     547 calls)

     Called by c_bands:
     init_us_2    :    248.54s CPU    251.51s WALL (    3354 calls)
     cegterg      :  90789.74s CPU  91433.16s WALL (    1648 calls)

     Called by sum_band:
     sum_band:bec :     15.90s CPU     15.99s WALL (    1674 calls)
     addusdens    :    194.00s CPU    208.68s WALL (     547 calls)

     Called by *egterg:
     h_psi        :  34689.61s CPU  34997.88s WALL (    7560 calls)
     s_psi        :   6974.85s CPU   6987.91s WALL (    7560 calls)
     g_psi        :     88.60s CPU     88.97s WALL (    5909 calls)
     cdiaghg      :  25242.17s CPU  25351.52s WALL (    7497 calls)

     Called by h_psi:
     h_psi:pot    :  34516.20s CPU  34707.09s WALL (    7560 calls)
     h_psi:calbec :   7136.92s CPU   7149.32s WALL (    7560 calls)
     vloc_psi     :  20394.18s CPU  20560.47s WALL (    7560 calls)
     add_vuspsi   :   6984.99s CPU   6997.25s WALL (    7560 calls)

     General routines
     calbec       :  10416.20s CPU  10434.15s WALL (    9378 calls)
     fft          :    552.59s CPU    555.96s WALL (   13935 calls)
     ffts         :   2507.38s CPU   2525.03s WALL (  296868 calls)
     fftw         :  19725.13s CPU  19887.97s WALL ( 5776346 calls)
     interpolate  :     56.02s CPU     56.47s WALL (    1100 calls)
     davcio       :      3.13s CPU    328.73s WALL (   16278 calls)

     Parallel routines
     fft_scatt_xy :   3876.82s CPU   3898.88s WALL ( 6087149 calls)
     fft_scatt_yz :   5481.33s CPU   5563.51s WALL ( 6087149 calls)

     PWSCF        :   1d23h 2m CPU   1d23h22m WALL


   This run was terminated on:  14:30:31  17Jun2022            

=------------------------------------------------------------------------------=
   JOB DONE.
=------------------------------------------------------------------------------=
