     Message from routine get_command_line:
     unexpected argument # 4     :-in

     Program PWSCF v.6.7MaX starts on  1Jul2022 at 13: 2:59 

     This program is part of the open-source Quantum ESPRESSO suite
     for quantum simulation of materials; please cite
         "P. Giannozzi et al., J. Phys.:Condens. Matter 21 395502 (2009);
         "P. Giannozzi et al., J. Phys.:Condens. Matter 29 465901 (2017);
          URL http://www.quantum-espresso.org", 
     in publications or presentations arising from this work. More details at
     http://www.quantum-espresso.org/quote

     Parallel version (MPI), running on   120 processors

     MPI processes distributed on     1 nodes
     K-points division:     npool     =       8
     R & G space division:  proc/nbgrp/npool/nimage =      15
     Waiting for input...
     Reading input from standard input
Warning: card &CELL ignored
Warning: card / ignored

     Current dimensions of program PWSCF are:
     Max number of different atomic species (ntypx) = 10
     Max number of k-points (npk) =  40000
     Max angular momentum in pseudopotentials (lmaxx) =  3

     IMPORTANT: XC functional enforced from input :
     Exchange-correlation= PBE
                           (   1   4   3   4   0   0   0)
     Any further DFT definition will be discarded
     Please, verify this is what you really want


     -------------------------------------------------
     Parameters for Dispersion (Grimme-D2) Correction:
     -------------------------------------------------
       atom      VdW radius       C_6     

        N          2.640         42.670
        H          1.892          4.857

     Subspace diagonalization in iterative solution of the eigenvalue problem:
     one sub-group per band group will be used
     scalapack distributed-memory algorithm (size of sub-group:  3*  3 procs)


     Parallelization info
     --------------------
     sticks:   dense  smooth     PW     G-vecs:    dense   smooth      PW
     Min        3636    1818    468               639190   225950   29545
     Max        3637    1819    470               639197   225953   29547
     Sum       54553   27281   7033              9587919  3389267  443191



     bravais-lattice index     =            0
     lattice parameter (alat)  =      37.7945  a.u.
     unit-cell volume          =   53986.6760 (a.u.)^3
     number of atoms/cell      =            3
     number of atomic types    =            2
     number of electrons       =         7.00
     number of Kohn-Sham states=            8
     kinetic-energy cutoff     =      60.0000  Ry
     charge density cutoff     =     480.0000  Ry
     scf convergence threshold =      1.0E-08
     mixing beta               =       0.7000
     number of iterations used =           10  plain     mixing
     energy convergence thresh.=      7.3E-07
     force convergence thresh. =      3.9E-04
     Exchange-correlation= PBE
                           (   1   4   3   4   0   0   0)
     nstep                     =           50


     Effective Screening Medium Method
     =================================
     Boundary Conditions: Metal-Slab-Metal
     field strength                   =    -0.05 Ry/a.u.
     grid points for fit at edges     =        4 


     celldm(1)=  37.794522  celldm(2)=   0.000000  celldm(3)=   0.000000
     celldm(4)=   0.000000  celldm(5)=   0.000000  celldm(6)=   0.000000

     crystal axes: (cart. coord. in units of alat)
               a(1) = (   1.000000   0.000000   0.000000 )  
               a(2) = (   0.000000   1.000000   0.000000 )  
               a(3) = (   0.000000   0.000000   1.000000 )  

     reciprocal axes: (cart. coord. in units 2 pi/alat)
               b(1) = (  1.000000  0.000000  0.000000 )  
               b(2) = (  0.000000  1.000000  0.000000 )  
               b(3) = (  0.000000  0.000000  1.000000 )  


     PseudoPot. # 1 for N  read from file:
     ../../SSSP/N.pbe-n-radius_5.UPF
     MD5 check sum: 16739722b17309cd8fe442a2ace49922
     Pseudo is Ultrasoft + core correction, Zval =  5.0
     Generated using "atomic" code by A. Dal Corso  v.5.1
     Using radial grid of 1085 points,  4 beta functions with: 
                l(1) =   0
                l(2) =   0
                l(3) =   1
                l(4) =   1
     Q(r) pseudized with 0 coefficients 


     PseudoPot. # 2 for H  read from file:
     ../../SSSP/H.pbe-rrkjus_psl.1.0.0.UPF
     MD5 check sum: f52b6d4d1c606e5624b1dc7b2218f220
     Pseudo is Ultrasoft, Zval =  1.0
     Generated using "atomic" code by A. Dal Corso  v.5.1
     Using radial grid of  929 points,  2 beta functions with: 
                l(1) =   0
                l(2) =   0
     Q(r) pseudized with 0 coefficients 


     atomic species   valence    mass     pseudopotential
        N              5.00    14.00700     N ( 1.00)
        H              1.00     1.00800     H ( 1.00)

     Starting magnetic structure 
     atomic species   magnetization
        N            0.100
        H            0.100

     No symmetry found



   Cartesian axes

     site n.     atom                  positions (alat units)
         1           N   tau(   1) = (   0.5000000   0.5000000   0.0000000  )
         2           H   tau(   2) = (   0.5000000   0.5404449   0.0324140  )
         3           H   tau(   3) = (   0.5000000   0.4595551   0.0324140  )

     number of k points=    10  Methfessel-Paxton smearing, width (Ry)=  0.0100
                       cart. coord. in units 2pi/alat
        k(    1) = (   0.0000000   0.0000000   0.0000000), wk =   0.0625000
        k(    2) = (   0.0000000   0.2500000   0.0000000), wk =   0.1250000
        k(    3) = (   0.0000000  -0.5000000   0.0000000), wk =   0.0625000
        k(    4) = (   0.2500000   0.0000000   0.0000000), wk =   0.1250000
        k(    5) = (   0.2500000   0.2500000   0.0000000), wk =   0.1250000
        k(    6) = (   0.2500000  -0.5000000   0.0000000), wk =   0.1250000
        k(    7) = (   0.2500000  -0.2500000   0.0000000), wk =   0.1250000
        k(    8) = (  -0.5000000   0.0000000   0.0000000), wk =   0.0625000
        k(    9) = (  -0.5000000   0.2500000   0.0000000), wk =   0.1250000
        k(   10) = (  -0.5000000  -0.5000000   0.0000000), wk =   0.0625000

     Dense  grid:  9587919 G-vectors     FFT dimensions: ( 270, 270, 270)

     Smooth grid:  3389267 G-vectors     FFT dimensions: ( 192, 192, 192)

     Estimated max dynamical RAM per process >     388.03 MB

     Estimated total dynamical RAM >      45.47 GB
     Generating pointlists ...
     new r_m :   0.0214 (alat units)  0.8081 (a.u.) for type    1
     new r_m :   0.0214 (alat units)  0.8081 (a.u.) for type    2

     Initial potential from superposition of free atoms

     starting charge    6.99997, renormalised to    7.00000

     negative rho (up, down):  9.679E-05 7.919E-05
     Starting wfcs are    6 randomized atomic wfcs +    2 random wfcs

     total cpu time spent up to now is       22.6 secs

     Self-consistent Calculation

     iteration #  1     ecut=    60.00 Ry     beta= 0.70
     CG style diagonalization
     c_bands:  3 eigenvalues not converged
     c_bands:  4 eigenvalues not converged
     c_bands:  4 eigenvalues not converged
     ethr =  1.00E-04,  avg # of iterations = 13.6

     negative rho (up, down):  7.084E-05 7.005E-05

     total cpu time spent up to now is       60.6 secs

     total energy              =     -22.37055248 Ry
     estimated scf accuracy    <       0.46873017 Ry

     total magnetization       =    -0.10 Bohr mag/cell
     absolute magnetization    =     0.18 Bohr mag/cell

     iteration #  2     ecut=    60.00 Ry     beta= 0.70
     CG style diagonalization
     ethr =  6.70E-03,  avg # of iterations =  3.0

     negative rho (up, down):  2.004E-04 1.022E-04

     total cpu time spent up to now is       78.7 secs

     total energy              =     -22.47175772 Ry
     estimated scf accuracy    <       0.58628176 Ry

     total magnetization       =     1.05 Bohr mag/cell
     absolute magnetization    =     1.06 Bohr mag/cell

     iteration #  3     ecut=    60.00 Ry     beta= 0.70
     CG style diagonalization
     ethr =  6.70E-03,  avg # of iterations =  3.0

     negative rho (up, down):  2.114E-04 1.147E-04

     total cpu time spent up to now is       96.9 secs

     total energy              =     -22.42034892 Ry
     estimated scf accuracy    <       0.18315034 Ry

     total magnetization       =     0.99 Bohr mag/cell
     absolute magnetization    =     1.08 Bohr mag/cell

     iteration #  4     ecut=    60.00 Ry     beta= 0.70
     CG style diagonalization
     ethr =  2.62E-03,  avg # of iterations =  3.1

     negative rho (up, down):  6.611E-04 6.193E-04

     total cpu time spent up to now is      115.4 secs

     total energy              =     -22.59311166 Ry
     estimated scf accuracy    <       4.70725958 Ry

     total magnetization       =    -0.58 Bohr mag/cell
     absolute magnetization    =     0.67 Bohr mag/cell

     iteration #  5     ecut=    60.00 Ry     beta= 0.70
     CG style diagonalization
     ethr =  2.62E-03,  avg # of iterations =  3.0

     negative rho (up, down):  7.348E-04 8.077E-04

     total cpu time spent up to now is      133.7 secs

     total energy              =     -22.43762118 Ry
     estimated scf accuracy    <       3.45559093 Ry

     total magnetization       =    -0.26 Bohr mag/cell
     absolute magnetization    =     0.87 Bohr mag/cell

     iteration #  6     ecut=    60.00 Ry     beta= 0.70
     CG style diagonalization
     ethr =  2.62E-03,  avg # of iterations =  3.0

     negative rho (up, down):  2.095E-04 2.234E-04

     total cpu time spent up to now is      152.2 secs

     total energy              =     -22.50548934 Ry
     estimated scf accuracy    <       0.00918919 Ry

     total magnetization       =     0.21 Bohr mag/cell
     absolute magnetization    =     1.06 Bohr mag/cell

     iteration #  7     ecut=    60.00 Ry     beta= 0.70
     CG style diagonalization
     ethr =  1.31E-04,  avg # of iterations =  3.6

     negative rho (up, down):  1.606E-04 1.091E-04

     total cpu time spent up to now is      171.8 secs

     total energy              =     -22.52079206 Ry
     estimated scf accuracy    <       0.15714520 Ry

     total magnetization       =     1.00 Bohr mag/cell
     absolute magnetization    =     1.04 Bohr mag/cell

     iteration #  8     ecut=    60.00 Ry     beta= 0.70
     CG style diagonalization
     ethr =  1.31E-04,  avg # of iterations =  3.1

     negative rho (up, down):  1.933E-04 1.292E-04

     total cpu time spent up to now is      190.6 secs

     total energy              =     -22.50177856 Ry
     estimated scf accuracy    <       0.12963859 Ry

     total magnetization       =     1.05 Bohr mag/cell
     absolute magnetization    =     1.09 Bohr mag/cell

     iteration #  9     ecut=    60.00 Ry     beta= 0.70
     CG style diagonalization
     ethr =  1.31E-04,  avg # of iterations =  3.0

     negative rho (up, down):  1.552E-04 4.100E-04

     total cpu time spent up to now is      209.2 secs

     total energy              =     -22.53139475 Ry
     estimated scf accuracy    <       0.25803107 Ry

     total magnetization       =     0.42 Bohr mag/cell
     absolute magnetization    =     2.27 Bohr mag/cell

     iteration # 10     ecut=    60.00 Ry     beta= 0.70
     CG style diagonalization
     ethr =  1.31E-04,  avg # of iterations =  3.2

     negative rho (up, down):  2.851E-04 7.965E-04

     total cpu time spent up to now is      228.4 secs

     total energy              =     -22.55544119 Ry
     estimated scf accuracy    <       1.73294532 Ry

     total magnetization       =    -0.40 Bohr mag/cell
     absolute magnetization    =     2.37 Bohr mag/cell

     iteration # 11     ecut=    60.00 Ry     beta= 0.70
     CG style diagonalization
     ethr =  1.31E-04,  avg # of iterations =  3.1

     negative rho (up, down):  3.437E-04 9.490E-04

     total cpu time spent up to now is      247.5 secs

     total energy              =     -22.55491521 Ry
     estimated scf accuracy    <       1.68288729 Ry

     total magnetization       =    -0.76 Bohr mag/cell
     absolute magnetization    =     2.74 Bohr mag/cell

     iteration # 12     ecut=    60.00 Ry     beta= 0.70
     CG style diagonalization
     ethr =  1.31E-04,  avg # of iterations =  3.0

     negative rho (up, down):  3.406E-04 1.033E-03

     total cpu time spent up to now is      266.4 secs

     total energy              =     -22.54481139 Ry
     estimated scf accuracy    <       1.66503439 Ry

     total magnetization       =     0.17 Bohr mag/cell
     absolute magnetization    =     1.84 Bohr mag/cell

     iteration # 13     ecut=    60.00 Ry     beta= 0.70
     CG style diagonalization
     ethr =  1.31E-04,  avg # of iterations =  3.1

     negative rho (up, down):  3.510E-04 1.003E-03

     total cpu time spent up to now is      285.5 secs

     total energy              =     -22.49350250 Ry
     estimated scf accuracy    <       1.70492015 Ry

     total magnetization       =     0.96 Bohr mag/cell
     absolute magnetization    =     1.23 Bohr mag/cell

     iteration # 14     ecut=    60.00 Ry     beta= 0.70
     CG style diagonalization
     ethr =  1.31E-04,  avg # of iterations =  3.0

     negative rho (up, down):  1.463E-04 6.146E-04

     total cpu time spent up to now is      304.3 secs

     total energy              =     -22.50788040 Ry
     estimated scf accuracy    <       0.05041791 Ry

     total magnetization       =     1.26 Bohr mag/cell
     absolute magnetization    =     1.65 Bohr mag/cell

     iteration # 15     ecut=    60.00 Ry     beta= 0.70
     CG style diagonalization
     ethr =  1.31E-04,  avg # of iterations =  3.0

     negative rho (up, down):  1.678E-04 3.963E-04

     total cpu time spent up to now is      323.2 secs

     total energy              =     -22.50838135 Ry
     estimated scf accuracy    <       0.01517191 Ry

     total magnetization       =     1.09 Bohr mag/cell
     absolute magnetization    =     1.66 Bohr mag/cell

     iteration # 16     ecut=    60.00 Ry     beta= 0.70
     CG style diagonalization
     ethr =  1.31E-04,  avg # of iterations =  3.0

     negative rho (up, down):  1.840E-04 3.022E-04

     total cpu time spent up to now is      342.2 secs

     total energy              =     -22.50448179 Ry
     estimated scf accuracy    <       0.01065841 Ry

     total magnetization       =     0.87 Bohr mag/cell
     absolute magnetization    =     1.70 Bohr mag/cell

     iteration # 17     ecut=    60.00 Ry     beta= 0.70
     CG style diagonalization
     ethr =  1.31E-04,  avg # of iterations =  3.0

     negative rho (up, down):  2.113E-04 1.092E-02

     total cpu time spent up to now is      361.1 secs

     total energy              =     -22.51303756 Ry
     estimated scf accuracy    <       0.03402088 Ry

     total magnetization       =     1.56 Bohr mag/cell
     absolute magnetization    =     1.57 Bohr mag/cell

     iteration # 18     ecut=    60.00 Ry     beta= 0.70
     CG style diagonalization
     ethr =  1.31E-04,  avg # of iterations =  3.1

     negative rho (up, down):  2.005E-04 1.968E-03

     total cpu time spent up to now is      380.0 secs

     total energy              =     -22.51836184 Ry
     estimated scf accuracy    <       0.23928239 Ry

     total magnetization       =     2.82 Bohr mag/cell
     absolute magnetization    =     2.83 Bohr mag/cell

     iteration # 19     ecut=    60.00 Ry     beta= 0.70
     CG style diagonalization
     ethr =  1.31E-04,  avg # of iterations =  3.1

     negative rho (up, down):  2.011E-04 2.457E-03

     total cpu time spent up to now is      399.2 secs

     total energy              =     -22.51895752 Ry
     estimated scf accuracy    <       0.22870627 Ry

     total magnetization       =     2.82 Bohr mag/cell
     absolute magnetization    =     2.83 Bohr mag/cell

     iteration # 20     ecut=    60.00 Ry     beta= 0.70
     CG style diagonalization
     ethr =  1.31E-04,  avg # of iterations =  3.2

     negative rho (up, down):  2.002E-04 8.635E-04

     total cpu time spent up to now is      418.4 secs

     total energy              =     -22.50434910 Ry
     estimated scf accuracy    <       0.24788672 Ry

     total magnetization       =     2.86 Bohr mag/cell
     absolute magnetization    =     2.86 Bohr mag/cell

     iteration # 21     ecut=    60.00 Ry     beta= 0.70
     CG style diagonalization
     ethr =  1.31E-04,  avg # of iterations =  3.1

     negative rho (up, down):  9.878E-03 6.556E-04

     total cpu time spent up to now is      437.4 secs

     total energy              =     -22.51209630 Ry
     estimated scf accuracy    <       0.06840004 Ry

     total magnetization       =     1.46 Bohr mag/cell
     absolute magnetization    =     1.94 Bohr mag/cell

     iteration # 22     ecut=    60.00 Ry     beta= 0.70
     CG style diagonalization
     ethr =  1.31E-04,  avg # of iterations =  3.1

     negative rho (up, down):  2.098E-04 8.082E-04

     total cpu time spent up to now is      456.5 secs

     total energy              =     -22.50706094 Ry
     estimated scf accuracy    <       0.21661399 Ry

     total magnetization       =     0.95 Bohr mag/cell
     absolute magnetization    =     2.85 Bohr mag/cell

     iteration # 23     ecut=    60.00 Ry     beta= 0.70
     CG style diagonalization
     ethr =  1.31E-04,  avg # of iterations =  3.1

     negative rho (up, down):  2.163E-04 8.856E-03

     total cpu time spent up to now is      475.4 secs

     total energy              =     -22.50569749 Ry
     estimated scf accuracy    <       0.03089604 Ry

     total magnetization       =     1.14 Bohr mag/cell
     absolute magnetization    =     1.95 Bohr mag/cell

     iteration # 24     ecut=    60.00 Ry     beta= 0.70
     CG style diagonalization
     ethr =  1.31E-04,  avg # of iterations =  3.1

     negative rho (up, down):  4.418E-03 1.545E-02

     total cpu time spent up to now is      494.3 secs

     total energy              =     -22.50203501 Ry
     estimated scf accuracy    <       0.06669143 Ry

     total magnetization       =     2.33 Bohr mag/cell
     absolute magnetization    =     2.33 Bohr mag/cell

     iteration # 25     ecut=    60.00 Ry     beta= 0.70
     CG style diagonalization
     ethr =  1.31E-04,  avg # of iterations =  3.2

     negative rho (up, down):  2.697E-04 2.764E-01

     total cpu time spent up to now is      513.3 secs

     total energy              =     -22.49942193 Ry
     estimated scf accuracy    <       0.06187284 Ry

     total magnetization       =     1.07 Bohr mag/cell
     absolute magnetization    =     1.31 Bohr mag/cell

     iteration # 26     ecut=    60.00 Ry     beta= 0.70
     CG style diagonalization
     ethr =  1.31E-04,  avg # of iterations =  3.5

     negative rho (up, down):  8.577E-03 4.152E-02

     total cpu time spent up to now is      533.0 secs

     total energy              =     -22.51435735 Ry
     estimated scf accuracy    <       0.25984957 Ry

     total magnetization       =     2.73 Bohr mag/cell
     absolute magnetization    =     2.74 Bohr mag/cell

     iteration # 27     ecut=    60.00 Ry     beta= 0.70
     CG style diagonalization
     ethr =  1.31E-04,  avg # of iterations =  3.6

     negative rho (up, down):  1.448E-04 4.947E-01

     total cpu time spent up to now is      552.8 secs

     total energy              =     -22.51453213 Ry
     estimated scf accuracy    <       0.49321138 Ry

     total magnetization       =     2.36 Bohr mag/cell
     absolute magnetization    =     2.58 Bohr mag/cell

     iteration # 28     ecut=    60.00 Ry     beta= 0.70
     CG style diagonalization
     ethr =  1.31E-04,  avg # of iterations =  3.6

     negative rho (up, down):  1.499E-02 2.558E-01

     total cpu time spent up to now is      572.5 secs

     total energy              =     -22.49712303 Ry
     estimated scf accuracy    <       0.25920791 Ry

     total magnetization       =     3.04 Bohr mag/cell
     absolute magnetization    =     3.05 Bohr mag/cell

     iteration # 29     ecut=    60.00 Ry     beta= 0.70
     CG style diagonalization
     ethr =  1.31E-04,  avg # of iterations =  3.5

     negative rho (up, down):  8.775E-03 3.762E-01

     total cpu time spent up to now is      592.1 secs

     total energy              =     -22.50405494 Ry
     estimated scf accuracy    <       0.06368111 Ry

     total magnetization       =     1.39 Bohr mag/cell
     absolute magnetization    =     1.40 Bohr mag/cell

     iteration # 30     ecut=    60.00 Ry     beta= 0.70
     CG style diagonalization
     ethr =  1.31E-04,  avg # of iterations =  3.4

     negative rho (up, down):  1.522E-01 4.967E-03

     total cpu time spent up to now is      611.5 secs

     total energy              =     -22.48277356 Ry
     estimated scf accuracy    <       0.24046157 Ry

     total magnetization       =     2.77 Bohr mag/cell
     absolute magnetization    =     2.77 Bohr mag/cell

     iteration # 31     ecut=    60.00 Ry     beta= 0.70
     CG style diagonalization
     ethr =  1.31E-04,  avg # of iterations =  3.5

     negative rho (up, down):  1.873E-02 1.311E-02

     total cpu time spent up to now is      631.2 secs

     total energy              =     -22.49927534 Ry
     estimated scf accuracy    <       0.09568807 Ry

     total magnetization       =     0.79 Bohr mag/cell
     absolute magnetization    =     2.29 Bohr mag/cell

     iteration # 32     ecut=    60.00 Ry     beta= 0.70
     CG style diagonalization
     ethr =  1.31E-04,  avg # of iterations =  3.6

     negative rho (up, down):  7.505E-02 5.397E-04

     total cpu time spent up to now is      651.0 secs

     total energy              =     -22.49643729 Ry
     estimated scf accuracy    <       0.05380387 Ry

     total magnetization       =     2.03 Bohr mag/cell
     absolute magnetization    =     2.07 Bohr mag/cell

     iteration # 33     ecut=    60.00 Ry     beta= 0.70
     CG style diagonalization
     ethr =  1.31E-04,  avg # of iterations =  3.5

     negative rho (up, down):  1.610E-01 5.068E-04

     total cpu time spent up to now is      670.5 secs

     total energy              =     -22.50965368 Ry
     estimated scf accuracy    <       0.06233231 Ry

     total magnetization       =     0.96 Bohr mag/cell
     absolute magnetization    =     2.23 Bohr mag/cell

     iteration # 34     ecut=    60.00 Ry     beta= 0.70
     CG style diagonalization
     ethr =  1.31E-04,  avg # of iterations =  3.3

     negative rho (up, down):  3.161E-02 2.278E-02

     total cpu time spent up to now is      689.7 secs

     total energy              =     -22.50524443 Ry
     estimated scf accuracy    <       0.11105253 Ry

     total magnetization       =     1.02 Bohr mag/cell
     absolute magnetization    =     2.53 Bohr mag/cell

     iteration # 35     ecut=    60.00 Ry     beta= 0.70
     CG style diagonalization
     ethr =  1.31E-04,  avg # of iterations =  3.6

     negative rho (up, down):  4.341E-01 4.100E-04

     total cpu time spent up to now is      709.6 secs

     total energy              =     -22.49812380 Ry
     estimated scf accuracy    <       0.02859774 Ry

     total magnetization       =     1.27 Bohr mag/cell
     absolute magnetization    =     1.58 Bohr mag/cell

     iteration # 36     ecut=    60.00 Ry     beta= 0.70
     CG style diagonalization
     ethr =  1.31E-04,  avg # of iterations =  3.8

     negative rho (up, down):  9.536E-01 4.310E-04

     total cpu time spent up to now is      729.8 secs

     total energy              =     -22.49016762 Ry
     estimated scf accuracy    <       0.03121991 Ry

     total magnetization       =     0.73 Bohr mag/cell
     absolute magnetization    =     1.83 Bohr mag/cell

     iteration # 37     ecut=    60.00 Ry     beta= 0.70
     CG style diagonalization
     ethr =  1.31E-04,  avg # of iterations =  3.7

     negative rho (up, down):  9.212E-01 1.813E-04

     total cpu time spent up to now is      749.9 secs

     total energy              =     -22.50044044 Ry
     estimated scf accuracy    <       0.12790921 Ry

     total magnetization       =     0.93 Bohr mag/cell
     absolute magnetization    =     1.02 Bohr mag/cell

     iteration # 38     ecut=    60.00 Ry     beta= 0.70
     CG style diagonalization
     ethr =  1.31E-04,  avg # of iterations =  3.4

     negative rho (up, down):  7.610E-01 3.654E-03

     total cpu time spent up to now is      769.4 secs

     total energy              =     -22.49347917 Ry
     estimated scf accuracy    <       0.16709168 Ry

     total magnetization       =     0.99 Bohr mag/cell
     absolute magnetization    =     1.05 Bohr mag/cell

     iteration # 39     ecut=    60.00 Ry     beta= 0.70
     CG style diagonalization
     ethr =  1.31E-04,  avg # of iterations =  3.3

     negative rho (up, down):  1.126E+00 3.692E-03

     total cpu time spent up to now is      788.7 secs

     total energy              =     -22.47730057 Ry
     estimated scf accuracy    <       0.19372269 Ry

     total magnetization       =     0.56 Bohr mag/cell
     absolute magnetization    =     2.43 Bohr mag/cell

     iteration # 40     ecut=    60.00 Ry     beta= 0.70
     CG style diagonalization
     ethr =  1.31E-04,  avg # of iterations =  3.4

     negative rho (up, down):  1.187E+00 2.468E-03

     total cpu time spent up to now is      808.1 secs

     total energy              =     -22.48717889 Ry
     estimated scf accuracy    <       0.10007277 Ry

     total magnetization       =     0.77 Bohr mag/cell
     absolute magnetization    =     0.99 Bohr mag/cell

     iteration # 41     ecut=    60.00 Ry     beta= 0.70
     CG style diagonalization
     ethr =  1.31E-04,  avg # of iterations =  3.5

     negative rho (up, down):  5.958E-01 2.564E-02

     total cpu time spent up to now is      827.9 secs

     total energy              =     -22.49851170 Ry
     estimated scf accuracy    <       0.09218431 Ry

     total magnetization       =     0.74 Bohr mag/cell
     absolute magnetization    =     0.99 Bohr mag/cell

     iteration # 42     ecut=    60.00 Ry     beta= 0.70
     CG style diagonalization
     ethr =  1.31E-04,  avg # of iterations =  4.3

     negative rho (up, down):  1.678E-01 8.965E-02

     total cpu time spent up to now is      849.3 secs

     total energy              =     -22.54868058 Ry
     estimated scf accuracy    <       0.26973288 Ry

     total magnetization       =     0.99 Bohr mag/cell
     absolute magnetization    =     3.05 Bohr mag/cell

     iteration # 43     ecut=    60.00 Ry     beta= 0.70
     CG style diagonalization
     ethr =  1.31E-04,  avg # of iterations =  4.4

     negative rho (up, down):  6.632E-04 3.200E-01

     total cpu time spent up to now is      870.4 secs

     total energy              =     -22.54377106 Ry
     estimated scf accuracy    <       0.25467162 Ry

     total magnetization       =     1.01 Bohr mag/cell
     absolute magnetization    =     3.02 Bohr mag/cell

     iteration # 44     ecut=    60.00 Ry     beta= 0.70
     CG style diagonalization
     ethr =  1.31E-04,  avg # of iterations =  4.0

     negative rho (up, down):  1.539E-03 2.305E-01

     total cpu time spent up to now is      890.9 secs

     total energy              =     -22.50805665 Ry
     estimated scf accuracy    <       1.41283266 Ry

     total magnetization       =     1.19 Bohr mag/cell
     absolute magnetization    =     2.48 Bohr mag/cell

     iteration # 45     ecut=    60.00 Ry     beta= 0.70
     CG style diagonalization
     ethr =  1.31E-04,  avg # of iterations =  3.7

     negative rho (up, down):  5.430E-02 4.299E-02

     total cpu time spent up to now is      910.9 secs

     total energy              =     -22.48144793 Ry
     estimated scf accuracy    <       0.27862551 Ry

     total magnetization       =     0.98 Bohr mag/cell
     absolute magnetization    =     3.04 Bohr mag/cell

     iteration # 46     ecut=    60.00 Ry     beta= 0.70
     CG style diagonalization
     ethr =  1.31E-04,  avg # of iterations =  4.3

     negative rho (up, down):  1.049E-01 1.106E-02

     total cpu time spent up to now is      932.0 secs

     total energy              =     -22.50209161 Ry
     estimated scf accuracy    <       0.68469725 Ry

     total magnetization       =     0.88 Bohr mag/cell
     absolute magnetization    =     2.38 Bohr mag/cell

     iteration # 47     ecut=    60.00 Ry     beta= 0.70
     CG style diagonalization
     ethr =  1.31E-04,  avg # of iterations =  3.9

     negative rho (up, down):  5.519E-02 3.290E-02

     total cpu time spent up to now is      952.4 secs

     total energy              =     -22.50244462 Ry
     estimated scf accuracy    <       0.10811374 Ry

     total magnetization       =     0.37 Bohr mag/cell
     absolute magnetization    =     2.06 Bohr mag/cell

     iteration # 48     ecut=    60.00 Ry     beta= 0.70
     CG style diagonalization
     ethr =  1.31E-04,  avg # of iterations =  4.0

     negative rho (up, down):  4.465E-02 3.541E-02

     total cpu time spent up to now is      973.1 secs

     total energy              =     -22.51836681 Ry
     estimated scf accuracy    <       0.17337822 Ry

     total magnetization       =     0.68 Bohr mag/cell
     absolute magnetization    =     2.46 Bohr mag/cell

     iteration # 49     ecut=    60.00 Ry     beta= 0.70
     CG style diagonalization
     ethr =  1.31E-04,  avg # of iterations =  3.5

     negative rho (up, down):  7.543E-02 4.475E-02

     total cpu time spent up to now is      992.8 secs

     total energy              =     -22.50969164 Ry
     estimated scf accuracy    <       0.12805732 Ry

     total magnetization       =     0.68 Bohr mag/cell
     absolute magnetization    =     2.31 Bohr mag/cell

     iteration # 50     ecut=    60.00 Ry     beta= 0.70
     CG style diagonalization
     ethr =  1.31E-04,  avg # of iterations =  3.2

     negative rho (up, down):  4.474E-03 3.612E-02

     total cpu time spent up to now is     1011.9 secs

     total energy              =     -22.50822441 Ry
     estimated scf accuracy    <       0.03899928 Ry

     total magnetization       =     0.74 Bohr mag/cell
     absolute magnetization    =     1.23 Bohr mag/cell

     iteration # 51     ecut=    60.00 Ry     beta= 0.70
     CG style diagonalization
     ethr =  1.31E-04,  avg # of iterations =  3.8

     negative rho (up, down):  1.276E-03 6.019E-02

     total cpu time spent up to now is     1032.3 secs

     total energy              =     -22.50717454 Ry
     estimated scf accuracy    <       0.13323681 Ry

     total magnetization       =     0.85 Bohr mag/cell
     absolute magnetization    =     1.06 Bohr mag/cell

     iteration # 52     ecut=    60.00 Ry     beta= 0.70
     CG style diagonalization
     ethr =  1.31E-04,  avg # of iterations =  3.5

     negative rho (up, down):  2.880E-03 5.167E-02

     total cpu time spent up to now is     1051.9 secs

     total energy              =     -22.50903266 Ry
     estimated scf accuracy    <       0.03521640 Ry

     total magnetization       =     1.01 Bohr mag/cell
     absolute magnetization    =     1.05 Bohr mag/cell

     iteration # 53     ecut=    60.00 Ry     beta= 0.70
     CG style diagonalization
     ethr =  1.31E-04,  avg # of iterations =  3.5

     negative rho (up, down):  1.231E-03 1.633E-02

     total cpu time spent up to now is     1071.4 secs

     total energy              =     -22.51019534 Ry
     estimated scf accuracy    <       0.11618834 Ry

     total magnetization       =     0.99 Bohr mag/cell
     absolute magnetization    =     1.03 Bohr mag/cell

     iteration # 54     ecut=    60.00 Ry     beta= 0.70
     CG style diagonalization
     ethr =  1.31E-04,  avg # of iterations =  3.1

     negative rho (up, down):  2.963E-02 1.905E-04

     total cpu time spent up to now is     1090.2 secs

     total energy              =     -22.50733060 Ry
     estimated scf accuracy    <       0.12505889 Ry

     total magnetization       =     0.88 Bohr mag/cell
     absolute magnetization    =     1.09 Bohr mag/cell

     iteration # 55     ecut=    60.00 Ry     beta= 0.70
     CG style diagonalization
     ethr =  1.31E-04,  avg # of iterations =  3.7

     negative rho (up, down):  3.906E-02 2.529E-03

     total cpu time spent up to now is     1110.2 secs

     total energy              =     -22.52941509 Ry
     estimated scf accuracy    <       0.27373848 Ry

     total magnetization       =     0.97 Bohr mag/cell
     absolute magnetization    =     2.96 Bohr mag/cell

     iteration # 56     ecut=    60.00 Ry     beta= 0.70
     CG style diagonalization
     ethr =  1.31E-04,  avg # of iterations =  3.7

     negative rho (up, down):  4.387E-03 1.803E-03

     total cpu time spent up to now is     1130.3 secs

     total energy              =     -22.51296652 Ry
     estimated scf accuracy    <       0.28592502 Ry

     total magnetization       =     0.97 Bohr mag/cell
     absolute magnetization    =     2.99 Bohr mag/cell

     iteration # 57     ecut=    60.00 Ry     beta= 0.70
     CG style diagonalization
     ethr =  1.31E-04,  avg # of iterations =  3.5

     negative rho (up, down):  1.576E-03 9.792E-04

     total cpu time spent up to now is     1149.9 secs

     total energy              =     -22.51334635 Ry
     estimated scf accuracy    <       0.11781524 Ry

     total magnetization       =     0.80 Bohr mag/cell
     absolute magnetization    =     2.34 Bohr mag/cell

     iteration # 58     ecut=    60.00 Ry     beta= 0.70
     CG style diagonalization
     ethr =  1.31E-04,  avg # of iterations =  3.2

     negative rho (up, down):  2.595E-02 1.711E-03

     total cpu time spent up to now is     1168.9 secs

     total energy              =     -22.52240355 Ry
     estimated scf accuracy    <       0.05462292 Ry

     total magnetization       =     0.89 Bohr mag/cell
     absolute magnetization    =     2.09 Bohr mag/cell

     iteration # 59     ecut=    60.00 Ry     beta= 0.70
     CG style diagonalization
     ethr =  1.31E-04,  avg # of iterations =  3.3

     negative rho (up, down):  2.317E-03 1.713E-03

     total cpu time spent up to now is     1187.9 secs

     total energy              =     -22.51753033 Ry
     estimated scf accuracy    <       0.28293840 Ry

     total magnetization       =     0.88 Bohr mag/cell
     absolute magnetization    =     2.92 Bohr mag/cell

     iteration # 60     ecut=    60.00 Ry     beta= 0.70
     CG style diagonalization
     ethr =  1.31E-04,  avg # of iterations =  3.3

     negative rho (up, down):  2.429E-03 1.217E-03

     total cpu time spent up to now is     1207.2 secs

     total energy              =     -22.51689776 Ry
     estimated scf accuracy    <       0.16485112 Ry

     total magnetization       =     0.90 Bohr mag/cell
     absolute magnetization    =     2.60 Bohr mag/cell

     iteration # 61     ecut=    60.00 Ry     beta= 0.70
     CG style diagonalization
     ethr =  1.31E-04,  avg # of iterations =  3.1

     negative rho (up, down):  2.558E-04 4.743E-02

     total cpu time spent up to now is     1226.3 secs

     total energy              =     -22.50230381 Ry
     estimated scf accuracy    <       0.13880402 Ry

     total magnetization       =     0.95 Bohr mag/cell
     absolute magnetization    =     2.53 Bohr mag/cell

     iteration # 62     ecut=    60.00 Ry     beta= 0.70
     CG style diagonalization
     ethr =  1.31E-04,  avg # of iterations =  3.5

     negative rho (up, down):  2.109E-04 1.181E-01

     total cpu time spent up to now is     1246.3 secs

     total energy              =     -22.51094031 Ry
     estimated scf accuracy    <       0.10319566 Ry

     total magnetization       =     0.85 Bohr mag/cell
     absolute magnetization    =     1.73 Bohr mag/cell

     iteration # 63     ecut=    60.00 Ry     beta= 0.70
     CG style diagonalization
     ethr =  1.31E-04,  avg # of iterations =  3.8

     negative rho (up, down):  1.732E-04 9.968E-02

     total cpu time spent up to now is     1266.6 secs

     total energy              =     -22.50777445 Ry
     estimated scf accuracy    <       0.85112567 Ry

     total magnetization       =     1.26 Bohr mag/cell
     absolute magnetization    =     1.64 Bohr mag/cell

     iteration # 64     ecut=    60.00 Ry     beta= 0.70
     CG style diagonalization
     ethr =  1.31E-04,  avg # of iterations =  3.8

     negative rho (up, down):  1.447E-04 1.823E-01

     total cpu time spent up to now is     1287.2 secs

     total energy              =     -22.51535514 Ry
     estimated scf accuracy    <       0.33169344 Ry

     total magnetization       =     2.37 Bohr mag/cell
     absolute magnetization    =     2.38 Bohr mag/cell

     iteration # 65     ecut=    60.00 Ry     beta= 0.70
     CG style diagonalization
     ethr =  1.31E-04,  avg # of iterations =  3.5

     negative rho (up, down):  1.415E-04 1.829E-01

     total cpu time spent up to now is     1307.1 secs

     total energy              =     -22.51987453 Ry
     estimated scf accuracy    <       0.39113903 Ry

     total magnetization       =     1.54 Bohr mag/cell
     absolute magnetization    =     1.56 Bohr mag/cell

     iteration # 66     ecut=    60.00 Ry     beta= 0.70
     CG style diagonalization
     ethr =  1.31E-04,  avg # of iterations =  3.2

     negative rho (up, down):  9.952E-03 5.687E-03

     total cpu time spent up to now is     1326.3 secs

     total energy              =     -22.47768353 Ry
     estimated scf accuracy    <       0.46667956 Ry

     total magnetization       =     1.55 Bohr mag/cell
     absolute magnetization    =     1.62 Bohr mag/cell

     iteration # 67     ecut=    60.00 Ry     beta= 0.70
     CG style diagonalization
     ethr =  1.31E-04,  avg # of iterations =  3.9

     negative rho (up, down):  2.288E-02 2.720E-02

     total cpu time spent up to now is     1346.8 secs

     total energy              =     -22.51203598 Ry
     estimated scf accuracy    <       0.07021062 Ry

     total magnetization       =     1.00 Bohr mag/cell
     absolute magnetization    =     1.35 Bohr mag/cell

     iteration # 68     ecut=    60.00 Ry     beta= 0.70
     CG style diagonalization
     ethr =  1.31E-04,  avg # of iterations =  3.4

     negative rho (up, down):  3.482E-02 5.114E-04

     total cpu time spent up to now is     1366.5 secs

     total energy              =     -22.50885716 Ry
     estimated scf accuracy    <       0.05037708 Ry

     total magnetization       =     0.91 Bohr mag/cell
     absolute magnetization    =     1.40 Bohr mag/cell

     iteration # 69     ecut=    60.00 Ry     beta= 0.70
     CG style diagonalization
     ethr =  1.31E-04,  avg # of iterations =  3.3

     negative rho (up, down):  1.368E-01 5.083E-02

     total cpu time spent up to now is     1385.8 secs

     total energy              =     -22.50547126 Ry
     estimated scf accuracy    <       0.12397609 Ry

     total magnetization       =     0.93 Bohr mag/cell
     absolute magnetization    =     1.11 Bohr mag/cell

     iteration # 70     ecut=    60.00 Ry     beta= 0.70
     CG style diagonalization
     ethr =  1.31E-04,  avg # of iterations =  3.7

     negative rho (up, down):  8.512E-02 1.062E-02

     total cpu time spent up to now is     1405.8 secs

     total energy              =     -22.50957092 Ry
     estimated scf accuracy    <       0.02101190 Ry

     total magnetization       =     1.03 Bohr mag/cell
     absolute magnetization    =     1.08 Bohr mag/cell

     iteration # 71     ecut=    60.00 Ry     beta= 0.70
     CG style diagonalization
     ethr =  1.31E-04,  avg # of iterations =  3.5

     negative rho (up, down):  6.674E-02 1.915E-03

     total cpu time spent up to now is     1425.5 secs

     total energy              =     -22.50939145 Ry
     estimated scf accuracy    <       0.00871376 Ry

     total magnetization       =     1.13 Bohr mag/cell
     absolute magnetization    =     1.15 Bohr mag/cell

     iteration # 72     ecut=    60.00 Ry     beta= 0.70
     CG style diagonalization
     ethr =  1.24E-04,  avg # of iterations =  3.1

     negative rho (up, down):  3.895E-03 9.273E-04

     total cpu time spent up to now is     1444.6 secs

     total energy              =     -22.50895233 Ry
     estimated scf accuracy    <       0.00953769 Ry

     total magnetization       =     1.05 Bohr mag/cell
     absolute magnetization    =     1.08 Bohr mag/cell

     iteration # 73     ecut=    60.00 Ry     beta= 0.70
     CG style diagonalization
     ethr =  1.24E-04,  avg # of iterations =  3.3

     negative rho (up, down):  3.324E-03 1.101E-02

     total cpu time spent up to now is     1463.9 secs

     total energy              =     -22.50989030 Ry
     estimated scf accuracy    <       0.05338322 Ry

     total magnetization       =     1.07 Bohr mag/cell
     absolute magnetization    =     1.11 Bohr mag/cell

     iteration # 74     ecut=    60.00 Ry     beta= 0.70
     CG style diagonalization
     ethr =  1.24E-04,  avg # of iterations =  3.5

     negative rho (up, down):  9.377E-04 2.078E-02

     total cpu time spent up to now is     1483.7 secs

     total energy              =     -22.50596070 Ry
     estimated scf accuracy    <       0.05072823 Ry

     total magnetization       =     0.97 Bohr mag/cell
     absolute magnetization    =     1.01 Bohr mag/cell

     iteration # 75     ecut=    60.00 Ry     beta= 0.70
     CG style diagonalization
     ethr =  1.24E-04,  avg # of iterations =  3.5

     negative rho (up, down):  1.934E-03 1.361E-03

     total cpu time spent up to now is     1503.4 secs

     total energy              =     -22.51108355 Ry
     estimated scf accuracy    <       0.02360201 Ry

     total magnetization       =     1.48 Bohr mag/cell
     absolute magnetization    =     1.48 Bohr mag/cell

     iteration # 76     ecut=    60.00 Ry     beta= 0.70
     CG style diagonalization
     ethr =  1.24E-04,  avg # of iterations =  3.6

     negative rho (up, down):  2.236E-03 2.156E-04

     total cpu time spent up to now is     1523.3 secs

     total energy              =     -22.50645962 Ry
     estimated scf accuracy    <       0.07605539 Ry

     total magnetization       =     1.11 Bohr mag/cell
     absolute magnetization    =     1.12 Bohr mag/cell

     iteration # 77     ecut=    60.00 Ry     beta= 0.70
     CG style diagonalization
     ethr =  1.24E-04,  avg # of iterations =  3.3

     negative rho (up, down):  5.337E-03 2.200E-04

     total cpu time spent up to now is     1542.8 secs

     total energy              =     -22.50929730 Ry
     estimated scf accuracy    <       0.03405797 Ry

     total magnetization       =     1.02 Bohr mag/cell
     absolute magnetization    =     1.08 Bohr mag/cell

     iteration # 78     ecut=    60.00 Ry     beta= 0.70
     CG style diagonalization
     ethr =  1.24E-04,  avg # of iterations =  3.5

     negative rho (up, down):  1.655E-03 1.907E-04

     total cpu time spent up to now is     1562.6 secs

     total energy              =     -22.50750221 Ry
     estimated scf accuracy    <       0.07231745 Ry

     total magnetization       =     1.06 Bohr mag/cell
     absolute magnetization    =     1.49 Bohr mag/cell

     iteration # 79     ecut=    60.00 Ry     beta= 0.70
     CG style diagonalization
     ethr =  1.24E-04,  avg # of iterations =  3.2

     negative rho (up, down):  1.680E-03 1.762E-04

     total cpu time spent up to now is     1581.9 secs

     total energy              =     -22.51064826 Ry
     estimated scf accuracy    <       0.01829790 Ry

     total magnetization       =     1.02 Bohr mag/cell
     absolute magnetization    =     1.11 Bohr mag/cell

     iteration # 80     ecut=    60.00 Ry     beta= 0.70
     CG style diagonalization
     ethr =  1.24E-04,  avg # of iterations =  3.0

     negative rho (up, down):  9.544E-03 4.686E-03

     total cpu time spent up to now is     1600.6 secs

     total energy              =     -22.51269398 Ry
     estimated scf accuracy    <       0.01104009 Ry

     total magnetization       =     1.03 Bohr mag/cell
     absolute magnetization    =     1.14 Bohr mag/cell

     iteration # 81     ecut=    60.00 Ry     beta= 0.70
     CG style diagonalization
     ethr =  1.24E-04,  avg # of iterations =  3.5

     negative rho (up, down):  8.972E-03 6.532E-03

     total cpu time spent up to now is     1620.2 secs

     total energy              =     -22.51372550 Ry
     estimated scf accuracy    <       0.12274254 Ry

     total magnetization       =     1.00 Bohr mag/cell
     absolute magnetization    =     1.50 Bohr mag/cell

     iteration # 82     ecut=    60.00 Ry     beta= 0.70
     CG style diagonalization
     ethr =  1.24E-04,  avg # of iterations =  3.4

     negative rho (up, down):  7.764E-03 4.000E-03

     total cpu time spent up to now is     1639.6 secs

     total energy              =     -22.51526747 Ry
     estimated scf accuracy    <       0.06622726 Ry

     total magnetization       =     0.99 Bohr mag/cell
     absolute magnetization    =     1.31 Bohr mag/cell

     iteration # 83     ecut=    60.00 Ry     beta= 0.70
     CG style diagonalization
     ethr =  1.24E-04,  avg # of iterations =  3.1

     negative rho (up, down):  4.584E-03 2.270E-03

     total cpu time spent up to now is     1658.4 secs

     total energy              =     -22.51127782 Ry
     estimated scf accuracy    <       0.06642203 Ry

     total magnetization       =     0.94 Bohr mag/cell
     absolute magnetization    =     1.23 Bohr mag/cell

     iteration # 84     ecut=    60.00 Ry     beta= 0.70
     CG style diagonalization
     ethr =  1.24E-04,  avg # of iterations =  3.3

     negative rho (up, down):  2.850E-03 8.409E-03

     total cpu time spent up to now is     1677.7 secs

     total energy              =     -22.51691666 Ry
     estimated scf accuracy    <       0.00795214 Ry

     total magnetization       =     1.03 Bohr mag/cell
     absolute magnetization    =     1.05 Bohr mag/cell

     iteration # 85     ecut=    60.00 Ry     beta= 0.70
     CG style diagonalization
     ethr =  1.14E-04,  avg # of iterations =  4.0

     negative rho (up, down):  1.916E-03 8.847E-03

     total cpu time spent up to now is     1698.6 secs

     total energy              =     -22.52355430 Ry
     estimated scf accuracy    <       0.22721862 Ry

     total magnetization       =     2.12 Bohr mag/cell
     absolute magnetization    =     2.12 Bohr mag/cell

     iteration # 86     ecut=    60.00 Ry     beta= 0.70
     CG style diagonalization
     ethr =  1.14E-04,  avg # of iterations =  3.9

     negative rho (up, down):  2.479E-03 1.005E-02

     total cpu time spent up to now is     1719.1 secs

     total energy              =     -22.52547539 Ry
     estimated scf accuracy    <       0.23189807 Ry

     total magnetization       =     2.04 Bohr mag/cell
     absolute magnetization    =     2.04 Bohr mag/cell

     iteration # 87     ecut=    60.00 Ry     beta= 0.70
     CG style diagonalization
     ethr =  1.14E-04,  avg # of iterations =  3.2

     negative rho (up, down):  3.268E-03 6.236E-03

     total cpu time spent up to now is     1738.1 secs

     total energy              =     -22.51590337 Ry
     estimated scf accuracy    <       0.25880465 Ry

     total magnetization       =     2.16 Bohr mag/cell
     absolute magnetization    =     2.16 Bohr mag/cell

     iteration # 88     ecut=    60.00 Ry     beta= 0.70
     CG style diagonalization
     ethr =  1.14E-04,  avg # of iterations =  3.1

     negative rho (up, down):  8.676E-03 3.315E-03

     total cpu time spent up to now is     1757.1 secs

     total energy              =     -22.51831431 Ry
     estimated scf accuracy    <       0.06752182 Ry

     total magnetization       =     1.37 Bohr mag/cell
     absolute magnetization    =     1.37 Bohr mag/cell

     iteration # 89     ecut=    60.00 Ry     beta= 0.70
     CG style diagonalization
     ethr =  1.14E-04,  avg # of iterations =  3.3

     negative rho (up, down):  1.445E-02 3.603E-03

     total cpu time spent up to now is     1776.4 secs

     total energy              =     -22.51989551 Ry
     estimated scf accuracy    <       0.20689087 Ry

     total magnetization       =     2.09 Bohr mag/cell
     absolute magnetization    =     2.09 Bohr mag/cell

     iteration # 90     ecut=    60.00 Ry     beta= 0.70
     CG style diagonalization
     ethr =  1.14E-04,  avg # of iterations =  3.5

     negative rho (up, down):  1.546E-02 4.679E-03

     total cpu time spent up to now is     1796.0 secs

     total energy              =     -22.52558617 Ry
     estimated scf accuracy    <       0.20581589 Ry

     total magnetization       =     2.20 Bohr mag/cell
     absolute magnetization    =     2.20 Bohr mag/cell

     iteration # 91     ecut=    60.00 Ry     beta= 0.70
     CG style diagonalization
     ethr =  1.14E-04,  avg # of iterations =  3.4

     negative rho (up, down):  6.543E-03 2.170E-03

     total cpu time spent up to now is     1815.6 secs

     total energy              =     -22.51072707 Ry
     estimated scf accuracy    <       0.30641578 Ry

     total magnetization       =     2.51 Bohr mag/cell
     absolute magnetization    =     2.52 Bohr mag/cell

     iteration # 92     ecut=    60.00 Ry     beta= 0.70
     CG style diagonalization
     ethr =  1.14E-04,  avg # of iterations =  3.4

     negative rho (up, down):  6.471E-03 7.248E-03

     total cpu time spent up to now is     1835.1 secs

     total energy              =     -22.51282493 Ry
     estimated scf accuracy    <       0.02248550 Ry

     total magnetization       =     1.30 Bohr mag/cell
     absolute magnetization    =     1.30 Bohr mag/cell

     iteration # 93     ecut=    60.00 Ry     beta= 0.70
     CG style diagonalization
     ethr =  1.14E-04,  avg # of iterations =  3.5

     negative rho (up, down):  8.871E-03 6.077E-04

     total cpu time spent up to now is     1854.9 secs

     total energy              =     -22.51108632 Ry
     estimated scf accuracy    <       0.00627349 Ry

     total magnetization       =     0.99 Bohr mag/cell
     absolute magnetization    =     1.01 Bohr mag/cell

     iteration # 94     ecut=    60.00 Ry     beta= 0.70
     CG style diagonalization
     ethr =  8.96E-05,  avg # of iterations =  3.8

     negative rho (up, down):  1.018E-02 6.643E-04

     total cpu time spent up to now is     1875.2 secs

     total energy              =     -22.51419575 Ry
     estimated scf accuracy    <       0.05042114 Ry

     total magnetization       =     1.00 Bohr mag/cell
     absolute magnetization    =     1.02 Bohr mag/cell

     iteration # 95     ecut=    60.00 Ry     beta= 0.70
     CG style diagonalization
     ethr =  8.96E-05,  avg # of iterations =  3.7

     negative rho (up, down):  8.761E-03 4.446E-04

     total cpu time spent up to now is     1895.6 secs

     total energy              =     -22.51294161 Ry
     estimated scf accuracy    <       0.04206254 Ry

     total magnetization       =     1.00 Bohr mag/cell
     absolute magnetization    =     1.01 Bohr mag/cell

     iteration # 96     ecut=    60.00 Ry     beta= 0.70
     CG style diagonalization
     ethr =  8.96E-05,  avg # of iterations =  3.3

     negative rho (up, down):  2.213E-03 9.734E-04

     total cpu time spent up to now is     1914.9 secs

     total energy              =     -22.51171274 Ry
     estimated scf accuracy    <       0.04125787 Ry

     total magnetization       =     1.00 Bohr mag/cell
     absolute magnetization    =     1.02 Bohr mag/cell

     iteration # 97     ecut=    60.00 Ry     beta= 0.70
     CG style diagonalization
     ethr =  8.96E-05,  avg # of iterations =  3.5

     negative rho (up, down):  9.598E-04 7.485E-04

     total cpu time spent up to now is     1934.6 secs

     total energy              =     -22.51229234 Ry
     estimated scf accuracy    <       0.03219100 Ry

     total magnetization       =     1.00 Bohr mag/cell
     absolute magnetization    =     1.02 Bohr mag/cell

     iteration # 98     ecut=    60.00 Ry     beta= 0.70
     CG style diagonalization
     ethr =  8.96E-05,  avg # of iterations =  3.3

     negative rho (up, down):  8.515E-04 6.938E-04

     total cpu time spent up to now is     1953.9 secs

     total energy              =     -22.51317913 Ry
     estimated scf accuracy    <       0.06213569 Ry

     total magnetization       =     1.00 Bohr mag/cell
     absolute magnetization    =     1.01 Bohr mag/cell

     iteration # 99     ecut=    60.00 Ry     beta= 0.70
     CG style diagonalization
     ethr =  8.96E-05,  avg # of iterations =  3.1

     negative rho (up, down):  7.255E-04 6.519E-04

     total cpu time spent up to now is     1972.9 secs

     total energy              =     -22.51375440 Ry
     estimated scf accuracy    <       0.04666942 Ry

     total magnetization       =     1.00 Bohr mag/cell
     absolute magnetization    =     1.01 Bohr mag/cell

     iteration #100     ecut=    60.00 Ry     beta= 0.70
     CG style diagonalization
     ethr =  8.96E-05,  avg # of iterations =  3.0

     negative rho (up, down):  8.377E-04 6.703E-04

     total cpu time spent up to now is     1991.6 secs

     total energy              =     -22.51358954 Ry
     estimated scf accuracy    <       0.06074323 Ry

     total magnetization       =     1.00 Bohr mag/cell
     absolute magnetization    =     1.01 Bohr mag/cell

     iteration #101     ecut=    60.00 Ry     beta= 0.70
     CG style diagonalization
     ethr =  8.96E-05,  avg # of iterations =  3.0

     negative rho (up, down):  2.916E-04 1.649E-03

     total cpu time spent up to now is     2010.3 secs

     total energy              =     -22.51748639 Ry
     estimated scf accuracy    <       0.05888766 Ry

     total magnetization       =     1.00 Bohr mag/cell
     absolute magnetization    =     1.01 Bohr mag/cell

     iteration #102     ecut=    60.00 Ry     beta= 0.70
     CG style diagonalization
     ethr =  8.96E-05,  avg # of iterations =  3.3

     negative rho (up, down):  3.705E-04 2.019E-03

     total cpu time spent up to now is     2029.8 secs

     total energy              =     -22.51928449 Ry
     estimated scf accuracy    <       0.03101425 Ry

     total magnetization       =     1.03 Bohr mag/cell
     absolute magnetization    =     1.05 Bohr mag/cell

     iteration #103     ecut=    60.00 Ry     beta= 0.70
     CG style diagonalization
     ethr =  8.96E-05,  avg # of iterations =  3.6

     negative rho (up, down):  1.919E-04 1.747E-03

     total cpu time spent up to now is     2049.9 secs

     total energy              =     -22.52018039 Ry
     estimated scf accuracy    <       0.01921219 Ry

     total magnetization       =     1.33 Bohr mag/cell
     absolute magnetization    =     1.33 Bohr mag/cell

     iteration #104     ecut=    60.00 Ry     beta= 0.70
     CG style diagonalization
     ethr =  8.96E-05,  avg # of iterations =  3.5

     negative rho (up, down):  1.738E-04 1.993E-03

     total cpu time spent up to now is     2069.5 secs

     total energy              =     -22.51788640 Ry
     estimated scf accuracy    <       0.10318341 Ry

     total magnetization       =     1.45 Bohr mag/cell
     absolute magnetization    =     1.45 Bohr mag/cell

     iteration #105     ecut=    60.00 Ry     beta= 0.70
     CG style diagonalization
     ethr =  8.96E-05,  avg # of iterations =  3.0

     negative rho (up, down):  1.602E-04 1.505E-03

     total cpu time spent up to now is     2088.4 secs

     total energy              =     -22.51966563 Ry
     estimated scf accuracy    <       0.00874032 Ry

     total magnetization       =     0.98 Bohr mag/cell
     absolute magnetization    =     1.03 Bohr mag/cell

     iteration #106     ecut=    60.00 Ry     beta= 0.70
     CG style diagonalization
     ethr =  8.96E-05,  avg # of iterations =  3.1

     negative rho (up, down):  4.002E-04 9.552E-04

     total cpu time spent up to now is     2107.2 secs

     total energy              =     -22.51914386 Ry
     estimated scf accuracy    <       0.02892638 Ry

     total magnetization       =     0.93 Bohr mag/cell
     absolute magnetization    =     1.04 Bohr mag/cell

     iteration #107     ecut=    60.00 Ry     beta= 0.70
     CG style diagonalization
     ethr =  8.96E-05,  avg # of iterations =  3.2

     negative rho (up, down):  2.448E-04 1.176E-03

     total cpu time spent up to now is     2126.2 secs

     total energy              =     -22.51655107 Ry
     estimated scf accuracy    <       0.03404550 Ry

     total magnetization       =     0.95 Bohr mag/cell
     absolute magnetization    =     1.12 Bohr mag/cell

     iteration #108     ecut=    60.00 Ry     beta= 0.70
     CG style diagonalization
     ethr =  8.96E-05,  avg # of iterations =  3.2

     negative rho (up, down):  2.200E-04 1.124E-03

     total cpu time spent up to now is     2145.5 secs

     total energy              =     -22.51963777 Ry
     estimated scf accuracy    <       0.03390928 Ry

     total magnetization       =     0.95 Bohr mag/cell
     absolute magnetization    =     0.99 Bohr mag/cell

     iteration #109     ecut=    60.00 Ry     beta= 0.70
     CG style diagonalization
     ethr =  8.96E-05,  avg # of iterations =  3.0

     negative rho (up, down):  3.929E-04 1.354E-03

     total cpu time spent up to now is     2164.2 secs

     total energy              =     -22.51920170 Ry
     estimated scf accuracy    <       0.03116164 Ry

     total magnetization       =     0.97 Bohr mag/cell
     absolute magnetization    =     1.00 Bohr mag/cell

     iteration #110     ecut=    60.00 Ry     beta= 0.70
     CG style diagonalization
     ethr =  8.96E-05,  avg # of iterations =  3.0

     negative rho (up, down):  3.018E-04 1.574E-03

     total cpu time spent up to now is     2182.9 secs

     total energy              =     -22.51873638 Ry
     estimated scf accuracy    <       0.01233189 Ry

     total magnetization       =     0.98 Bohr mag/cell
     absolute magnetization    =     1.01 Bohr mag/cell

     iteration #111     ecut=    60.00 Ry     beta= 0.70
     CG style diagonalization
     ethr =  8.96E-05,  avg # of iterations =  3.0

     negative rho (up, down):  2.902E-04 1.087E-03

     total cpu time spent up to now is     2201.7 secs

     total energy              =     -22.51942649 Ry
     estimated scf accuracy    <       0.00593870 Ry

     total magnetization       =     0.99 Bohr mag/cell
     absolute magnetization    =     1.01 Bohr mag/cell

     iteration #112     ecut=    60.00 Ry     beta= 0.70
     CG style diagonalization
     ethr =  8.48E-05,  avg # of iterations =  3.0

     negative rho (up, down):  4.534E-04 7.812E-04

     total cpu time spent up to now is     2220.3 secs

     total energy              =     -22.51931336 Ry
     estimated scf accuracy    <       0.00794377 Ry

     total magnetization       =     0.93 Bohr mag/cell
     absolute magnetization    =     0.98 Bohr mag/cell

     iteration #113     ecut=    60.00 Ry     beta= 0.70
     CG style diagonalization
     ethr =  8.48E-05,  avg # of iterations =  3.1

     negative rho (up, down):  1.159E-03 6.281E-04

     total cpu time spent up to now is     2239.2 secs

     total energy              =     -22.51892087 Ry
     estimated scf accuracy    <       0.00204266 Ry

     total magnetization       =     0.93 Bohr mag/cell
     absolute magnetization    =     0.98 Bohr mag/cell

     iteration #114     ecut=    60.00 Ry     beta= 0.70
     CG style diagonalization
     ethr =  2.92E-05,  avg # of iterations =  4.4

     negative rho (up, down):  1.069E-03 7.214E-04

     total cpu time spent up to now is     2260.9 secs

     total energy              =     -22.51945468 Ry
     estimated scf accuracy    <       0.00204201 Ry

     total magnetization       =     0.93 Bohr mag/cell
     absolute magnetization    =     0.98 Bohr mag/cell

     iteration #115     ecut=    60.00 Ry     beta= 0.70
     CG style diagonalization
     ethr =  2.92E-05,  avg # of iterations =  3.8

     negative rho (up, down):  2.090E-02 9.243E-04

     total cpu time spent up to now is     2281.3 secs

     total energy              =     -22.51725258 Ry
     estimated scf accuracy    <       0.00151654 Ry

     total magnetization       =     0.93 Bohr mag/cell
     absolute magnetization    =     0.97 Bohr mag/cell

     iteration #116     ecut=    60.00 Ry     beta= 0.70
     CG style diagonalization
     ethr =  2.17E-05,  avg # of iterations =  5.1

     negative rho (up, down):  2.782E-02 7.746E-04

     total cpu time spent up to now is     2304.4 secs

     total energy              =     -22.51839864 Ry
     estimated scf accuracy    <       0.03050413 Ry

     total magnetization       =     0.93 Bohr mag/cell
     absolute magnetization    =     0.99 Bohr mag/cell

     iteration #117     ecut=    60.00 Ry     beta= 0.70
     CG style diagonalization
     ethr =  2.17E-05,  avg # of iterations =  5.5

     negative rho (up, down):  3.181E-02 6.024E-04

     total cpu time spent up to now is     2328.1 secs

     total energy              =     -22.51888624 Ry
     estimated scf accuracy    <       0.01894288 Ry

     total magnetization       =     0.95 Bohr mag/cell
     absolute magnetization    =     0.99 Bohr mag/cell

     iteration #118     ecut=    60.00 Ry     beta= 0.70
     CG style diagonalization
     ethr =  2.17E-05,  avg # of iterations =  4.7

     negative rho (up, down):  2.495E-04 5.437E-04

     total cpu time spent up to now is     2350.3 secs

     total energy              =     -22.51079465 Ry
     estimated scf accuracy    <       0.01538884 Ry

     total magnetization       =     1.34 Bohr mag/cell
     absolute magnetization    =     1.35 Bohr mag/cell

     iteration #119     ecut=    60.00 Ry     beta= 0.70
     CG style diagonalization
     ethr =  2.17E-05,  avg # of iterations =  6.7

     negative rho (up, down):  1.629E-04 3.850E-04

     total cpu time spent up to now is     2376.7 secs

     total energy              =     -22.51731861 Ry
     estimated scf accuracy    <       0.00352240 Ry

     total magnetization       =     0.96 Bohr mag/cell
     absolute magnetization    =     1.00 Bohr mag/cell

     iteration #120     ecut=    60.00 Ry     beta= 0.70
     CG style diagonalization
     ethr =  2.17E-05,  avg # of iterations =  4.6

     negative rho (up, down):  1.647E-04 3.767E-04

     total cpu time spent up to now is     2398.6 secs

     total energy              =     -22.51809487 Ry
     estimated scf accuracy    <       0.00653347 Ry

     total magnetization       =     0.97 Bohr mag/cell
     absolute magnetization    =     1.01 Bohr mag/cell

     iteration #121     ecut=    60.00 Ry     beta= 0.70
     CG style diagonalization
     ethr =  2.17E-05,  avg # of iterations =  3.4

     negative rho (up, down):  1.679E-04 3.648E-04

     total cpu time spent up to now is     2418.1 secs

     total energy              =     -22.51761887 Ry
     estimated scf accuracy    <       0.00640575 Ry

     total magnetization       =     0.96 Bohr mag/cell
     absolute magnetization    =     1.00 Bohr mag/cell

     iteration #122     ecut=    60.00 Ry     beta= 0.70
     CG style diagonalization
     ethr =  2.17E-05,  avg # of iterations =  3.6

     negative rho (up, down):  1.607E-04 3.081E-04

     total cpu time spent up to now is     2438.2 secs

     total energy              =     -22.51583018 Ry
     estimated scf accuracy    <       0.00461427 Ry

     total magnetization       =     0.96 Bohr mag/cell
     absolute magnetization    =     1.01 Bohr mag/cell

     iteration #123     ecut=    60.00 Ry     beta= 0.70
     CG style diagonalization
     ethr =  2.17E-05,  avg # of iterations =  5.2

     negative rho (up, down):  4.285E-04 3.940E-04

     total cpu time spent up to now is     2462.1 secs

     total energy              =     -22.51900397 Ry
     estimated scf accuracy    <       0.00856460 Ry

     total magnetization       =     0.97 Bohr mag/cell
     absolute magnetization    =     1.01 Bohr mag/cell

     iteration #124     ecut=    60.00 Ry     beta= 0.70
     CG style diagonalization
     ethr =  2.17E-05,  avg # of iterations =  6.5

     negative rho (up, down):  4.997E-04 3.302E-04

     total cpu time spent up to now is     2488.6 secs

     total energy              =     -22.51911555 Ry
     estimated scf accuracy    <       0.00299405 Ry

     total magnetization       =     1.00 Bohr mag/cell
     absolute magnetization    =     1.02 Bohr mag/cell

     iteration #125     ecut=    60.00 Ry     beta= 0.70
     CG style diagonalization
     ethr =  2.17E-05,  avg # of iterations =  4.4

     negative rho (up, down):  2.959E-04 2.658E-04

     total cpu time spent up to now is     2510.3 secs

     total energy              =     -22.51685660 Ry
     estimated scf accuracy    <       0.00333243 Ry

     total magnetization       =     1.02 Bohr mag/cell
     absolute magnetization    =     1.04 Bohr mag/cell

     iteration #126     ecut=    60.00 Ry     beta= 0.70
     CG style diagonalization
     ethr =  2.17E-05,  avg # of iterations =  5.2

     negative rho (up, down):  8.133E-04 2.525E-04

     total cpu time spent up to now is     2534.2 secs

     total energy              =     -22.51669046 Ry
     estimated scf accuracy    <       0.02593722 Ry

     total magnetization       =     0.93 Bohr mag/cell
     absolute magnetization    =     0.98 Bohr mag/cell

     iteration #127     ecut=    60.00 Ry     beta= 0.70
     CG style diagonalization
     ethr =  2.17E-05,  avg # of iterations =  4.3

     negative rho (up, down):  9.514E-04 2.769E-04

     total cpu time spent up to now is     2555.6 secs

     total energy              =     -22.51685114 Ry
     estimated scf accuracy    <       0.00825153 Ry

     total magnetization       =     0.93 Bohr mag/cell
     absolute magnetization    =     1.00 Bohr mag/cell

     iteration #128     ecut=    60.00 Ry     beta= 0.70
     CG style diagonalization
     ethr =  2.17E-05,  avg # of iterations =  4.8

     negative rho (up, down):  4.866E-04 2.990E-04

     total cpu time spent up to now is     2578.3 secs

     total energy              =     -22.51737536 Ry
     estimated scf accuracy    <       0.00484065 Ry

     total magnetization       =     0.97 Bohr mag/cell
     absolute magnetization    =     1.04 Bohr mag/cell

     iteration #129     ecut=    60.00 Ry     beta= 0.70
     CG style diagonalization
     ethr =  2.17E-05,  avg # of iterations =  4.2

     negative rho (up, down):  7.607E-04 2.999E-04

     total cpu time spent up to now is     2599.7 secs

     total energy              =     -22.51866657 Ry
     estimated scf accuracy    <       0.00368391 Ry

     total magnetization       =     0.97 Bohr mag/cell
     absolute magnetization    =     1.01 Bohr mag/cell

     iteration #130     ecut=    60.00 Ry     beta= 0.70
     CG style diagonalization
     ethr =  2.17E-05,  avg # of iterations =  4.2

     negative rho (up, down):  1.542E-03 2.855E-04

     total cpu time spent up to now is     2621.2 secs

     total energy              =     -22.51822108 Ry
     estimated scf accuracy    <       0.00561210 Ry

     total magnetization       =     0.94 Bohr mag/cell
     absolute magnetization    =     1.00 Bohr mag/cell

     iteration #131     ecut=    60.00 Ry     beta= 0.70
     CG style diagonalization
     ethr =  2.17E-05,  avg # of iterations =  4.0

     negative rho (up, down):  1.715E-04 2.661E-04

     total cpu time spent up to now is     2642.3 secs

     total energy              =     -22.51765173 Ry
     estimated scf accuracy    <       0.00351698 Ry

     total magnetization       =     0.94 Bohr mag/cell
     absolute magnetization    =     0.99 Bohr mag/cell

     iteration #132     ecut=    60.00 Ry     beta= 0.70
     CG style diagonalization
     ethr =  2.17E-05,  avg # of iterations =  5.1

     negative rho (up, down):  1.576E-04 2.515E-04

     total cpu time spent up to now is     2665.6 secs

     total energy              =     -22.51703199 Ry
     estimated scf accuracy    <       0.00301662 Ry

     total magnetization       =     0.93 Bohr mag/cell
     absolute magnetization    =     0.98 Bohr mag/cell

     iteration #133     ecut=    60.00 Ry     beta= 0.70
     CG style diagonalization
     ethr =  2.17E-05,  avg # of iterations =  4.7

     negative rho (up, down):  1.666E-04 2.468E-04

     total cpu time spent up to now is     2688.0 secs

     total energy              =     -22.51831194 Ry
     estimated scf accuracy    <       0.00387533 Ry

     total magnetization       =     0.93 Bohr mag/cell
     absolute magnetization    =     0.98 Bohr mag/cell

     iteration #134     ecut=    60.00 Ry     beta= 0.70
     CG style diagonalization
     ethr =  2.17E-05,  avg # of iterations =  4.0

     negative rho (up, down):  1.594E-04 2.621E-04

     total cpu time spent up to now is     2709.0 secs

     total energy              =     -22.51785013 Ry
     estimated scf accuracy    <       0.00329917 Ry

     total magnetization       =     0.98 Bohr mag/cell
     absolute magnetization    =     1.02 Bohr mag/cell

     iteration #135     ecut=    60.00 Ry     beta= 0.70
     CG style diagonalization
     ethr =  2.17E-05,  avg # of iterations =  3.4

     negative rho (up, down):  1.499E-04 2.293E-04

     total cpu time spent up to now is     2728.5 secs

     total energy              =     -22.51742763 Ry
     estimated scf accuracy    <       0.00441025 Ry

     total magnetization       =     0.95 Bohr mag/cell
     absolute magnetization    =     0.99 Bohr mag/cell

     iteration #136     ecut=    60.00 Ry     beta= 0.70
     CG style diagonalization
     ethr =  2.17E-05,  avg # of iterations =  3.8

     negative rho (up, down):  1.472E-04 2.615E-04

     total cpu time spent up to now is     2749.0 secs

     total energy              =     -22.51751234 Ry
     estimated scf accuracy    <       0.01071579 Ry

     total magnetization       =     1.04 Bohr mag/cell
     absolute magnetization    =     1.06 Bohr mag/cell

     iteration #137     ecut=    60.00 Ry     beta= 0.70
     CG style diagonalization
     ethr =  2.17E-05,  avg # of iterations =  3.2

     negative rho (up, down):  1.483E-04 2.362E-04

     total cpu time spent up to now is     2768.1 secs

     total energy              =     -22.51742128 Ry
     estimated scf accuracy    <       0.00321173 Ry

     total magnetization       =     0.97 Bohr mag/cell
     absolute magnetization    =     1.01 Bohr mag/cell

     iteration #138     ecut=    60.00 Ry     beta= 0.70
     CG style diagonalization
     ethr =  2.17E-05,  avg # of iterations =  3.0

     negative rho (up, down):  1.719E-04 2.558E-04

     total cpu time spent up to now is     2786.8 secs

     total energy              =     -22.51686124 Ry
     estimated scf accuracy    <       0.00716808 Ry

     total magnetization       =     1.01 Bohr mag/cell
     absolute magnetization    =     1.04 Bohr mag/cell

     iteration #139     ecut=    60.00 Ry     beta= 0.70
     CG style diagonalization
     ethr =  2.17E-05,  avg # of iterations =  3.2

     negative rho (up, down):  2.042E-04 2.173E-04

     total cpu time spent up to now is     2806.0 secs

     total energy              =     -22.51761284 Ry
     estimated scf accuracy    <       0.00068804 Ry

     total magnetization       =     0.93 Bohr mag/cell
     absolute magnetization    =     0.98 Bohr mag/cell

     iteration #140     ecut=    60.00 Ry     beta= 0.70
     CG style diagonalization
     ethr =  9.83E-06,  avg # of iterations =  4.9

     negative rho (up, down):  1.430E-04 2.043E-04

     total cpu time spent up to now is     2828.9 secs

     total energy              =     -22.51723421 Ry
     estimated scf accuracy    <       0.00081753 Ry

     total magnetization       =     0.96 Bohr mag/cell
     absolute magnetization    =     1.01 Bohr mag/cell

     iteration #141     ecut=    60.00 Ry     beta= 0.70
     CG style diagonalization
     ethr =  9.83E-06,  avg # of iterations =  4.8

     negative rho (up, down):  1.546E-04 2.774E-04

     total cpu time spent up to now is     2851.5 secs

     total energy              =     -22.51504625 Ry
     estimated scf accuracy    <       0.00291918 Ry

     total magnetization       =     1.05 Bohr mag/cell
     absolute magnetization    =     1.07 Bohr mag/cell

     iteration #142     ecut=    60.00 Ry     beta= 0.70
     CG style diagonalization
     ethr =  9.83E-06,  avg # of iterations =  4.8

     negative rho (up, down):  1.678E-04 2.575E-04

     total cpu time spent up to now is     2874.0 secs

     total energy              =     -22.51721150 Ry
     estimated scf accuracy    <       0.00169377 Ry

     total magnetization       =     0.93 Bohr mag/cell
     absolute magnetization    =     0.98 Bohr mag/cell

     iteration #143     ecut=    60.00 Ry     beta= 0.70
     CG style diagonalization
     ethr =  9.83E-06,  avg # of iterations =  4.4

     negative rho (up, down):  2.403E-04 2.151E-04

     total cpu time spent up to now is     2895.7 secs

     total energy              =     -22.51606132 Ry
     estimated scf accuracy    <       0.00687186 Ry

     total magnetization       =     0.94 Bohr mag/cell
     absolute magnetization    =     0.98 Bohr mag/cell

     iteration #144     ecut=    60.00 Ry     beta= 0.70
     CG style diagonalization
     ethr =  9.83E-06,  avg # of iterations =  5.5

     negative rho (up, down):  1.645E-04 2.212E-04

     total cpu time spent up to now is     2919.8 secs

     total energy              =     -22.51663427 Ry
     estimated scf accuracy    <       0.00458951 Ry

     total magnetization       =     0.94 Bohr mag/cell
     absolute magnetization    =     0.99 Bohr mag/cell

     iteration #145     ecut=    60.00 Ry     beta= 0.70
     CG style diagonalization
     ethr =  9.83E-06,  avg # of iterations =  4.7

     negative rho (up, down):  6.654E-03 1.954E-04

     total cpu time spent up to now is     2942.2 secs

     total energy              =     -22.51337816 Ry
     estimated scf accuracy    <       0.00123376 Ry

     total magnetization       =     0.93 Bohr mag/cell
     absolute magnetization    =     0.98 Bohr mag/cell

     iteration #146     ecut=    60.00 Ry     beta= 0.70
     CG style diagonalization
     ethr =  9.83E-06,  avg # of iterations =  6.6

     negative rho (up, down):  1.965E-03 2.082E-04

     total cpu time spent up to now is     2968.2 secs

     total energy              =     -22.51765189 Ry
     estimated scf accuracy    <       0.00354041 Ry

     total magnetization       =     1.00 Bohr mag/cell
     absolute magnetization    =     1.03 Bohr mag/cell

     iteration #147     ecut=    60.00 Ry     beta= 0.70
     CG style diagonalization
     ethr =  9.83E-06,  avg # of iterations =  4.3

     negative rho (up, down):  9.275E-03 1.984E-04

     total cpu time spent up to now is     2989.6 secs

     total energy              =     -22.51762634 Ry
     estimated scf accuracy    <       0.00229675 Ry

     total magnetization       =     0.97 Bohr mag/cell
     absolute magnetization    =     1.02 Bohr mag/cell

     iteration #148     ecut=    60.00 Ry     beta= 0.70
     CG style diagonalization
     ethr =  9.83E-06,  avg # of iterations =  4.7

     negative rho (up, down):  2.163E-02 1.997E-04

     total cpu time spent up to now is     3011.7 secs

     total energy              =     -22.51795180 Ry
     estimated scf accuracy    <       0.00269063 Ry

     total magnetization       =     1.03 Bohr mag/cell
     absolute magnetization    =     1.06 Bohr mag/cell

     iteration #149     ecut=    60.00 Ry     beta= 0.70
     CG style diagonalization
     ethr =  9.83E-06,  avg # of iterations =  5.2

     negative rho (up, down):  7.592E-04 2.848E-04

     total cpu time spent up to now is     3035.0 secs

     total energy              =     -22.51676180 Ry
     estimated scf accuracy    <       0.00284148 Ry

     total magnetization       =     1.19 Bohr mag/cell
     absolute magnetization    =     1.21 Bohr mag/cell

     iteration #150     ecut=    60.00 Ry     beta= 0.70
     CG style diagonalization
     ethr =  9.83E-06,  avg # of iterations =  6.5

     negative rho (up, down):  4.160E-04 2.342E-04

     total cpu time spent up to now is     3061.0 secs

     total energy              =     -22.51766062 Ry
     estimated scf accuracy    <       0.00078796 Ry

     total magnetization       =     0.99 Bohr mag/cell
     absolute magnetization    =     1.02 Bohr mag/cell

     iteration #151     ecut=    60.00 Ry     beta= 0.70
     CG style diagonalization
     ethr =  9.83E-06,  avg # of iterations =  3.5

     negative rho (up, down):  1.682E-02 1.882E-04

     total cpu time spent up to now is     3080.6 secs

     total energy              =     -22.51664935 Ry
     estimated scf accuracy    <       0.00061839 Ry

     total magnetization       =     0.97 Bohr mag/cell
     absolute magnetization    =     1.01 Bohr mag/cell

     iteration #152     ecut=    60.00 Ry     beta= 0.70
     CG style diagonalization
     ethr =  8.83E-06,  avg # of iterations =  6.4

     negative rho (up, down):  1.614E-04 2.988E-04

     total cpu time spent up to now is     3106.2 secs

     total energy              =     -22.51512684 Ry
     estimated scf accuracy    <       0.00458448 Ry

     total magnetization       =     1.25 Bohr mag/cell
     absolute magnetization    =     1.26 Bohr mag/cell

     iteration #153     ecut=    60.00 Ry     beta= 0.70
     CG style diagonalization
     ethr =  8.83E-06,  avg # of iterations =  7.3

     negative rho (up, down):  1.570E-04 2.567E-04

     total cpu time spent up to now is     3133.7 secs

     total energy              =     -22.51706886 Ry
     estimated scf accuracy    <       0.00112430 Ry

     total magnetization       =     1.01 Bohr mag/cell
     absolute magnetization    =     1.04 Bohr mag/cell

     iteration #154     ecut=    60.00 Ry     beta= 0.70
     CG style diagonalization
     ethr =  8.83E-06,  avg # of iterations =  4.3

     negative rho (up, down):  7.654E-04 2.551E-04

     total cpu time spent up to now is     3155.1 secs

     total energy              =     -22.51614577 Ry
     estimated scf accuracy    <       0.00078826 Ry

     total magnetization       =     0.95 Bohr mag/cell
     absolute magnetization    =     1.00 Bohr mag/cell

     iteration #155     ecut=    60.00 Ry     beta= 0.70
     CG style diagonalization
     ethr =  8.83E-06,  avg # of iterations =  5.4

     negative rho (up, down):  1.347E-02 2.566E-04

     total cpu time spent up to now is     3178.8 secs

     total energy              =     -22.51624667 Ry
     estimated scf accuracy    <       0.00117781 Ry

     total magnetization       =     0.93 Bohr mag/cell
     absolute magnetization    =     0.97 Bohr mag/cell

     iteration #156     ecut=    60.00 Ry     beta= 0.70
     CG style diagonalization
     ethr =  8.83E-06,  avg # of iterations =  6.5

     negative rho (up, down):  9.957E-03 2.618E-04

     total cpu time spent up to now is     3204.5 secs

     total energy              =     -22.51683347 Ry
     estimated scf accuracy    <       0.00444970 Ry

     total magnetization       =     0.95 Bohr mag/cell
[...]
     estimated scf accuracy    <          1.2E-09 Ry

     total magnetization       =     1.00 Bohr mag/cell
     absolute magnetization    =     1.44 Bohr mag/cell

     iteration # 20     ecut=    60.00 Ry     beta= 0.70
     CG style diagonalization
     ethr =  1.68E-11,  avg # of iterations =  3.2

     negative rho (up, down):  1.597E-04 2.033E-04

     Magnetic moment per site:
     atom:    1    charge:    1.3334    magn:    0.1447    constr:    0.0000
     atom:    2    charge:    0.4205    magn:   -0.0076    constr:    0.0000
     atom:    3    charge:    0.4205    magn:   -0.0076    constr:    0.0000

     total cpu time spent up to now is     9969.1 secs

     End of self-consistent calculation

 ------ SPIN UP ------------


          k = 0.0000 0.0000 0.0000 (423701 PWs)   bands (ev):

   -39.6613 -30.1937 -26.8154 -25.6162 -25.6122 -24.8332 -24.8316 -24.4291

          k = 0.0000 0.2500 0.0000 (423725 PWs)   bands (ev):

   -39.6613 -30.1937 -26.8154 -25.6158 -25.6122 -24.8474 -24.8304 -24.3970

          k = 0.0000-0.5000 0.0000 (423542 PWs)   bands (ev):

   -39.6613 -30.1937 -26.8154 -25.6154 -25.6122 -24.8600 -24.8292 -24.3747

          k = 0.2500 0.0000 0.0000 (423725 PWs)   bands (ev):

   -39.6613 -30.1937 -26.8154 -25.6158 -25.6122 -24.8458 -24.8320 -24.3983

          k = 0.2500 0.2500 0.0000 (423766 PWs)   bands (ev):

   -39.6613 -30.1937 -26.8154 -25.6154 -25.6122 -24.8461 -24.8443 -24.3490

          k = 0.2500-0.5000 0.0000 (423782 PWs)   bands (ev):

   -39.6613 -30.1937 -26.8154 -25.6150 -25.6122 -24.8585 -24.8429 -24.3092

          k = 0.2500-0.2500 0.0000 (423766 PWs)   bands (ev):

   -39.6613 -30.1937 -26.8154 -25.6154 -25.6122 -24.8461 -24.8443 -24.3490

          k =-0.5000 0.0000 0.0000 (423542 PWs)   bands (ev):

   -39.6613 -30.1937 -26.8154 -25.6154 -25.6122 -24.8583 -24.8308 -24.3770

          k =-0.5000 0.2500 0.0000 (423782 PWs)   bands (ev):

   -39.6613 -30.1937 -26.8154 -25.6150 -25.6122 -24.8568 -24.8446 -24.3112

          k =-0.5000-0.5000 0.0000 (423708 PWs)   bands (ev):

   -39.6613 -30.1937 -26.8154 -25.6146 -25.6122 -24.8569 -24.8551 -24.2950

 ------ SPIN DOWN ----------


          k = 0.0000 0.0000 0.0000 (423701 PWs)   bands (ev):

   -38.8791 -29.9959 -26.4747 -24.1615 -23.8368 -23.8140 -23.8123 -23.6504

          k = 0.0000 0.2500 0.0000 (423725 PWs)   bands (ev):

   -38.8791 -29.9959 -26.4747 -24.1389 -23.9608 -23.7890 -23.7345 -23.6015

          k = 0.0000-0.5000 0.0000 (423542 PWs)   bands (ev):

   -38.8791 -29.9959 -26.4747 -24.0790 -24.0626 -23.7245 -23.7127 -23.6780

          k = 0.2500 0.0000 0.0000 (423725 PWs)   bands (ev):

   -38.8791 -29.9959 -26.4747 -24.1388 -23.9609 -23.7908 -23.7325 -23.6029

          k = 0.2500 0.2500 0.0000 (423766 PWs)   bands (ev):

   -38.8791 -29.9959 -26.4747 -24.1165 -23.9661 -23.8886 -23.7361 -23.5907

          k = 0.2500-0.5000 0.0000 (423782 PWs)   bands (ev):

   -38.8791 -29.9959 -26.4747 -24.0576 -24.0434 -23.8572 -23.8372 -23.4861

          k = 0.2500-0.2500 0.0000 (423766 PWs)   bands (ev):

   -38.8791 -29.9959 -26.4747 -24.1165 -23.9661 -23.8887 -23.7361 -23.5902

          k =-0.5000 0.0000 0.0000 (423542 PWs)   bands (ev):

   -38.8791 -29.9959 -26.4747 -24.0763 -24.0655 -23.7294 -23.7108 -23.6715

          k =-0.5000 0.2500 0.0000 (423782 PWs)   bands (ev):

   -38.8791 -29.9959 -26.4747 -24.0547 -24.0465 -23.8559 -23.8386 -23.4757

          k =-0.5000-0.5000 0.0000 (423708 PWs)   bands (ev):

   -38.8791 -29.9959 -26.4747 -24.0156 -24.0104 -23.9455 -23.9133 -23.5908

     the Fermi energy is   -25.6138 ev

!    total energy              =     -22.52398254 Ry
     estimated scf accuracy    <          3.2E-10 Ry
     smearing contrib. (-TS)   =      -0.00281973 Ry
     internal energy E=F+TS    =     -22.52116281 Ry

     The total energy is F=E-TS. E is the sum of the following terms:
     one-electron contribution =     -57.69052908 Ry
     hartree contribution      =      24.81940905 Ry
     xc contribution           =      -6.43399026 Ry
     ewald contribution        =      16.78409824 Ry
     Dispersion Correction     =      -0.00015075 Ry

     total magnetization       =     1.00 Bohr mag/cell
     absolute magnetization    =     1.44 Bohr mag/cell

     convergence has been achieved in  20 iterations

     negative rho (up, down):  1.597E-04 2.033E-04

     Forces acting on atoms (cartesian axes, Ry/au):

     atom    1 type  1   force =     0.00047949   -0.00000001    0.02760154
     atom    2 type  2   force =    -0.00023974   -0.00050802   -0.00017956
     atom    3 type  2   force =    -0.00023975    0.00050804   -0.00017960

     Total force =     0.000834     Total SCF correction =     0.000005
     Energy error            =      7.4E-06
     Gradient error          =      5.1E-04

     number of scf cycles    =   7
     number of bfgs steps    =   6

     energy   old            =     -22.5239751404 Ry
     energy   new            =     -22.5239825436 Ry

     CASE: energy  _new < energy  _old

     new trust radius        =       0.0011448732 bohr
     new conv_thr            =       0.0000000001 Ry


ATOMIC_POSITIONS (angstrom)
N            10.0000000000       10.0000000000        0.0000000000    0   0   0
H             9.9976833791       10.8449410894        0.6161064139
H             9.9976830331        9.1550563164        0.6161027961



     Writing output data file ./NH2_ESM_pn5.save/
     NEW-OLD atomic charge density approx. for the potential

     negative rho (up, down):  1.338E-04 2.048E-04
     Generating pointlists ...

     total cpu time spent up to now is     9992.9 secs

     Self-consistent Calculation

     iteration #  1     ecut=    60.00 Ry     beta= 0.70
     CG style diagonalization
     ethr =  1.00E-06,  avg # of iterations =  2.0

     negative rho (up, down):  1.533E-04 2.035E-04

     total cpu time spent up to now is    10009.0 secs

     total energy              =     -22.52395857 Ry
     estimated scf accuracy    <       0.00003880 Ry

     total magnetization       =     1.00 Bohr mag/cell
     absolute magnetization    =     1.43 Bohr mag/cell

     iteration #  2     ecut=    60.00 Ry     beta= 0.70
     CG style diagonalization
     ethr =  5.54E-07,  avg # of iterations =  3.4

     negative rho (up, down):  1.861E-04 2.048E-04

     total cpu time spent up to now is    10027.6 secs

     total energy              =     -22.52347708 Ry
     estimated scf accuracy    <       0.03166685 Ry

     total magnetization       =     1.00 Bohr mag/cell
     absolute magnetization    =     1.67 Bohr mag/cell

     iteration #  3     ecut=    60.00 Ry     beta= 0.70
     CG style diagonalization
     ethr =  5.54E-07,  avg # of iterations =  3.5

     negative rho (up, down):  1.585E-04 2.051E-04

     total cpu time spent up to now is    10046.3 secs

     total energy              =     -22.52398180 Ry
     estimated scf accuracy    <       0.00000019 Ry

     total magnetization       =     1.00 Bohr mag/cell
     absolute magnetization    =     1.44 Bohr mag/cell

     iteration #  4     ecut=    60.00 Ry     beta= 0.70
     CG style diagonalization
     ethr =  2.78E-09,  avg # of iterations =  4.3

     negative rho (up, down):  1.579E-04 2.044E-04

     total cpu time spent up to now is    10066.9 secs

     total energy              =     -22.52398277 Ry
     estimated scf accuracy    <       0.00000038 Ry

     total magnetization       =     1.00 Bohr mag/cell
     absolute magnetization    =     1.44 Bohr mag/cell

     iteration #  5     ecut=    60.00 Ry     beta= 0.70
     CG style diagonalization
     ethr =  2.78E-09,  avg # of iterations =  3.1

     negative rho (up, down):  1.596E-04 2.034E-04

     total cpu time spent up to now is    10085.0 secs

     total energy              =     -22.52398245 Ry
     estimated scf accuracy    <       0.00000003 Ry

     total magnetization       =     1.00 Bohr mag/cell
     absolute magnetization    =     1.44 Bohr mag/cell

     iteration #  6     ecut=    60.00 Ry     beta= 0.70
     CG style diagonalization
     ethr =  4.98E-10,  avg # of iterations =  3.1

     negative rho (up, down):  1.597E-04 2.034E-04

     total cpu time spent up to now is    10103.4 secs

     total energy              =     -22.52398256 Ry
     estimated scf accuracy    <       0.00000011 Ry

     total magnetization       =     1.00 Bohr mag/cell
     absolute magnetization    =     1.44 Bohr mag/cell

     iteration #  7     ecut=    60.00 Ry     beta= 0.70
     CG style diagonalization
     ethr =  4.98E-10,  avg # of iterations =  3.1

     negative rho (up, down):  1.597E-04 2.034E-04

     total cpu time spent up to now is    10121.7 secs

     total energy              =     -22.52398265 Ry
     estimated scf accuracy    <       0.00000002 Ry

     total magnetization       =     1.00 Bohr mag/cell
     absolute magnetization    =     1.44 Bohr mag/cell

     iteration #  8     ecut=    60.00 Ry     beta= 0.70
     CG style diagonalization
     ethr =  3.25E-10,  avg # of iterations =  3.0

     negative rho (up, down):  1.598E-04 2.033E-04

     total cpu time spent up to now is    10140.0 secs

     total energy              =     -22.52398266 Ry
     estimated scf accuracy    <          6.6E-10 Ry

     total magnetization       =     1.00 Bohr mag/cell
     absolute magnetization    =     1.44 Bohr mag/cell

     iteration #  9     ecut=    60.00 Ry     beta= 0.70
     CG style diagonalization
     ethr =  9.37E-12,  avg # of iterations =  3.9

     negative rho (up, down):  1.598E-04 2.033E-04

     total cpu time spent up to now is    10160.2 secs

     total energy              =     -22.52398270 Ry
     estimated scf accuracy    <          6.0E-10 Ry

     total magnetization       =     1.00 Bohr mag/cell
     absolute magnetization    =     1.44 Bohr mag/cell

     iteration # 10     ecut=    60.00 Ry     beta= 0.70
     CG style diagonalization
     ethr =  8.61E-12,  avg # of iterations =  3.2

     negative rho (up, down):  1.598E-04 2.033E-04

     total cpu time spent up to now is    10179.0 secs

     total energy              =     -22.52398267 Ry
     estimated scf accuracy    <          8.1E-10 Ry

     total magnetization       =     1.00 Bohr mag/cell
     absolute magnetization    =     1.44 Bohr mag/cell

     iteration # 11     ecut=    60.00 Ry     beta= 0.70
     CG style diagonalization
     ethr =  8.61E-12,  avg # of iterations =  3.1

     negative rho (up, down):  1.598E-04 2.033E-04

     total cpu time spent up to now is    10197.9 secs

     total energy              =     -22.52398264 Ry
     estimated scf accuracy    <          9.7E-10 Ry

     total magnetization       =     1.00 Bohr mag/cell
     absolute magnetization    =     1.44 Bohr mag/cell

     iteration # 12     ecut=    60.00 Ry     beta= 0.70
     CG style diagonalization
     ethr =  8.61E-12,  avg # of iterations =  3.1

     negative rho (up, down):  1.598E-04 2.033E-04

     total cpu time spent up to now is    10216.7 secs

     total energy              =     -22.52398266 Ry
     estimated scf accuracy    <          9.2E-10 Ry

     total magnetization       =     1.00 Bohr mag/cell
     absolute magnetization    =     1.44 Bohr mag/cell

     iteration # 13     ecut=    60.00 Ry     beta= 0.70
     CG style diagonalization
     ethr =  8.61E-12,  avg # of iterations =  3.1

     negative rho (up, down):  1.598E-04 2.033E-04

     total cpu time spent up to now is    10235.5 secs

     total energy              =     -22.52398261 Ry
     estimated scf accuracy    <          8.2E-10 Ry

     total magnetization       =     1.00 Bohr mag/cell
     absolute magnetization    =     1.44 Bohr mag/cell

     iteration # 14     ecut=    60.00 Ry     beta= 0.70
     CG style diagonalization
     ethr =  8.61E-12,  avg # of iterations =  3.1

     negative rho (up, down):  1.598E-04 2.033E-04

     total cpu time spent up to now is    10254.4 secs

     total energy              =     -22.52398291 Ry
     estimated scf accuracy    <          8.0E-10 Ry

     total magnetization       =     1.00 Bohr mag/cell
     absolute magnetization    =     1.44 Bohr mag/cell

     iteration # 15     ecut=    60.00 Ry     beta= 0.70
     CG style diagonalization
     ethr =  8.61E-12,  avg # of iterations =  3.6

     negative rho (up, down):  1.598E-04 2.033E-04

     Magnetic moment per site:
     atom:    1    charge:    1.3335    magn:    0.1448    constr:    0.0000
     atom:    2    charge:    0.4208    magn:   -0.0076    constr:    0.0000
     atom:    3    charge:    0.4208    magn:   -0.0076    constr:    0.0000

     total cpu time spent up to now is    10271.9 secs

     End of self-consistent calculation

 ------ SPIN UP ------------


          k = 0.0000 0.0000 0.0000 (423701 PWs)   bands (ev):

   -39.6634 -30.1923 -26.8150 -25.6161 -25.6122 -24.8331 -24.8315 -24.4290

          k = 0.0000 0.2500 0.0000 (423725 PWs)   bands (ev):

   -39.6634 -30.1923 -26.8150 -25.6157 -25.6122 -24.8473 -24.8303 -24.3968

          k = 0.0000-0.5000 0.0000 (423542 PWs)   bands (ev):

   -39.6634 -30.1923 -26.8150 -25.6153 -25.6122 -24.8599 -24.8291 -24.3746

          k = 0.2500 0.0000 0.0000 (423725 PWs)   bands (ev):

   -39.6634 -30.1923 -26.8150 -25.6157 -25.6122 -24.8456 -24.8319 -24.3982

          k = 0.2500 0.2500 0.0000 (423766 PWs)   bands (ev):

   -39.6634 -30.1923 -26.8150 -25.6153 -25.6122 -24.8460 -24.8441 -24.3489

          k = 0.2500-0.5000 0.0000 (423782 PWs)   bands (ev):

   -39.6634 -30.1923 -26.8150 -25.6149 -25.6121 -24.8583 -24.8428 -24.3091

          k = 0.2500-0.2500 0.0000 (423766 PWs)   bands (ev):

   -39.6634 -30.1923 -26.8150 -25.6153 -25.6122 -24.8460 -24.8441 -24.3488

          k =-0.5000 0.0000 0.0000 (423542 PWs)   bands (ev):

   -39.6634 -30.1923 -26.8150 -25.6153 -25.6122 -24.8582 -24.8307 -24.3768

          k =-0.5000 0.2500 0.0000 (423782 PWs)   bands (ev):

   -39.6634 -30.1923 -26.8150 -25.6149 -25.6121 -24.8566 -24.8444 -24.3111

          k =-0.5000-0.5000 0.0000 (423708 PWs)   bands (ev):

   -39.6634 -30.1923 -26.8150 -25.6144 -25.6121 -24.8567 -24.8550 -24.2949

 ------ SPIN DOWN ----------


          k = 0.0000 0.0000 0.0000 (423701 PWs)   bands (ev):

   -38.8810 -29.9943 -26.4740 -24.1614 -23.8367 -23.8139 -23.8122 -23.6503

          k = 0.0000 0.2500 0.0000 (423725 PWs)   bands (ev):

   -38.8810 -29.9943 -26.4740 -24.1388 -23.9607 -23.7889 -23.7345 -23.6015

          k = 0.0000-0.5000 0.0000 (423542 PWs)   bands (ev):

   -38.8810 -29.9943 -26.4740 -24.0790 -24.0626 -23.7245 -23.7127 -23.6779

          k = 0.2500 0.0000 0.0000 (423725 PWs)   bands (ev):

   -38.8810 -29.9943 -26.4740 -24.1387 -23.9608 -23.7907 -23.7324 -23.6030

          k = 0.2500 0.2500 0.0000 (423766 PWs)   bands (ev):

   -38.8810 -29.9943 -26.4740 -24.1164 -23.9660 -23.8886 -23.7360 -23.5900

          k = 0.2500-0.5000 0.0000 (423782 PWs)   bands (ev):

   -38.8810 -29.9943 -26.4740 -24.0575 -24.0433 -23.8571 -23.8372 -23.4860

          k = 0.2500-0.2500 0.0000 (423766 PWs)   bands (ev):

   -38.8810 -29.9943 -26.4740 -24.1164 -23.9660 -23.8886 -23.7360 -23.5902

          k =-0.5000 0.0000 0.0000 (423542 PWs)   bands (ev):

   -38.8810 -29.9943 -26.4740 -24.0761 -24.0655 -23.7294 -23.7108 -23.6718

          k =-0.5000 0.2500 0.0000 (423782 PWs)   bands (ev):

   -38.8810 -29.9943 -26.4740 -24.0546 -24.0465 -23.8557 -23.8386 -23.4757

          k =-0.5000-0.5000 0.0000 (423708 PWs)   bands (ev):

   -38.8810 -29.9943 -26.4740 -24.0155 -24.0103 -23.9454 -23.9133 -23.5900

     the Fermi energy is   -25.6137 ev

!    total energy              =     -22.52398302 Ry
     estimated scf accuracy    <          7.7E-11 Ry
     smearing contrib. (-TS)   =      -0.00281979 Ry
     internal energy E=F+TS    =     -22.52116323 Ry

     The total energy is F=E-TS. E is the sum of the following terms:
     one-electron contribution =     -57.69770445 Ry
     hartree contribution      =      24.82342550 Ry
     xc contribution           =      -6.43462930 Ry
     ewald contribution        =      16.78789478 Ry
     Dispersion Correction     =      -0.00014976 Ry

     total magnetization       =     1.00 Bohr mag/cell
     absolute magnetization    =     1.44 Bohr mag/cell

     convergence has been achieved in  15 iterations

     negative rho (up, down):  1.598E-04 2.033E-04

     Forces acting on atoms (cartesian axes, Ry/au):

     atom    1 type  1   force =     0.00046957    0.00000001    0.02715878
     atom    2 type  2   force =    -0.00023478   -0.00001346    0.00003519
     atom    3 type  2   force =    -0.00023479    0.00001345    0.00003518

     Total force =     0.000336     Total SCF correction =     0.000002
     Energy error            =      4.8E-07
     Gradient error          =      2.3E-04

     bfgs converged in   8 scf cycles and   7 bfgs steps
     (criteria: energy <  7.3E-07 Ry, force <  3.9E-04 Ry/Bohr)

     End of BFGS Geometry Optimization

     Final energy   =     -22.5239830216 Ry

     File ./NH2_ESM_pn5.bfgs deleted, as requested
Begin final coordinates

ATOMIC_POSITIONS (angstrom)
N            10.0000000000       10.0000000000        0.0000000000    0   0   0
H             9.9976833791       10.8449410894        0.6161064139
H             9.9976830331        9.1550563164        0.6161027961
End final coordinates



     Writing output data file ./NH2_ESM_pn5.save/

     init_run     :     20.68s CPU     22.27s WALL (       1 calls)
     electrons    :   9512.98s CPU  10112.43s WALL (       8 calls)
     update_pot   :     56.30s CPU     59.29s WALL (       7 calls)
     forces       :     69.82s CPU     73.99s WALL (       8 calls)

     Called by init_run:
     wfcinit      :      1.51s CPU      1.96s WALL (       1 calls)
     potinit      :      7.52s CPU      8.20s WALL (       1 calls)
     hinit0       :      1.78s CPU      1.95s WALL (       1 calls)

     Called by electrons:
     c_bands      :   3893.80s CPU   3952.13s WALL (     477 calls)
     sum_band     :   1087.55s CPU   1123.16s WALL (     477 calls)
     v_of_rho     :   2848.31s CPU   3079.19s WALL (     485 calls)
     newd         :    330.22s CPU    350.28s WALL (     485 calls)
     mix_rho      :    907.09s CPU   1105.15s WALL (     477 calls)

     Called by c_bands:
     init_us_2    :     17.00s CPU     17.50s WALL (    2889 calls)
     ccgdiagg     :   2725.07s CPU   2758.14s WALL (    1431 calls)
     wfcrot       :    793.21s CPU    802.62s WALL (    1410 calls)

     Called by *cgdiagg:
     h_psi        :   3066.90s CPU   3103.87s WALL (   37605 calls)
     s_psi        :    147.39s CPU    149.24s WALL (   73800 calls)

     Called by h_psi:
     h_psi:calbec :    117.27s CPU    118.92s WALL (   37605 calls)
     vloc_psi     :   2800.84s CPU   2834.47s WALL (   37605 calls)
     add_vuspsi   :    133.75s CPU    135.41s WALL (   37605 calls)
     hs_1psi      :   2399.26s CPU   2428.33s WALL (   36195 calls)
     s_1psi       :    169.79s CPU    171.90s WALL (   36195 calls)

     General routines
     calbec       :    219.45s CPU    222.56s WALL (   75327 calls)
     fft          :   2925.48s CPU   3003.49s WALL (   12236 calls)
     ffts         :    158.41s CPU    160.16s WALL (    1924 calls)
     fftw         :   2656.62s CPU   2687.42s WALL (  106398 calls)
     interpolate  :    328.78s CPU    359.00s WALL (     970 calls)
     davcio       :      2.41s CPU    129.59s WALL (   14683 calls)

     Parallel routines
     fft_scatt_xy :    856.77s CPU    867.50s WALL (  120558 calls)
     fft_scatt_yz :   2226.37s CPU   2251.03s WALL (  120558 calls)

     PWSCF        :      2h41m CPU      2h51m WALL


   This run was terminated on:  15:54:26   1Jul2022            

=------------------------------------------------------------------------------=
   JOB DONE.
=------------------------------------------------------------------------------=
