
     Program PWSCF v.6.4.1 starts on 10Jun2022 at 23:32:11 

     This program is part of the open-source Quantum ESPRESSO suite
     for quantum simulation of materials; please cite
         "P. Giannozzi et al., J. Phys.:Condens. Matter 21 395502 (2009);
         "P. Giannozzi et al., J. Phys.:Condens. Matter 29 465901 (2017);
          URL http://www.quantum-espresso.org", 
     in publications or presentations arising from this work. More details at
     http://www.quantum-espresso.org/quote

     Parallel version (MPI), running on   160 processors

     MPI processes distributed on     8 nodes
     K-points division:     npool     =       8
     R & G space division:  proc/nbgrp/npool/nimage =      20
     Waiting for input...
     Reading input from standard input
Warning: card &CELL ignored
Warning: card / ignored

     Current dimensions of program PWSCF are:
     Max number of different atomic species (ntypx) = 10
     Max number of k-points (npk) =  40000
     Max angular momentum in pseudopotentials (lmaxx) =  3

     IMPORTANT: XC functional enforced from input :
     Exchange-correlation      = PBE ( 1  4  3  4 0 0)
     Any further DFT definition will be discarded
     Please, verify this is what you really want

               file Fe.pbe-spn-kjpaw_psl.0.2.1.UPF: wavefunction(s)  3D renormalized

     -------------------------------------------------
     Parameters for Dispersion (Grimme-D2) Correction:
     -------------------------------------------------
       atom      VdW radius       C_6     

        Fe         2.952        374.666

     Subspace diagonalization in iterative solution of the eigenvalue problem:
     one sub-group per band group will be used
     scalapack distributed-memory algorithm (size of sub-group:  3*  3 procs)


     Parallelization info
     --------------------
     sticks:   dense  smooth     PW     G-vecs:    dense   smooth      PW
     Min         634     317     83               145278    51361    6989
     Max         635     318     84               145287    51370    7000
     Sum       12685    6351   1677              2905599  1027285  139897



     bravais-lattice index     =            0
     lattice parameter (alat)  =      18.7640  a.u.
     unit-cell volume          =   16360.3163 (a.u.)^3
     number of atoms/cell      =           64
     number of atomic types    =            1
     number of electrons       =      1024.00
     number of Kohn-Sham states=          614
     kinetic-energy cutoff     =      60.0000  Ry
     charge density cutoff     =     480.0000  Ry
     convergence threshold     =      1.0E-08
     mixing beta               =       0.2000
     number of iterations used =           10  local-TF  mixing
     Exchange-correlation      = PBE ( 1  4  3  4 0 0)
     nstep                     =           50


     Effective Screening Medium Method
     =================================
     Boundary Conditions: Metal-Slab-Metal
     field strength                   =     0.01 Ry/a.u.
     grid points for fit at edges     =        4 


     celldm(1)=  18.764036  celldm(2)=   0.000000  celldm(3)=   0.000000
     celldm(4)=   0.000000  celldm(5)=   0.000000  celldm(6)=   0.000000

     crystal axes: (cart. coord. in units of alat)
               a(1) = (   1.000000   0.000000   0.000000 )  
               a(2) = (   0.333330   0.942807   0.000000 )  
               a(3) = (   0.000000   0.000000   2.626577 )  

     reciprocal axes: (cart. coord. in units 2 pi/alat)
               b(1) = (  1.000000 -0.353551  0.000000 )  
               b(2) = (  0.000000  1.060663  0.000000 )  
               b(3) = (  0.000000  0.000000  0.380724 )  


     PseudoPot. # 1 for Fe read from file:
     ../SSSP/Fe.pbe-spn-kjpaw_psl.0.2.1.UPF
     MD5 check sum: e86618425769142926afa95317d90200
     Pseudo is Projector augmented-wave + core cor, Zval = 16.0
     Generated using "atomic" code by A. Dal Corso v.5.0.99 svn rev. 10869
     Shape of augmentation charge: PSQ
     Using radial grid of 1191 points,  6 beta functions with: 
                l(1) =   0
                l(2) =   0
                l(3) =   1
                l(4) =   1
                l(5) =   2
                l(6) =   2
     Q(r) pseudized with 0 coefficients 


     atomic species   valence    mass     pseudopotential
        Fe            16.00    55.84500     Fe( 1.00)

     Starting magnetic structure 
     atomic species   magnetization
        Fe           0.100

     No symmetry found



   Cartesian axes

     site n.     atom                  positions (alat units)
         1           Fe  tau(   1) = (   0.1666663   0.1178509   0.0000000  )
         2           Fe  tau(   2) = (   0.0000000   0.0000000   0.2041376  )
         3           Fe  tau(   3) = (   0.4999989   0.3535526   0.0000000  )
         4           Fe  tau(   4) = (   0.3333326   0.2357017   0.2041376  )
         5           Fe  tau(   5) = (   0.1666883   0.1178565   0.4055485  )
         6           Fe  tau(   6) = (   0.3333688   0.9428184   0.6047447  )
         7           Fe  tau(   7) = (   0.5000206   0.3535572   0.4055456  )
         8           Fe  tau(   8) = (   0.3333470   0.2357998   0.6047191  )
         9           Fe  tau(   9) = (   0.2499989   0.3535526   0.0000000  )
        10           Fe  tau(  10) = (   0.4166663   0.1178509   0.0000000  )
        11           Fe  tau(  11) = (   0.0833326   0.2357017   0.2041376  )
        12           Fe  tau(  12) = (   0.2500000   0.0000000   0.2041376  )
        13           Fe  tau(  13) = (   0.2500056   0.3535711   0.4054970  )
        14           Fe  tau(  14) = (   0.4166800   0.1178886   0.4055435  )
        15           Fe  tau(  15) = (   0.0833671   0.2357290   0.6047215  )
        16           Fe  tau(  16) = (   0.2500711   0.0000921   0.6047608  )
        17           Fe  tau(  17) = (   0.6666663   0.1178509   0.0000000  )
        18           Fe  tau(  18) = (   0.5000000   0.0000000   0.2041376  )
        19           Fe  tau(  19) = (   0.9999989   0.3535526   0.0000000  )
        20           Fe  tau(  20) = (   0.8333326   0.2357017   0.2041376  )
        21           Fe  tau(  21) = (   0.6666909   0.1178765   0.4055642  )
        22           Fe  tau(  22) = (   0.5000465   0.0000236   0.6046761  )
        23           Fe  tau(  23) = (   1.0000109   0.3535665   0.4055626  )
        24           Fe  tau(  24) = (   0.8333753   0.2357096   0.6046948  )
        25           Fe  tau(  25) = (   0.7499989   0.3535526   0.0000000  )
        26           Fe  tau(  26) = (   0.9166663   0.1178509   0.0000000  )
        27           Fe  tau(  27) = (   0.5833326   0.2357017   0.2041376  )
        28           Fe  tau(  28) = (   0.7500000   0.0000000   0.2041376  )
        29           Fe  tau(  29) = (   0.7500298   0.3535537   0.4055237  )
        30           Fe  tau(  30) = (   0.9166973   0.1178520   0.4055727  )
        31           Fe  tau(  31) = (   0.5833528   0.2357440   0.6048152  )
        32           Fe  tau(  32) = (   1.0833550   0.9428301   0.6047230  )
        33           Fe  tau(  33) = (   0.3333315   0.5892543   0.0000000  )
        34           Fe  tau(  34) = (   0.1666652   0.4714034   0.2041376  )
        35           Fe  tau(  35) = (   0.6666640   0.8249560   0.0000000  )
        36           Fe  tau(  36) = (   0.4999978   0.7071052   0.2041376  )
        37           Fe  tau(  37) = (   0.3333024   0.5893238   0.4055334  )
        38           Fe  tau(  38) = (   1.1666931   0.4714090   0.6046775  )
        39           Fe  tau(  39) = (   0.6666498   0.8250381   0.4055339  )
        40           Fe  tau(  40) = (   0.4999795   0.7072006   0.6047873  )
        41           Fe  tau(  41) = (   0.4166640   0.8249560   0.0000000  )
        42           Fe  tau(  42) = (   0.5833315   0.5892543   0.0000000  )
        43           Fe  tau(  43) = (   0.2499978   0.7071052   0.2041376  )
        44           Fe  tau(  44) = (   0.4166652   0.4714034   0.2041376  )
        45           Fe  tau(  45) = (   0.4166645   0.8250008   0.4055405  )
        46           Fe  tau(  46) = (   0.5833194   0.5893164   0.4055538  )
        47           Fe  tau(  47) = (   1.2499531   0.7071110   0.6047598  )
        48           Fe  tau(  48) = (   0.4166762   0.4714800   0.6046684  )
        49           Fe  tau(  49) = (   0.8333315   0.5892543   0.0000000  )
        50           Fe  tau(  50) = (   0.6666652   0.4714034   0.2041376  )
        51           Fe  tau(  51) = (   1.1666640   0.8249560   0.0000000  )
        52           Fe  tau(  52) = (   0.9999978   0.7071052   0.2041376  )
        53           Fe  tau(  53) = (   0.8333620   0.5892670   0.4055440  )
        54           Fe  tau(  54) = (   0.6666665   0.4714716   0.6046004  )
        55           Fe  tau(  55) = (   1.1666930   0.8249675   0.4055502  )
        56           Fe  tau(  56) = (   0.9999653   0.7071693   0.6047169  )
        57           Fe  tau(  57) = (   0.9166640   0.8249560   0.0000000  )
        58           Fe  tau(  58) = (   1.0833315   0.5892543   0.0000000  )
        59           Fe  tau(  59) = (   0.7499978   0.7071052   0.2041376  )
        60           Fe  tau(  60) = (   0.9166652   0.4714034   0.2041376  )
        61           Fe  tau(  61) = (   0.9166861   0.8249876   0.4054965  )
        62           Fe  tau(  62) = (   1.0833354   0.5892828   0.4055429  )
        63           Fe  tau(  63) = (   0.7499872   0.7071671   0.6046676  )
        64           Fe  tau(  64) = (   0.9166845   0.4714443   0.6048084  )

     number of k points=    10  Methfessel-Paxton smearing, width (Ry)=  0.0100
                       cart. coord. in units 2pi/alat
        k(    1) = (   0.0000000   0.0000000   0.0000000), wk =   0.0625000
        k(    2) = (   0.0000000   0.2651656   0.0000000), wk =   0.1250000
        k(    3) = (   0.0000000  -0.5303313   0.0000000), wk =   0.0625000
        k(    4) = (   0.2500000  -0.0883878   0.0000000), wk =   0.1250000
        k(    5) = (   0.2500000   0.1767779   0.0000000), wk =   0.1250000
        k(    6) = (   0.2500000  -0.6187190   0.0000000), wk =   0.1250000
        k(    7) = (   0.2500000  -0.3535534   0.0000000), wk =   0.1250000
        k(    8) = (  -0.5000000   0.1767755   0.0000000), wk =   0.0625000
        k(    9) = (  -0.5000000   0.4419412   0.0000000), wk =   0.1250000
        k(   10) = (  -0.5000000  -0.3535558   0.0000000), wk =   0.0625000

     Dense  grid:  2905599 G-vectors     FFT dimensions: ( 135, 135, 360)

     Smooth grid:  1027285 G-vectors     FFT dimensions: (  96,  96, 243)

     Estimated max dynamical RAM per process >    1009.58 MB

     Estimated total dynamical RAM >     157.75 GB
     Generating pointlists ...
     new r_m :   0.1014 (alat units)  1.9031 (a.u.) for type    1

     Check: negative core charge=   -0.000039

     Initial potential from superposition of free atoms

     starting charge 1023.97194, renormalised to 1024.00000

     negative rho (up, down):  2.482E-02 2.555E-03
     Starting wfcs are  832 randomized atomic wfcs
     Checking if some PAW data can be deallocated... 

     total cpu time spent up to now is       77.2 secs

     Self-consistent Calculation

     iteration #  1     ecut=    60.00 Ry     beta= 0.20
     Davidson diagonalization with overlap
     c_bands:  2 eigenvalues not converged
     ethr =  1.00E-04,  avg # of iterations = 19.2

     negative rho (up, down):  1.307E-02 3.377E-03

     total cpu time spent up to now is     1084.1 secs

     total energy              =  -21066.12682712 Ry
     Harris-Foulkes estimate   =  -21074.39596134 Ry
     estimated scf accuracy    <     414.90935412 Ry

     total magnetization       =   103.66 Bohr mag/cell
     absolute magnetization    =   104.61 Bohr mag/cell

     iteration #  2     ecut=    60.00 Ry     beta= 0.20
     Davidson diagonalization with overlap
     ethr =  1.00E-02,  avg # of iterations =  1.0

     negative rho (up, down):  1.057E-02 4.576E-02

     total cpu time spent up to now is     1218.0 secs

     total energy              =  -21070.43658042 Ry
     Harris-Foulkes estimate   =  -21073.87191472 Ry
     estimated scf accuracy    <     187.88166966 Ry

     total magnetization       =   102.38 Bohr mag/cell
     absolute magnetization    =   103.64 Bohr mag/cell

     iteration #  3     ecut=    60.00 Ry     beta= 0.20
     Davidson diagonalization with overlap
     ethr =  1.00E-02,  avg # of iterations =  1.0

     negative rho (up, down):  5.846E-03 2.318E-02

     total cpu time spent up to now is     1356.4 secs

     total energy              =  -21072.16358054 Ry
     Harris-Foulkes estimate   =  -21072.26292325 Ry
     estimated scf accuracy    <      10.23948368 Ry

     total magnetization       =   132.70 Bohr mag/cell
     absolute magnetization    =   133.09 Bohr mag/cell

     iteration #  4     ecut=    60.00 Ry     beta= 0.20
     Davidson diagonalization with overlap
     ethr =  1.00E-03,  avg # of iterations =  1.0

     negative rho (up, down):  4.123E-03 1.969E-02

     total cpu time spent up to now is     1492.5 secs

     total energy              =  -21072.21664634 Ry
     Harris-Foulkes estimate   =  -21072.25075951 Ry
     estimated scf accuracy    <      15.51736348 Ry

     total magnetization       =   138.99 Bohr mag/cell
     absolute magnetization    =   139.44 Bohr mag/cell

     iteration #  5     ecut=    60.00 Ry     beta= 0.20
     Davidson diagonalization with overlap
     ethr =  1.00E-03,  avg # of iterations =  1.0

     negative rho (up, down):  2.058E-02 2.094E-01

     total cpu time spent up to now is     1620.2 secs

     total energy              =  -21070.01019317 Ry
     Harris-Foulkes estimate   =  -21072.24151217 Ry
     estimated scf accuracy    <      16.34115963 Ry

     total magnetization       =   141.60 Bohr mag/cell
     absolute magnetization    =   142.12 Bohr mag/cell

     iteration #  6     ecut=    60.00 Ry     beta= 0.20
     Davidson diagonalization with overlap
     ethr =  1.00E-03,  avg # of iterations =  8.1

     negative rho (up, down):  2.976E-03 1.046E-01

     total cpu time spent up to now is     1856.2 secs

     total energy              =  -21071.62475397 Ry
     Harris-Foulkes estimate   =  -21071.48465047 Ry
     estimated scf accuracy    <       2.74037546 Ry

     total magnetization       =   158.03 Bohr mag/cell
     absolute magnetization    =   162.04 Bohr mag/cell

     iteration #  7     ecut=    60.00 Ry     beta= 0.20
     Davidson diagonalization with overlap
     c_bands:  1 eigenvalues not converged
     ethr =  2.68E-04,  avg # of iterations =  9.3

     negative rho (up, down):  8.225E-04 4.731E-02

     total cpu time spent up to now is     2228.5 secs

     total energy              =  -21072.07529450 Ry
     Harris-Foulkes estimate   =  -21072.07441810 Ry
     estimated scf accuracy    <       0.55251229 Ry

     total magnetization       =   150.13 Bohr mag/cell
     absolute magnetization    =   153.35 Bohr mag/cell

     iteration #  8     ecut=    60.00 Ry     beta= 0.20
     Davidson diagonalization with overlap
     ethr =  5.40E-05,  avg # of iterations = 16.0

     negative rho (up, down):  1.781E-04 2.654E-02

     total cpu time spent up to now is     3284.2 secs

     total energy              =  -21072.17748957 Ry
     Harris-Foulkes estimate   =  -21072.30377710 Ry
     estimated scf accuracy    <       1.28003499 Ry

     total magnetization       =   150.69 Bohr mag/cell
     absolute magnetization    =   155.09 Bohr mag/cell

     iteration #  9     ecut=    60.00 Ry     beta= 0.20
     Davidson diagonalization with overlap
     ethr =  5.40E-05,  avg # of iterations =  3.4

     negative rho (up, down):  2.538E-04 4.003E-02

     total cpu time spent up to now is     3456.4 secs

     total energy              =  -21072.27100449 Ry
     Harris-Foulkes estimate   =  -21072.26822213 Ry
     estimated scf accuracy    <       1.47232957 Ry

     total magnetization       =   154.39 Bohr mag/cell
     absolute magnetization    =   158.40 Bohr mag/cell

     iteration # 10     ecut=    60.00 Ry     beta= 0.20
     Davidson diagonalization with overlap
     ethr =  5.40E-05,  avg # of iterations =  1.0

     negative rho (up, down):  3.338E-04 3.345E-02

     total cpu time spent up to now is     3586.9 secs

     total energy              =  -21072.25127681 Ry
     Harris-Foulkes estimate   =  -21072.29024820 Ry
     estimated scf accuracy    <       1.31529253 Ry

     total magnetization       =   156.78 Bohr mag/cell
     absolute magnetization    =   160.89 Bohr mag/cell

     iteration # 11     ecut=    60.00 Ry     beta= 0.20
     Davidson diagonalization with overlap
     ethr =  5.40E-05,  avg # of iterations =  1.0

     negative rho (up, down):  1.229E-04 3.175E-02

     total cpu time spent up to now is     3715.0 secs

     total energy              =  -21072.26979035 Ry
     Harris-Foulkes estimate   =  -21072.27925786 Ry
     estimated scf accuracy    <       0.41445176 Ry

     total magnetization       =   160.43 Bohr mag/cell
     absolute magnetization    =   164.54 Bohr mag/cell

     iteration # 12     ecut=    60.00 Ry     beta= 0.20
     Davidson diagonalization with overlap
     ethr =  4.05E-05,  avg # of iterations =  1.0

     negative rho (up, down):  2.440E-03 4.406E-02

     total cpu time spent up to now is     3842.7 secs

     total energy              =  -21072.22675285 Ry
     Harris-Foulkes estimate   =  -21072.27624139 Ry
     estimated scf accuracy    <       0.27044816 Ry

     total magnetization       =   159.47 Bohr mag/cell
     absolute magnetization    =   163.64 Bohr mag/cell

     iteration # 13     ecut=    60.00 Ry     beta= 0.20
     Davidson diagonalization with overlap
     ethr =  2.64E-05,  avg # of iterations = 11.8

     negative rho (up, down):  7.195E-04 3.162E-02

     total cpu time spent up to now is     4314.0 secs

     total energy              =  -21072.27422694 Ry
     Harris-Foulkes estimate   =  -21072.28302889 Ry
     estimated scf accuracy    <       0.16102583 Ry

     total magnetization       =   162.02 Bohr mag/cell
     absolute magnetization    =   167.10 Bohr mag/cell

     iteration # 14     ecut=    60.00 Ry     beta= 0.20
     Davidson diagonalization with overlap
     ethr =  1.57E-05,  avg # of iterations =  6.2

     negative rho (up, down):  7.030E-02 3.041E-02

     total cpu time spent up to now is     4515.2 secs

     total energy              =  -21072.26172998 Ry
     Harris-Foulkes estimate   =  -21072.28297943 Ry
     estimated scf accuracy    <       0.17572795 Ry

     total magnetization       =   161.34 Bohr mag/cell
     absolute magnetization    =   166.40 Bohr mag/cell

     iteration # 15     ecut=    60.00 Ry     beta= 0.20
     Davidson diagonalization with overlap
     ethr =  1.57E-05,  avg # of iterations =  3.7

     negative rho (up, down):  1.294E-01 2.225E-02

     total cpu time spent up to now is     4671.2 secs

     total energy              =  -21072.26454212 Ry
     Harris-Foulkes estimate   =  -21072.27046691 Ry
     estimated scf accuracy    <       0.08211954 Ry

     total magnetization       =   163.08 Bohr mag/cell
     absolute magnetization    =   168.09 Bohr mag/cell

     iteration # 16     ecut=    60.00 Ry     beta= 0.20
     Davidson diagonalization with overlap
     ethr =  8.02E-06,  avg # of iterations =  8.7

     negative rho (up, down):  9.322E-02 1.744E-02

     total cpu time spent up to now is     4957.3 secs

     total energy              =  -21072.25872193 Ry
     Harris-Foulkes estimate   =  -21072.28164966 Ry
     estimated scf accuracy    <       0.16641307 Ry

     total magnetization       =   163.21 Bohr mag/cell
     absolute magnetization    =   168.44 Bohr mag/cell

     iteration # 17     ecut=    60.00 Ry     beta= 0.20
     Davidson diagonalization with overlap
     ethr =  8.02E-06,  avg # of iterations =  5.6

     negative rho (up, down):  1.738E-01 2.760E-02

     total cpu time spent up to now is     5161.2 secs

     total energy              =  -21072.24327090 Ry
     Harris-Foulkes estimate   =  -21072.26738870 Ry
     estimated scf accuracy    <       0.04428349 Ry

     total magnetization       =   161.96 Bohr mag/cell
     absolute magnetization    =   167.33 Bohr mag/cell

     iteration # 18     ecut=    60.00 Ry     beta= 0.20
     Davidson diagonalization with overlap
     ethr =  4.32E-06,  avg # of iterations = 13.8

     negative rho (up, down):  1.404E-01 2.226E-02

     total cpu time spent up to now is     5917.1 secs

     total energy              =  -21072.24973987 Ry
     Harris-Foulkes estimate   =  -21072.25696101 Ry
     estimated scf accuracy    <       0.04391605 Ry

     total magnetization       =   162.60 Bohr mag/cell
     absolute magnetization    =   168.56 Bohr mag/cell

     iteration # 19     ecut=    60.00 Ry     beta= 0.20
     Davidson diagonalization with overlap
     ethr =  4.29E-06,  avg # of iterations =  2.8

     negative rho (up, down):  1.635E-01 1.904E-02

     total cpu time spent up to now is     6093.5 secs

     total energy              =  -21072.23663300 Ry
     Harris-Foulkes estimate   =  -21072.25176569 Ry
     estimated scf accuracy    <       0.01993562 Ry

     total magnetization       =   162.36 Bohr mag/cell
     absolute magnetization    =   168.30 Bohr mag/cell

     iteration # 20     ecut=    60.00 Ry     beta= 0.20
     Davidson diagonalization with overlap
     ethr =  1.95E-06,  avg # of iterations = 11.5

     negative rho (up, down):  1.407E-01 1.819E-02

     total cpu time spent up to now is     6595.3 secs

     total energy              =  -21072.23858314 Ry
     Harris-Foulkes estimate   =  -21072.24346763 Ry
     estimated scf accuracy    <       0.01442947 Ry

     total magnetization       =   163.14 Bohr mag/cell
     absolute magnetization    =   169.51 Bohr mag/cell

     iteration # 21     ecut=    60.00 Ry     beta= 0.20
     Davidson diagonalization with overlap
     ethr =  1.41E-06,  avg # of iterations =  4.3

     negative rho (up, down):  9.006E-02 2.178E-02

     total cpu time spent up to now is     6788.5 secs

     total energy              =  -21072.23804971 Ry
     Harris-Foulkes estimate   =  -21072.23949071 Ry
     estimated scf accuracy    <       0.02387663 Ry

     total magnetization       =   162.95 Bohr mag/cell
     absolute magnetization    =   169.34 Bohr mag/cell

     iteration # 22     ecut=    60.00 Ry     beta= 0.20
     Davidson diagonalization with overlap
     ethr =  1.41E-06,  avg # of iterations = 11.3

     negative rho (up, down):  6.823E-02 2.195E-02

     total cpu time spent up to now is     7142.2 secs

     total energy              =  -21072.24047226 Ry
     Harris-Foulkes estimate   =  -21072.24133477 Ry
     estimated scf accuracy    <       0.00870633 Ry

     total magnetization       =   162.69 Bohr mag/cell
     absolute magnetization    =   168.98 Bohr mag/cell

     iteration # 23     ecut=    60.00 Ry     beta= 0.20
     Davidson diagonalization with overlap
     ethr =  8.50E-07,  avg # of iterations =  7.1

     negative rho (up, down):  5.370E-02 2.141E-02

     total cpu time spent up to now is     7398.4 secs

     total energy              =  -21072.24213038 Ry
     Harris-Foulkes estimate   =  -21072.24139308 Ry
     estimated scf accuracy    <       0.00259251 Ry

     total magnetization       =   162.69 Bohr mag/cell
     absolute magnetization    =   168.93 Bohr mag/cell

     iteration # 24     ecut=    60.00 Ry     beta= 0.20
     Davidson diagonalization with overlap
     ethr =  2.53E-07,  avg # of iterations = 13.1

     negative rho (up, down):  4.586E-02 1.954E-02

     total cpu time spent up to now is     8026.5 secs

     total energy              =  -21072.24337409 Ry
     Harris-Foulkes estimate   =  -21072.24306451 Ry
     estimated scf accuracy    <       0.00087797 Ry

     total magnetization       =   162.84 Bohr mag/cell
     absolute magnetization    =   169.10 Bohr mag/cell

     iteration # 25     ecut=    60.00 Ry     beta= 0.20
     Davidson diagonalization with overlap
     ethr =  8.57E-08,  avg # of iterations =  9.2

     negative rho (up, down):  3.837E-02 1.797E-02

     total cpu time spent up to now is     8414.8 secs

     total energy              =  -21072.24324223 Ry
     Harris-Foulkes estimate   =  -21072.24360814 Ry
     estimated scf accuracy    <       0.00071730 Ry

     total magnetization       =   162.92 Bohr mag/cell
     absolute magnetization    =   169.18 Bohr mag/cell

     iteration # 26     ecut=    60.00 Ry     beta= 0.20
     Davidson diagonalization with overlap
     ethr =  7.00E-08,  avg # of iterations =  2.6

     negative rho (up, down):  2.626E-02 1.830E-02

     total cpu time spent up to now is     8602.5 secs

     total energy              =  -21072.24378665 Ry
     Harris-Foulkes estimate   =  -21072.24328509 Ry
     estimated scf accuracy    <       0.00035954 Ry

     total magnetization       =   162.86 Bohr mag/cell
     absolute magnetization    =   169.13 Bohr mag/cell

     iteration # 27     ecut=    60.00 Ry     beta= 0.20
     Davidson diagonalization with overlap
     ethr =  3.51E-08,  avg # of iterations = 10.2

     negative rho (up, down):  2.629E-02 1.801E-02

     total cpu time spent up to now is     8975.4 secs

     total energy              =  -21072.24348439 Ry
     Harris-Foulkes estimate   =  -21072.24388234 Ry
     estimated scf accuracy    <       0.00010306 Ry

     total magnetization       =   162.89 Bohr mag/cell
     absolute magnetization    =   169.17 Bohr mag/cell

     iteration # 28     ecut=    60.00 Ry     beta= 0.20
     Davidson diagonalization with overlap
     ethr =  1.01E-08,  avg # of iterations = 12.3

     negative rho (up, down):  2.659E-02 1.789E-02

     total cpu time spent up to now is     9474.2 secs

     total energy              =  -21072.24296422 Ry
     Harris-Foulkes estimate   =  -21072.24356482 Ry
     estimated scf accuracy    <       0.00008720 Ry

     total magnetization       =   162.94 Bohr mag/cell
     absolute magnetization    =   169.24 Bohr mag/cell

     iteration # 29     ecut=    60.00 Ry     beta= 0.20
     Davidson diagonalization with overlap
     ethr =  8.52E-09,  avg # of iterations =  1.4

     negative rho (up, down):  2.387E-02 1.788E-02

     total cpu time spent up to now is     9619.4 secs

     total energy              =  -21072.24174434 Ry
     Harris-Foulkes estimate   =  -21072.24297033 Ry
     estimated scf accuracy    <       0.00005393 Ry

     total magnetization       =   162.95 Bohr mag/cell
     absolute magnetization    =   169.25 Bohr mag/cell

     iteration # 30     ecut=    60.00 Ry     beta= 0.20
     Davidson diagonalization with overlap
     ethr =  5.27E-09,  avg # of iterations =  7.5

     negative rho (up, down):  2.359E-02 1.786E-02

     total cpu time spent up to now is     9830.5 secs

     total energy              =  -21072.24099177 Ry
     Harris-Foulkes estimate   =  -21072.24175119 Ry
     estimated scf accuracy    <       0.00002756 Ry

     total magnetization       =   162.91 Bohr mag/cell
     absolute magnetization    =   169.21 Bohr mag/cell

     iteration # 31     ecut=    60.00 Ry     beta= 0.20
     Davidson diagonalization with overlap
     ethr =  2.69E-09,  avg # of iterations = 10.1

     negative rho (up, down):  2.347E-02 1.780E-02

     total cpu time spent up to now is    10268.9 secs

     total energy              =  -21072.24106575 Ry
     Harris-Foulkes estimate   =  -21072.24100098 Ry
     estimated scf accuracy    <       0.00002651 Ry

     total magnetization       =   162.92 Bohr mag/cell
     absolute magnetization    =   169.24 Bohr mag/cell

     iteration # 32     ecut=    60.00 Ry     beta= 0.20
     Davidson diagonalization with overlap
     ethr =  2.59E-09,  avg # of iterations =  3.5

     negative rho (up, down):  2.416E-02 1.792E-02

     total cpu time spent up to now is    10452.7 secs

     total energy              =  -21072.24018398 Ry
     Harris-Foulkes estimate   =  -21072.24106716 Ry
     estimated scf accuracy    <       0.00001941 Ry

     total magnetization       =   162.93 Bohr mag/cell
     absolute magnetization    =   169.25 Bohr mag/cell

     iteration # 33     ecut=    60.00 Ry     beta= 0.20
     Davidson diagonalization with overlap
     ethr =  1.90E-09,  avg # of iterations =  6.5

     negative rho (up, down):  2.409E-02 1.790E-02

     total cpu time spent up to now is    10661.5 secs

     total energy              =  -21072.23994509 Ry
     Harris-Foulkes estimate   =  -21072.24018570 Ry
     estimated scf accuracy    <       0.00001304 Ry

     total magnetization       =   162.94 Bohr mag/cell
     absolute magnetization    =   169.25 Bohr mag/cell

     iteration # 34     ecut=    60.00 Ry     beta= 0.20
     Davidson diagonalization with overlap
     ethr =  1.27E-09,  avg # of iterations =  8.7

     negative rho (up, down):  2.381E-02 1.788E-02

     total cpu time spent up to now is    11185.5 secs

     total energy              =  -21072.24004522 Ry
     Harris-Foulkes estimate   =  -21072.23995010 Ry
     estimated scf accuracy    <       0.00001083 Ry

     total magnetization       =   162.93 Bohr mag/cell
     absolute magnetization    =   169.25 Bohr mag/cell

     iteration # 35     ecut=    60.00 Ry     beta= 0.20
     Davidson diagonalization with overlap
     ethr =  1.06E-09,  avg # of iterations =  3.9

     negative rho (up, down):  2.482E-02 1.790E-02

     total cpu time spent up to now is    11393.9 secs

     total energy              =  -21072.23925806 Ry
     Harris-Foulkes estimate   =  -21072.24004635 Ry
     estimated scf accuracy    <       0.00000399 Ry

     total magnetization       =   162.93 Bohr mag/cell
     absolute magnetization    =   169.24 Bohr mag/cell

     iteration # 36     ecut=    60.00 Ry     beta= 0.20
     Davidson diagonalization with overlap
     ethr =  3.89E-10,  avg # of iterations =  9.2

     negative rho (up, down):  2.495E-02 1.790E-02

     total cpu time spent up to now is    11914.5 secs

     total energy              =  -21072.23924396 Ry
     Harris-Foulkes estimate   =  -21072.23926009 Ry
     estimated scf accuracy    <       0.00000503 Ry

     total magnetization       =   162.94 Bohr mag/cell
     absolute magnetization    =   169.26 Bohr mag/cell

     iteration # 37     ecut=    60.00 Ry     beta= 0.20
     Davidson diagonalization with overlap
     ethr =  3.89E-10,  avg # of iterations =  6.5

     negative rho (up, down):  2.496E-02 1.791E-02

     total cpu time spent up to now is    12123.7 secs

     total energy              =  -21072.23929122 Ry
     Harris-Foulkes estimate   =  -21072.23924472 Ry
     estimated scf accuracy    <       0.00000028 Ry

     total magnetization       =   162.95 Bohr mag/cell
     absolute magnetization    =   169.27 Bohr mag/cell

     iteration # 38     ecut=    60.00 Ry     beta= 0.20
     Davidson diagonalization with overlap
     ethr =  2.73E-11,  avg # of iterations = 14.4

     negative rho (up, down):  2.497E-02 1.790E-02

     total cpu time spent up to now is    12979.6 secs

     total energy              =  -21072.23927299 Ry
     Harris-Foulkes estimate   =  -21072.23929164 Ry
     estimated scf accuracy    <       0.00000038 Ry

     total magnetization       =   162.95 Bohr mag/cell
     absolute magnetization    =   169.27 Bohr mag/cell

     iteration # 39     ecut=    60.00 Ry     beta= 0.20
     Davidson diagonalization with overlap
     ethr =  2.73E-11,  avg # of iterations =  1.0

     negative rho (up, down):  2.499E-02 1.789E-02

     total cpu time spent up to now is    13106.0 secs

     total energy              =  -21072.23927017 Ry
     Harris-Foulkes estimate   =  -21072.23927299 Ry
     estimated scf accuracy    <       0.00000030 Ry

     total magnetization       =   162.95 Bohr mag/cell
     absolute magnetization    =   169.27 Bohr mag/cell

     iteration # 40     ecut=    60.00 Ry     beta= 0.20
     Davidson diagonalization with overlap
     ethr =  2.73E-11,  avg # of iterations =  2.9

     negative rho (up, down):  2.500E-02 1.787E-02

     total cpu time spent up to now is    13274.2 secs

     total energy              =  -21072.23927037 Ry
     Harris-Foulkes estimate   =  -21072.23927017 Ry
     estimated scf accuracy    <       0.00000023 Ry

     total magnetization       =   162.95 Bohr mag/cell
     absolute magnetization    =   169.27 Bohr mag/cell

     iteration # 41     ecut=    60.00 Ry     beta= 0.20
     Davidson diagonalization with overlap
     ethr =  2.25E-11,  avg # of iterations =  1.0

     negative rho (up, down):  2.505E-02 1.785E-02

     total cpu time spent up to now is    13402.8 secs

     total energy              =  -21072.23931115 Ry
     Harris-Foulkes estimate   =  -21072.23927036 Ry
     estimated scf accuracy    <       0.00000022 Ry

     total magnetization       =   162.95 Bohr mag/cell
     absolute magnetization    =   169.28 Bohr mag/cell

     iteration # 42     ecut=    60.00 Ry     beta= 0.20
     Davidson diagonalization with overlap
     ethr =  2.16E-11,  avg # of iterations =  7.5

     negative rho (up, down):  2.505E-02 1.785E-02

     total cpu time spent up to now is    13627.5 secs

     total energy              =  -21072.23932015 Ry
     Harris-Foulkes estimate   =  -21072.23931118 Ry
     estimated scf accuracy    <       0.00000008 Ry

     total magnetization       =   162.95 Bohr mag/cell
     absolute magnetization    =   169.28 Bohr mag/cell

     iteration # 43     ecut=    60.00 Ry     beta= 0.20
     Davidson diagonalization with overlap
     ethr =  7.74E-12,  avg # of iterations =  8.7

     negative rho (up, down):  2.504E-02 1.785E-02

     total cpu time spent up to now is    14042.6 secs

     total energy              =  -21072.23931384 Ry
     Harris-Foulkes estimate   =  -21072.23932018 Ry
     estimated scf accuracy    <       0.00000005 Ry

     total magnetization       =   162.95 Bohr mag/cell
     absolute magnetization    =   169.28 Bohr mag/cell

     iteration # 44     ecut=    60.00 Ry     beta= 0.20
     Davidson diagonalization with overlap
     ethr =  4.45E-12,  avg # of iterations =  8.4

     negative rho (up, down):  2.506E-02 1.784E-02

     total cpu time spent up to now is    14487.3 secs

     total energy              =  -21072.23930984 Ry
     Harris-Foulkes estimate   =  -21072.23931386 Ry
     estimated scf accuracy    <       0.00000010 Ry

     total magnetization       =   162.95 Bohr mag/cell
     absolute magnetization    =   169.28 Bohr mag/cell

     iteration # 45     ecut=    60.00 Ry     beta= 0.20
     Davidson diagonalization with overlap
     ethr =  4.45E-12,  avg # of iterations =  3.4

     negative rho (up, down):  2.509E-02 1.784E-02

     total cpu time spent up to now is    14650.9 secs

     total energy              =  -21072.23929888 Ry
     Harris-Foulkes estimate   =  -21072.23930983 Ry
     estimated scf accuracy    <       0.00000008 Ry

     total magnetization       =   162.95 Bohr mag/cell
     absolute magnetization    =   169.28 Bohr mag/cell

     iteration # 46     ecut=    60.00 Ry     beta= 0.20
     Davidson diagonalization with overlap
     ethr =  4.45E-12,  avg # of iterations =  7.5

     negative rho (up, down):  2.509E-02 1.784E-02

     total cpu time spent up to now is    14911.6 secs

     total energy              =  -21072.23930044 Ry
     Harris-Foulkes estimate   =  -21072.23929886 Ry
     estimated scf accuracy    <       0.00000002 Ry

     total magnetization       =   162.95 Bohr mag/cell
     absolute magnetization    =   169.28 Bohr mag/cell

     iteration # 47     ecut=    60.00 Ry     beta= 0.20
     Davidson diagonalization with overlap
     ethr =  1.66E-12,  avg # of iterations =  9.6

     negative rho (up, down):  2.509E-02 1.783E-02

     Magnetic moment per site:
     atom:    1    charge:   14.2655    magn:    2.6683    constr:    0.0000
     atom:    2    charge:   14.3392    magn:    2.4355    constr:    0.0000
     atom:    3    charge:   14.2654    magn:    2.6683    constr:    0.0000
     atom:    4    charge:   14.3394    magn:    2.4353    constr:    0.0000
     atom:    5    charge:   14.3528    magn:    2.4148    constr:    0.0000
     atom:    6    charge:   14.2787    magn:    2.6417    constr:    0.0000
     atom:    7    charge:   14.3527    magn:    2.4153    constr:    0.0000
     atom:    8    charge:   14.2790    magn:    2.6414    constr:    0.0000
     atom:    9    charge:   14.2656    magn:    2.6683    constr:    0.0000
     atom:   10    charge:   14.2656    magn:    2.6683    constr:    0.0000
     atom:   11    charge:   14.3392    magn:    2.4357    constr:    0.0000
     atom:   12    charge:   14.3393    magn:    2.4354    constr:    0.0000
     atom:   13    charge:   14.3528    magn:    2.4147    constr:    0.0000
     atom:   14    charge:   14.3528    magn:    2.4144    constr:    0.0000
     atom:   15    charge:   14.2790    magn:    2.6412    constr:    0.0000
     atom:   16    charge:   14.2789    magn:    2.6417    constr:    0.0000
     atom:   17    charge:   14.2655    magn:    2.6683    constr:    0.0000
     atom:   18    charge:   14.3395    magn:    2.4354    constr:    0.0000
     atom:   19    charge:   14.2655    magn:    2.6683    constr:    0.0000
     atom:   20    charge:   14.3391    magn:    2.4356    constr:    0.0000
     atom:   21    charge:   14.3527    magn:    2.4153    constr:    0.0000
     atom:   22    charge:   14.2793    magn:    2.6411    constr:    0.0000
     atom:   23    charge:   14.3527    magn:    2.4153    constr:    0.0000
     atom:   24    charge:   14.2789    magn:    2.6414    constr:    0.0000
     atom:   25    charge:   14.2654    magn:    2.6683    constr:    0.0000
     atom:   26    charge:   14.2653    magn:    2.6683    constr:    0.0000
     atom:   27    charge:   14.3393    magn:    2.4356    constr:    0.0000
     atom:   28    charge:   14.3392    magn:    2.4357    constr:    0.0000
     atom:   29    charge:   14.3529    magn:    2.4143    constr:    0.0000
     atom:   30    charge:   14.3527    magn:    2.4148    constr:    0.0000
     atom:   31    charge:   14.2786    magn:    2.6424    constr:    0.0000
     atom:   32    charge:   14.2790    magn:    2.6412    constr:    0.0000
     atom:   33    charge:   14.2655    magn:    2.6683    constr:    0.0000
     atom:   34    charge:   14.3395    magn:    2.4354    constr:    0.0000
     atom:   35    charge:   14.2655    magn:    2.6683    constr:    0.0000
     atom:   36    charge:   14.3391    magn:    2.4355    constr:    0.0000
     atom:   37    charge:   14.3528    magn:    2.4148    constr:    0.0000
     atom:   38    charge:   14.2793    magn:    2.6411    constr:    0.0000
     atom:   39    charge:   14.3528    magn:    2.4148    constr:    0.0000
     atom:   40    charge:   14.2786    magn:    2.6421    constr:    0.0000
     atom:   41    charge:   14.2653    magn:    2.6683    constr:    0.0000
     atom:   42    charge:   14.2654    magn:    2.6683    constr:    0.0000
     atom:   43    charge:   14.3393    magn:    2.4354    constr:    0.0000
     atom:   44    charge:   14.3392    magn:    2.4358    constr:    0.0000
     atom:   45    charge:   14.3528    magn:    2.4144    constr:    0.0000
     atom:   46    charge:   14.3526    magn:    2.4152    constr:    0.0000
     atom:   47    charge:   14.2789    magn:    2.6417    constr:    0.0000
     atom:   48    charge:   14.2791    magn:    2.6411    constr:    0.0000
     atom:   49    charge:   14.2654    magn:    2.6683    constr:    0.0000
     atom:   50    charge:   14.3393    magn:    2.4357    constr:    0.0000
     atom:   51    charge:   14.2655    magn:    2.6683    constr:    0.0000
     atom:   52    charge:   14.3394    magn:    2.4353    constr:    0.0000
     atom:   53    charge:   14.3527    magn:    2.4153    constr:    0.0000
     atom:   54    charge:   14.2793    magn:    2.6409    constr:    0.0000
     atom:   55    charge:   14.3528    magn:    2.4148    constr:    0.0000
     atom:   56    charge:   14.2790    magn:    2.6414    constr:    0.0000
     atom:   57    charge:   14.2656    magn:    2.6683    constr:    0.0000
     atom:   58    charge:   14.2656    magn:    2.6683    constr:    0.0000
     atom:   59    charge:   14.3392    magn:    2.4358    constr:    0.0000
     atom:   60    charge:   14.3393    magn:    2.4356    constr:    0.0000
     atom:   61    charge:   14.3528    magn:    2.4147    constr:    0.0000
     atom:   62    charge:   14.3528    magn:    2.4144    constr:    0.0000
     atom:   63    charge:   14.2791    magn:    2.6411    constr:    0.0000
     atom:   64    charge:   14.2787    magn:    2.6424    constr:    0.0000

     total cpu time spent up to now is    15996.6 secs

     End of self-consistent calculation

 ------ SPIN UP ------------


          k = 0.0000 0.0000 0.0000 (128403 PWs)   bands (ev):

   -90.9863 -90.9685 -90.9685 -90.9685 -90.9685 -90.9607 -90.9563 -90.9563
   -90.9506 -90.9506 -90.9506 -90.9505 -90.9425 -90.9423 -90.9419 -90.9418
   -90.9386 -90.9386 -90.9385 -90.9385 -90.9304 -90.9303 -90.9265 -90.9236
   -90.9236 -90.9235 -90.9233 -90.9122 -90.9120 -90.9117 -90.9115 -90.9002
   -90.8418 -90.8208 -90.8208 -90.8207 -90.8207 -90.8105 -90.8103 -90.8035
   -90.7954 -90.7954 -90.7947 -90.7946 -90.7931 -90.7930 -90.7929 -90.7928
   -90.7885 -90.7884 -90.7884 -90.7883 -90.7876 -90.7872 -90.7868 -90.7865
   -90.7791 -90.7769 -90.7766 -90.7673 -90.7672 -90.7671 -90.7671 -90.7501
   -57.1819 -57.1572 -57.1572 -57.1572 -57.1572 -57.1490 -57.1490 -57.1468
   -57.1454 -57.1454 -57.1373 -57.1373 -57.1297 -57.1296 -57.1296 -57.1296
   -57.1258 -57.1257 -57.1252 -57.1251 -57.1201 -57.1199 -57.1164 -57.1150
   -57.1149 -57.1078 -57.1050 -57.1048 -57.0980 -57.0979 -57.0974 -57.0974
   -57.0913 -57.0910 -57.0910 -57.0810 -57.0810 -57.0808 -57.0695 -57.0695
   -57.0695 -57.0695 -57.0532 -57.0531 -57.0531 -57.0531 -57.0245 -56.9934
   -56.9934 -56.9934 -56.9934 -56.9932 -56.9932 -56.9857 -56.9856 -56.9840
   -56.9834 -56.9833 -56.9833 -56.9833 -56.9768 -56.9768 -56.9734 -56.9716
   -56.9632 -56.9631 -56.9601 -56.9601 -56.9601 -56.9600 -56.9517 -56.9516
   -56.9516 -56.9515 -56.9465 -56.9465 -56.9398 -56.9398 -56.9273 -56.9273
   -56.9237 -56.9237 -56.9236 -56.9236 -56.9204 -56.9203 -56.9161 -56.9161
   -56.9136 -56.9077 -56.9077 -56.9077 -56.9077 -56.9037 -56.9036 -56.8981
   -56.8981 -56.8881 -56.8880 -56.8880 -56.8880 -56.8829 -56.8829 -56.8816
   -56.8652 -56.8652 -56.8629 -56.8629 -56.8629 -56.8628 -56.8573 -56.8573
   -56.8568 -56.8497 -56.8497 -56.8496 -56.8496 -56.8485 -56.8484 -56.8477
   -56.8431 -56.8431 -56.8354 -56.8335 -56.8335 -56.8333 -56.8333 -56.8333
   -56.8333 -56.8332 -56.8330 -56.8299 -56.8297 -56.8150 -56.8149 -56.8134
   -56.8134 -56.8134 -56.8134 -56.8106 -56.8003 -56.8003 -56.8002 -56.8002
   -56.7936 -56.7935 -56.7935 -56.7934 -56.7867 -56.7867 -56.7833 -56.7688
   -56.7686 -56.7662 -56.7661 -56.7660 -56.7660 -56.7625 -56.7518 -56.7516
   -56.7480 -56.7478 -56.7475 -56.7436 -56.7436 -56.7434 -56.7434 -56.7388
   -56.7386 -56.7345 -56.7295 -56.7294 -56.7293 -56.7293 -56.7253 -56.7250
   -56.7201 -56.7033 -56.7033 -56.7032 -56.7032 -56.6975 -56.6974 -56.6949
   -56.6948 -56.6940 -56.6919 -56.6919 -56.6919 -56.6918 -56.6888 -56.6843
   -10.7490  -9.5225  -9.0683  -9.0682  -9.0682  -9.0681  -8.5932  -8.5931
    -8.1320  -8.0851  -8.0851  -8.0850  -8.0850  -7.6611  -7.6487  -7.6487
    -7.4435  -7.4434  -7.4241  -7.4240  -7.4089  -7.3578  -7.3359  -7.2601
    -7.2600  -7.0126  -7.0126  -7.0125  -7.0124  -6.9669  -6.9245  -6.8629
    -6.8629  -6.8626  -6.8625  -6.8624  -6.8623  -6.8496  -6.8495  -6.8492
    -6.8492  -6.8455  -6.8455  -6.8404  -6.8401  -6.8030  -6.8029  -6.7849
    -6.7848  -6.7647  -6.7646  -6.7646  -6.7646  -6.7299  -6.6560  -6.6560
    -6.6560  -6.6559  -6.5804  -6.5803  -6.5803  -6.5802  -6.2999  -6.2999
    -6.2671  -6.2671  -6.2670  -6.2670  -6.1539  -6.1537  -6.1078  -6.1071
    -6.0956  -6.0956  -6.0817  -6.0816  -6.0720  -6.0718  -6.0717  -6.0716
    -6.0572  -6.0408  -6.0407  -6.0351  -6.0350  -6.0348  -6.0347  -6.0169
    -6.0169  -6.0081  -6.0081  -5.9878  -5.9877  -5.9877  -5.9876  -5.9547
    -5.9547  -5.9545  -5.9545  -5.9373  -5.9338  -5.9335  -5.9224  -5.9223
    -5.8952  -5.8952  -5.8951  -5.8949  -5.8192  -5.7518  -5.7516  -5.7152
    -5.7152  -5.7151  -5.7150  -5.6943  -5.6054  -5.6050  -5.5183  -5.5182
    -5.5092  -5.5091  -5.5089  -5.5088  -5.4772  -5.4753  -5.4752  -5.4319
    -5.4319  -5.4317  -5.4316  -5.4275  -5.4272  -5.3739  -5.3736  -5.3735
    -5.3734  -5.3712  -5.3710  -5.3709  -5.3709  -5.3377  -5.3372  -5.3139
    -5.2280  -5.2244  -5.2244  -5.2244  -5.2243  -5.2069  -5.2068  -5.2065
    -5.2064  -5.1798  -5.1560  -5.1378  -5.1373  -5.0868  -5.0867  -5.0701
    -5.0701  -5.0638  -5.0637  -5.0570  -5.0564  -5.0105  -4.9970  -4.9970
    -4.9969  -4.9968  -4.9697  -4.9694  -4.9692  -4.9692  -4.9457  -4.9456
    -4.9447  -4.9332  -4.9329  -4.9302  -4.9301  -4.8911  -4.8909  -4.8907
    -4.8906  -4.8061  -4.8059  -4.6908  -4.6908  -4.5400  -4.5400  -4.4033
    -4.4033  -4.4032  -4.4032  -4.3987  -4.3985  -4.3831  -4.3771  -4.3565
    -4.3564  -4.3560  -4.3560  -4.3319  -4.3140  -4.3138  -4.2813  -4.2810
    -4.2335  -4.2334  -4.2333  -4.2333  -4.2027  -4.2024  -4.1909  -4.1908
    -4.1905  -4.1904  -4.1793  -4.1790  -4.1760  -4.1238  -4.1173  -4.1173
    -4.0945  -4.0944  -4.0943  -4.0942  -4.0537  -4.0536  -4.0534  -4.0534
    -4.0525  -4.0525  -4.0466  -4.0465  -4.0327  -4.0099  -3.9981  -3.9981
    -3.9980  -3.9979  -3.9749  -3.9748  -3.9713  -3.9698  -3.9697  -3.9696
    -3.9695  -3.9694  -3.9693  -3.9564  -3.9469  -3.9467  -3.9465  -3.9463
    -3.9457  -3.9451  -3.9421  -3.9238  -3.9237  -3.9237  -3.9047  -3.9044
    -3.9044  -3.9043  -3.8610  -3.8601  -3.8601  -3.8589  -3.8588  -3.8553
    -3.8552  -3.8490  -3.8487  -3.8486  -3.8486  -3.8334  -3.8037  -3.8036
    -3.8035  -3.8033  -3.7463  -3.7412  -3.7412  -3.7411  -3.7411  -3.7173
    -3.7170  -3.7052  -3.7052  -3.5899  -3.5898  -3.5827  -3.5827  -3.5826
    -3.5825  -3.5585  -3.5584  -3.5540  -3.5540  -3.5538  -3.5537  -3.5475
    -3.5198  -3.5197  -3.5197  -3.5195  -3.4955  -3.4954  -3.4925  -3.4923
    -3.4727  -3.3986  -3.3985  -3.1140  -3.0907  -3.0624  -3.0624  -3.0453
    -3.0451  -2.9723  -2.9721  -2.9720  -2.9720  -2.9005  -2.8999  -2.8333
    -2.8332  -2.8331  -2.8331  -2.7691  -2.7688  -2.7686  -2.7686  -2.7529
    -2.7394  -2.7151  -2.6120  -2.5441  -2.5441  -2.5076  -2.4388  -2.4323
    -2.4322  -1.8211  -1.8210  -1.7859  -1.7859  -1.7714  -1.7712  -1.6110
    -0.8641  -0.8640  -0.8533  -0.8532  -0.8133  -0.8132

          k = 0.0000 0.2652 0.0000 (128375 PWs)   bands (ev):

   -90.9850 -90.9753 -90.9684 -90.9662 -90.9618 -90.9616 -90.9593 -90.9566
   -90.9519 -90.9504 -90.9496 -90.9492 -90.9451 -90.9431 -90.9423 -90.9408
   -90.9397 -90.9385 -90.9359 -90.9350 -90.9340 -90.9297 -90.9274 -90.9250
   -90.9243 -90.9226 -90.9181 -90.9163 -90.9143 -90.9117 -90.9074 -90.9011
   -90.8402 -90.8290 -90.8217 -90.8171 -90.8160 -90.8120 -90.8040 -90.8034
   -90.8027 -90.7975 -90.7967 -90.7946 -90.7934 -90.7923 -90.7915 -90.7907
   -90.7900 -90.7896 -90.7893 -90.7870 -90.7864 -90.7854 -90.7850 -90.7820
   -90.7818 -90.7798 -90.7742 -90.7719 -90.7703 -90.7665 -90.7606 -90.7514
   -57.1798 -57.1655 -57.1586 -57.1545 -57.1538 -57.1506 -57.1457 -57.1453
   -57.1443 -57.1431 -57.1423 -57.1356 -57.1337 -57.1329 -57.1315 -57.1293
   -57.1269 -57.1241 -57.1213 -57.1209 -57.1184 -57.1177 -57.1176 -57.1173
   -57.1099 -57.1087 -57.1043 -57.1014 -57.1009 -57.0997 -57.0970 -57.0916
   -57.0895 -57.0859 -57.0832 -57.0811 -57.0782 -57.0767 -57.0716 -57.0711
   -57.0646 -57.0614 -57.0565 -57.0538 -57.0493 -57.0395 -57.0230 -57.0188
   -57.0121 -57.0034 -57.0028 -57.0007 -56.9955 -56.9929 -56.9879 -56.9871
   -56.9837 -56.9836 -56.9835 -56.9773 -56.9750 -56.9731 -56.9718 -56.9700
   -56.9692 -56.9691 -56.9672 -56.9619 -56.9603 -56.9595 -56.9570 -56.9567
   -56.9544 -56.9523 -56.9520 -56.9500 -56.9439 -56.9421 -56.9387 -56.9317
   -56.9307 -56.9293 -56.9237 -56.9218 -56.9191 -56.9171 -56.9163 -56.9145
   -56.9053 -56.9045 -56.9039 -56.9008 -56.8973 -56.8970 -56.8957 -56.8934
   -56.8926 -56.8900 -56.8893 -56.8872 -56.8855 -56.8813 -56.8784 -56.8716
   -56.8706 -56.8688 -56.8682 -56.8629 -56.8622 -56.8617 -56.8601 -56.8598
   -56.8590 -56.8583 -56.8580 -56.8524 -56.8520 -56.8513 -56.8486 -56.8475
   -56.8438 -56.8407 -56.8380 -56.8370 -56.8317 -56.8299 -56.8296 -56.8295
   -56.8265 -56.8265 -56.8233 -56.8204 -56.8189 -56.8170 -56.8164 -56.8160
   -56.8101 -56.8084 -56.8071 -56.8060 -56.8025 -56.8016 -56.7957 -56.7931
   -56.7926 -56.7916 -56.7896 -56.7890 -56.7877 -56.7840 -56.7833 -56.7718
   -56.7688 -56.7668 -56.7662 -56.7632 -56.7626 -56.7600 -56.7573 -56.7562
   -56.7538 -56.7518 -56.7465 -56.7437 -56.7436 -56.7401 -56.7341 -56.7318
   -56.7309 -56.7288 -56.7277 -56.7267 -56.7266 -56.7261 -56.7259 -56.7244
   -56.7209 -56.7118 -56.7070 -56.7065 -56.7036 -56.7030 -56.7015 -56.7006
   -56.7004 -56.6978 -56.6956 -56.6955 -56.6947 -56.6931 -56.6903 -56.6866
   -10.6326  -9.7516  -9.4119  -9.2137  -8.9550  -8.7426  -8.6145  -8.3460
    -8.1836  -8.1312  -8.0287  -7.9296  -7.8317  -7.7381  -7.6810  -7.5770
    -7.4845  -7.4397  -7.3840  -7.3634  -7.3573  -7.3407  -7.3361  -7.3056
    -7.2913  -7.1550  -7.0813  -7.0541  -7.0098  -7.0086  -6.9966  -6.9752
    -6.9696  -6.9644  -6.9510  -6.9438  -6.9385  -6.9159  -6.9074  -6.9016
    -6.8767  -6.8661  -6.8519  -6.8290  -6.8282  -6.8104  -6.7887  -6.7845
    -6.7631  -6.7461  -6.7222  -6.7099  -6.6924  -6.6910  -6.6836  -6.6776
    -6.6564  -6.5603  -6.5322  -6.5181  -6.5104  -6.4880  -6.4673  -6.3815
    -6.3511  -6.3267  -6.2739  -6.2614  -6.2121  -6.2041  -6.1622  -6.1170
    -6.1077  -6.1028  -6.0921  -6.0821  -6.0809  -6.0690  -6.0535  -6.0495
    -6.0433  -6.0376  -6.0358  -6.0316  -6.0101  -6.0049  -6.0033  -6.0013
    -5.9953  -5.9870  -5.9720  -5.9622  -5.9612  -5.9557  -5.9522  -5.9505
    -5.9491  -5.9433  -5.9380  -5.9378  -5.9012  -5.8748  -5.8573  -5.8550
    -5.8480  -5.8425  -5.8206  -5.8141  -5.8085  -5.7905  -5.7845  -5.7823
    -5.7024  -5.6980  -5.6783  -5.6421  -5.6164  -5.6120  -5.6074  -5.5942
    -5.5829  -5.5100  -5.5098  -5.4945  -5.4865  -5.4827  -5.4721  -5.4718
    -5.4685  -5.4671  -5.4502  -5.4499  -5.4347  -5.4164  -5.4000  -5.3998
    -5.3937  -5.3883  -5.3593  -5.3535  -5.3441  -5.3030  -5.2967  -5.2686
    -5.2655  -5.2484  -5.2433  -5.2255  -5.2133  -5.2108  -5.2101  -5.2025
    -5.1919  -5.1916  -5.1844  -5.1724  -5.1669  -5.1578  -5.1497  -5.1441
    -5.1403  -5.1204  -5.0987  -5.0873  -5.0535  -5.0332  -5.0283  -5.0091
    -4.9956  -4.9855  -4.9673  -4.9566  -4.9547  -4.9457  -4.9358  -4.9264
    -4.9138  -4.8692  -4.8625  -4.8273  -4.8231  -4.8161  -4.7865  -4.7546
    -4.7354  -4.7345  -4.7135  -4.6527  -4.5373  -4.5259  -4.5237  -4.4821
    -4.4775  -4.4584  -4.4443  -4.4244  -4.3980  -4.3938  -4.3890  -4.3657
    -4.3593  -4.3571  -4.3399  -4.3355  -4.3346  -4.3288  -4.3179  -4.3135
    -4.2846  -4.2760  -4.2511  -4.2169  -4.2089  -4.1964  -4.1909  -4.1872
    -4.1868  -4.1805  -4.1600  -4.1584  -4.1583  -4.1544  -4.1538  -4.1411
    -4.1311  -4.1293  -4.0964  -4.0860  -4.0778  -4.0701  -4.0599  -4.0500
    -4.0387  -4.0379  -4.0327  -4.0266  -4.0249  -4.0170  -4.0112  -4.0103
    -4.0073  -3.9952  -3.9892  -3.9870  -3.9838  -3.9753  -3.9732  -3.9589
    -3.9495  -3.9415  -3.9401  -3.9320  -3.9301  -3.9255  -3.9218  -3.9199
    -3.9159  -3.9153  -3.9116  -3.9090  -3.8911  -3.8892  -3.8844  -3.8792
    -3.8683  -3.8606  -3.8593  -3.8537  -3.8536  -3.8451  -3.8443  -3.8430
    -3.8391  -3.8199  -3.8155  -3.8020  -3.7908  -3.7899  -3.7833  -3.7614
    -3.7367  -3.7305  -3.7154  -3.6990  -3.6957  -3.6935  -3.6870  -3.6748
    -3.6689  -3.6645  -3.6552  -3.6523  -3.6520  -3.6515  -3.6291  -3.5983
    -3.5795  -3.5761  -3.5718  -3.5708  -3.5685  -3.5490  -3.5428  -3.5344
    -3.5287  -3.5239  -3.5173  -3.5021  -3.4846  -3.4206  -3.3853  -3.3842
    -3.3807  -3.1723  -3.1567  -3.1462  -3.1267  -3.1144  -3.1020  -3.0849
    -3.0760  -3.0732  -3.0720  -2.9938  -2.9885  -2.9863  -2.9673  -2.9661
    -2.9539  -2.9452  -2.9415  -2.9074  -2.9047  -2.8979  -2.8611  -2.8563
    -2.8396  -2.7722  -2.7424  -2.7138  -2.6542  -2.6034  -2.4130  -2.3492
    -2.1246  -1.9614  -1.9589  -1.8567  -1.7008  -1.6907  -1.5352  -1.5310
    -1.4399  -1.3962  -1.3391  -1.1667  -0.9649  -0.8520

          k = 0.0000-0.5303 0.0000 (128388 PWs)   bands (ev):

   -90.9811 -90.9811 -90.9661 -90.9661 -90.9621 -90.9621 -90.9558 -90.9558
   -90.9553 -90.9552 -90.9470 -90.9470 -90.9450 -90.9450 -90.9408 -90.9408
   -90.9402 -90.9399 -90.9354 -90.9352 -90.9301 -90.9300 -90.9290 -90.9290
   -90.9202 -90.9201 -90.9187 -90.9186 -90.9140 -90.9137 -90.9036 -90.9036
   -90.8358 -90.8358 -90.8200 -90.8200 -90.8111 -90.8110 -90.8039 -90.8038
   -90.8003 -90.8002 -90.7978 -90.7977 -90.7937 -90.7937 -90.7924 -90.7923
   -90.7875 -90.7874 -90.7869 -90.7868 -90.7866 -90.7865 -90.7819 -90.7819
   -90.7806 -90.7806 -90.7757 -90.7756 -90.7682 -90.7682 -90.7551 -90.7550
   -57.1738 -57.1738 -57.1578 -57.1578 -57.1489 -57.1489 -57.1470 -57.1470
   -57.1409 -57.1409 -57.1407 -57.1406 -57.1359 -57.1359 -57.1302 -57.1302
   -57.1254 -57.1251 -57.1199 -57.1199 -57.1159 -57.1156 -57.1154 -57.1154
   -57.1115 -57.1115 -57.1034 -57.1031 -57.0983 -57.0980 -57.0871 -57.0870
   -57.0854 -57.0853 -57.0847 -57.0847 -57.0710 -57.0709 -57.0682 -57.0682
   -57.0593 -57.0593 -57.0432 -57.0432 -57.0429 -57.0428 -57.0299 -57.0297
   -57.0275 -57.0275 -57.0102 -57.0100 -57.0079 -57.0079 -56.9969 -56.9969
   -56.9805 -56.9805 -56.9791 -56.9791 -56.9725 -56.9725 -56.9716 -56.9715
   -56.9679 -56.9679 -56.9595 -56.9595 -56.9591 -56.9591 -56.9526 -56.9526
   -56.9504 -56.9503 -56.9495 -56.9495 -56.9448 -56.9448 -56.9377 -56.9377
   -56.9369 -56.9369 -56.9327 -56.9326 -56.9284 -56.9284 -56.9273 -56.9272
   -56.9154 -56.9154 -56.9048 -56.9048 -56.8913 -56.8913 -56.8881 -56.8880
   -56.8864 -56.8863 -56.8777 -56.8777 -56.8741 -56.8741 -56.8695 -56.8695
   -56.8653 -56.8652 -56.8606 -56.8606 -56.8606 -56.8606 -56.8588 -56.8588
   -56.8556 -56.8555 -56.8533 -56.8533 -56.8510 -56.8510 -56.8470 -56.8470
   -56.8440 -56.8440 -56.8411 -56.8411 -56.8373 -56.8373 -56.8365 -56.8363
   -56.8231 -56.8231 -56.8217 -56.8216 -56.8215 -56.8215 -56.8104 -56.8103
   -56.8057 -56.8055 -56.8017 -56.8017 -56.7977 -56.7976 -56.7913 -56.7912
   -56.7901 -56.7901 -56.7874 -56.7874 -56.7810 -56.7809 -56.7808 -56.7808
   -56.7772 -56.7772 -56.7633 -56.7632 -56.7616 -56.7616 -56.7572 -56.7572
   -56.7509 -56.7508 -56.7398 -56.7397 -56.7260 -56.7259 -56.7258 -56.7257
   -56.7246 -56.7245 -56.7239 -56.7238 -56.7233 -56.7233 -56.7210 -56.7210
   -56.7204 -56.7203 -56.7171 -56.7170 -56.7170 -56.7169 -56.7117 -56.7116
   -56.7075 -56.7074 -56.6987 -56.6987 -56.6941 -56.6940 -56.6886 -56.6886
   -10.2913 -10.2912  -9.1718  -9.1717  -9.0932  -9.0931  -8.2730  -8.2730
    -8.1235  -8.1235  -7.7610  -7.7609  -7.7381  -7.7379  -7.6289  -7.6288
    -7.4950  -7.4950  -7.4657  -7.4656  -7.3394  -7.3393  -7.2218  -7.2217
    -7.2107  -7.2107  -7.1957  -7.1957  -7.1634  -7.1633  -7.1542  -7.1542
    -7.0668  -7.0667  -7.0037  -7.0036  -6.9932  -6.9931  -6.8415  -6.8414
    -6.8333  -6.8333  -6.7647  -6.7646  -6.7546  -6.7545  -6.7369  -6.7369
    -6.7323  -6.7321  -6.7103  -6.7102  -6.7090  -6.7090  -6.5951  -6.5951
    -6.5933  -6.5933  -6.5696  -6.5695  -6.5651  -6.5651  -6.4639  -6.4638
    -6.3979  -6.3978  -6.3555  -6.3554  -6.2824  -6.2823  -6.1356  -6.1355
    -6.1012  -6.1012  -6.0744  -6.0743  -6.0602  -6.0601  -6.0513  -6.0511
    -6.0323  -6.0322  -6.0230  -6.0227  -6.0158  -6.0154  -5.9893  -5.9892
    -5.9888  -5.9887  -5.9857  -5.9854  -5.9447  -5.9447  -5.8943  -5.8942
    -5.8582  -5.8582  -5.8490  -5.8489  -5.8209  -5.8208  -5.8027  -5.8027
    -5.7918  -5.7915  -5.7898  -5.7897  -5.7895  -5.7895  -5.7789  -5.7788
    -5.7312  -5.7311  -5.7278  -5.7276  -5.7213  -5.7211  -5.5719  -5.5716
    -5.5238  -5.5236  -5.4724  -5.4723  -5.4721  -5.4720  -5.4574  -5.4574
    -5.4490  -5.4490  -5.4424  -5.4423  -5.4374  -5.4373  -5.4253  -5.4253
    -5.4118  -5.4117  -5.3810  -5.3809  -5.3775  -5.3774  -5.3696  -5.3694
    -5.3172  -5.3171  -5.3065  -5.3063  -5.2854  -5.2853  -5.2438  -5.2438
    -5.2428  -5.2425  -5.2300  -5.2297  -5.1862  -5.1860  -5.1547  -5.1544
    -5.1270  -5.1270  -5.1049  -5.1049  -4.9962  -4.9961  -4.9762  -4.9761
    -4.9683  -4.9682  -4.9383  -4.9380  -4.9361  -4.9359  -4.9067  -4.9065
    -4.8003  -4.8002  -4.6625  -4.6624  -4.6593  -4.6592  -4.6459  -4.6458
    -4.5987  -4.5986  -4.5873  -4.5873  -4.5103  -4.5102  -4.4945  -4.4944
    -4.4736  -4.4735  -4.4701  -4.4701  -4.4665  -4.4664  -4.4431  -4.4431
    -4.4334  -4.4331  -4.4164  -4.4163  -4.3299  -4.3298  -4.2986  -4.2984
    -4.2976  -4.2974  -4.2875  -4.2874  -4.2577  -4.2576  -4.1693  -4.1690
    -4.1627  -4.1625  -4.1601  -4.1598  -4.1479  -4.1479  -4.1479  -4.1477
    -4.1435  -4.1433  -4.1383  -4.1383  -4.1149  -4.1148  -4.1132  -4.1131
    -4.1058  -4.1055  -4.1026  -4.1024  -4.0231  -4.0229  -3.9840  -3.9838
    -3.9831  -3.9829  -3.9813  -3.9812  -3.9567  -3.9567  -3.9472  -3.9470
    -3.9443  -3.9443  -3.9372  -3.9372  -3.9306  -3.9303  -3.9215  -3.9214
    -3.9063  -3.9059  -3.9016  -3.9014  -3.8672  -3.8671  -3.8550  -3.8550
    -3.8451  -3.8450  -3.8003  -3.8003  -3.7902  -3.7900  -3.7861  -3.7861
    -3.7525  -3.7524  -3.7341  -3.7339  -3.7042  -3.7042  -3.7005  -3.7005
    -3.6994  -3.6994  -3.6844  -3.6843  -3.6824  -3.6823  -3.6800  -3.6798
    -3.6766  -3.6766  -3.6701  -3.6701  -3.6657  -3.6656  -3.6596  -3.6596
    -3.5995  -3.5994  -3.5689  -3.5687  -3.4997  -3.4996  -3.4514  -3.4514
    -3.4083  -3.4079  -3.4022  -3.4022  -3.2814  -3.2814  -3.2791  -3.2790
    -3.2530  -3.2529  -3.2000  -3.2000  -3.1951  -3.1950  -3.1794  -3.1794
    -3.1507  -3.1505  -3.1247  -3.1246  -3.1100  -3.1099  -3.0238  -3.0237
    -2.9945  -2.9943  -2.9550  -2.9549  -2.9203  -2.9203  -2.9084  -2.9083
    -2.8823  -2.8822  -2.8704  -2.8703  -2.8439  -2.8438  -2.5274  -2.5273
    -2.3807  -2.3806  -1.8771  -1.8771  -1.8590  -1.8588  -1.2314  -1.2312
    -1.0731  -1.0729  -1.0198  -1.0196  -0.9613  -0.9613

          k = 0.2500-0.0884 0.0000 (128371 PWs)   bands (ev):

   -90.9850 -90.9753 -90.9684 -90.9662 -90.9618 -90.9616 -90.9593 -90.9566
   -90.9519 -90.9504 -90.9496 -90.9492 -90.9451 -90.9431 -90.9423 -90.9408
   -90.9397 -90.9385 -90.9359 -90.9350 -90.9340 -90.9297 -90.9274 -90.9251
   -90.9243 -90.9226 -90.9181 -90.9163 -90.9143 -90.9117 -90.9074 -90.9011
   -90.8402 -90.8290 -90.8217 -90.8171 -90.8160 -90.8120 -90.8040 -90.8034
   -90.8027 -90.7975 -90.7967 -90.7946 -90.7934 -90.7923 -90.7915 -90.7907
   -90.7900 -90.7896 -90.7893 -90.7870 -90.7864 -90.7854 -90.7850 -90.7820
   -90.7818 -90.7798 -90.7742 -90.7719 -90.7703 -90.7665 -90.7606 -90.7514
   -57.1798 -57.1655 -57.1586 -57.1545 -57.1538 -57.1506 -57.1457 -57.1453
   -57.1443 -57.1431 -57.1423 -57.1356 -57.1337 -57.1329 -57.1315 -57.1293
   -57.1269 -57.1241 -57.1213 -57.1209 -57.1184 -57.1177 -57.1176 -57.1173
   -57.1099 -57.1087 -57.1043 -57.1014 -57.1009 -57.0997 -57.0970 -57.0916
   -57.0895 -57.0859 -57.0832 -57.0811 -57.0782 -57.0767 -57.0716 -57.0711
   -57.0646 -57.0614 -57.0565 -57.0538 -57.0493 -57.0395 -57.0230 -57.0188
   -57.0121 -57.0034 -57.0028 -57.0007 -56.9955 -56.9929 -56.9879 -56.9871
   -56.9837 -56.9836 -56.9835 -56.9773 -56.9750 -56.9731 -56.9718 -56.9700
   -56.9692 -56.9691 -56.9672 -56.9619 -56.9603 -56.9595 -56.9570 -56.9567
   -56.9544 -56.9523 -56.9520 -56.9500 -56.9439 -56.9421 -56.9387 -56.9317
   -56.9307 -56.9293 -56.9237 -56.9218 -56.9191 -56.9171 -56.9163 -56.9145
   -56.9053 -56.9045 -56.9039 -56.9008 -56.8973 -56.8970 -56.8957 -56.8934
   -56.8926 -56.8900 -56.8893 -56.8872 -56.8855 -56.8813 -56.8784 -56.8716
   -56.8706 -56.8688 -56.8682 -56.8629 -56.8622 -56.8617 -56.8600 -56.8598
   -56.8590 -56.8583 -56.8580 -56.8524 -56.8520 -56.8513 -56.8486 -56.8475
   -56.8438 -56.8407 -56.8380 -56.8370 -56.8317 -56.8299 -56.8296 -56.8295
   -56.8265 -56.8265 -56.8233 -56.8204 -56.8189 -56.8170 -56.8164 -56.8160
   -56.8101 -56.8084 -56.8071 -56.8060 -56.8025 -56.8016 -56.7957 -56.7931
   -56.7926 -56.7916 -56.7896 -56.7890 -56.7877 -56.7840 -56.7833 -56.7718
   -56.7687 -56.7668 -56.7662 -56.7632 -56.7626 -56.7600 -56.7573 -56.7562
   -56.7538 -56.7518 -56.7465 -56.7437 -56.7436 -56.7401 -56.7341 -56.7318
   -56.7309 -56.7288 -56.7277 -56.7267 -56.7266 -56.7261 -56.7259 -56.7244
   -56.7209 -56.7118 -56.7070 -56.7065 -56.7036 -56.7030 -56.7015 -56.7006
   -56.7004 -56.6978 -56.6956 -56.6955 -56.6947 -56.6931 -56.6903 -56.6866
   -10.6326  -9.7516  -9.4119  -9.2137  -8.9550  -8.7425  -8.6145  -8.3460
    -8.1836  -8.1312  -8.0287  -7.9296  -7.8317  -7.7381  -7.6811  -7.5770
    -7.4845  -7.4397  -7.3840  -7.3634  -7.3573  -7.3407  -7.3361  -7.3056
    -7.2913  -7.1550  -7.0813  -7.0541  -7.0098  -7.0086  -6.9966  -6.9752
    -6.9696  -6.9644  -6.9510  -6.9438  -6.9385  -6.9159  -6.9074  -6.9016
    -6.8767  -6.8661  -6.8519  -6.8290  -6.8282  -6.8104  -6.7887  -6.7845
    -6.7631  -6.7460  -6.7222  -6.7099  -6.6924  -6.6910  -6.6836  -6.6776
    -6.6564  -6.5603  -6.5322  -6.5181  -6.5104  -6.4880  -6.4673  -6.3815
    -6.3511  -6.3267  -6.2739  -6.2613  -6.2121  -6.2041  -6.1622  -6.1170
    -6.1077  -6.1028  -6.0921  -6.0821  -6.0809  -6.0690  -6.0535  -6.0495
    -6.0433  -6.0376  -6.0358  -6.0316  -6.0101  -6.0049  -6.0033  -6.0013
    -5.9953  -5.9870  -5.9720  -5.9622  -5.9612  -5.9557  -5.9522  -5.9505
    -5.9491  -5.9433  -5.9380  -5.9379  -5.9012  -5.8748  -5.8573  -5.8551
    -5.8480  -5.8425  -5.8206  -5.8141  -5.8085  -5.7905  -5.7845  -5.7823
    -5.7024  -5.6980  -5.6783  -5.6421  -5.6164  -5.6120  -5.6074  -5.5942
    -5.5829  -5.5100  -5.5098  -5.4945  -5.4865  -5.4826  -5.4721  -5.4718
    -5.4685  -5.4671  -5.4502  -5.4499  -5.4347  -5.4164  -5.4000  -5.3998
    -5.3937  -5.3883  -5.3593  -5.3535  -5.3441  -5.3030  -5.2967  -5.2686
    -5.2655  -5.2484  -5.2433  -5.2255  -5.2133  -5.2108  -5.2101  -5.2024
    -5.1919  -5.1916  -5.1844  -5.1724  -5.1669  -5.1578  -5.1497  -5.1441
    -5.1403  -5.1204  -5.0987  -5.0873  -5.0535  -5.0332  -5.0283  -5.0091
    -4.9956  -4.9855  -4.9673  -4.9566  -4.9547  -4.9457  -4.9358  -4.9264
    -4.9138  -4.8692  -4.8625  -4.8273  -4.8231  -4.8161  -4.7865  -4.7546
    -4.7354  -4.7345  -4.7135  -4.6527  -4.5373  -4.5259  -4.5237  -4.4821
    -4.4775  -4.4583  -4.4443  -4.4244  -4.3980  -4.3938  -4.3890  -4.3657
    -4.3593  -4.3571  -4.3399  -4.3355  -4.3346  -4.3288  -4.3179  -4.3135
    -4.2846  -4.2760  -4.2511  -4.2169  -4.2089  -4.1964  -4.1910  -4.1872
    -4.1868  -4.1805  -4.1600  -4.1584  -4.1583  -4.1544  -4.1538  -4.1411
    -4.1311  -4.1293  -4.0964  -4.0860  -4.0778  -4.0701  -4.0599  -4.0500
    -4.0387  -4.0379  -4.0327  -4.0266  -4.0249  -4.0170  -4.0112  -4.0103
    -4.0073  -3.9952  -3.9892  -3.9870  -3.9838  -3.9753  -3.9732  -3.9589
    -3.9495  -3.9415  -3.9401  -3.9320  -3.9301  -3.9255  -3.9218  -3.9199
    -3.9159  -3.9153  -3.9116  -3.9090  -3.8911  -3.8892  -3.8844  -3.8792
    -3.8683  -3.8606  -3.8593  -3.8537  -3.8536  -3.8451  -3.8443  -3.8430
    -3.8391  -3.8199  -3.8156  -3.8020  -3.7908  -3.7899  -3.7833  -3.7614
    -3.7367  -3.7305  -3.7154  -3.6990  -3.6957  -3.6935  -3.6870  -3.6748
    -3.6689  -3.6645  -3.6552  -3.6523  -3.6520  -3.6515  -3.6291  -3.5983
    -3.5795  -3.5761  -3.5719  -3.5708  -3.5685  -3.5490  -3.5428  -3.5344
    -3.5287  -3.5239  -3.5173  -3.5021  -3.4846  -3.4206  -3.3853  -3.3842
    -3.3807  -3.1723  -3.1567  -3.1462  -3.1267  -3.1144  -3.1020  -3.0849
    -3.0760  -3.0732  -3.0720  -2.9938  -2.9885  -2.9863  -2.9673  -2.9661
    -2.9539  -2.9452  -2.9415  -2.9074  -2.9047  -2.8979  -2.8611  -2.8563
    -2.8395  -2.7722  -2.7424  -2.7138  -2.6542  -2.6034  -2.4130  -2.3492
    -2.1246  -1.9614  -1.9589  -1.8567  -1.7008  -1.6907  -1.5352  -1.5310
    -1.4400  -1.3962  -1.3391  -1.1929  -1.1667  -0.9648

          k = 0.2500 0.1768 0.0000 (128340 PWs)   bands (ev):

   -90.9840 -90.9731 -90.9731 -90.9678 -90.9615 -90.9615 -90.9583 -90.9506
   -90.9506 -90.9506 -90.9506 -90.9470 -90.9466 -90.9454 -90.9454 -90.9450
   -90.9419 -90.9354 -90.9349 -90.9339 -90.9339 -90.9288 -90.9237 -90.9237
   -90.9236 -90.9234 -90.9191 -90.9187 -90.9185 -90.9074 -90.9069 -90.9025
   -90.8394 -90.8257 -90.8256 -90.8223 -90.8133 -90.8132 -90.8014 -90.7984
   -90.7970 -90.7968 -90.7959 -90.7958 -90.7953 -90.7953 -90.7948 -90.7947
   -90.7875 -90.7872 -90.7871 -90.7870 -90.7869 -90.7869 -90.7866 -90.7834
   -90.7833 -90.7815 -90.7731 -90.7730 -90.7666 -90.7633 -90.7631 -90.7522
   -57.1794 -57.1614 -57.1613 -57.1613 -57.1512 -57.1511 -57.1444 -57.1441
   -57.1440 -57.1384 -57.1383 -57.1369 -57.1368 -57.1368 -57.1298 -57.1293
   -57.1273 -57.1236 -57.1236 -57.1198 -57.1193 -57.1192 -57.1174 -57.1172
   -57.1068 -57.1066 -57.1056 -57.1050 -57.1026 -57.0952 -57.0907 -57.0902
   -57.0854 -57.0821 -57.0821 -57.0769 -57.0719 -57.0719 -57.0640 -57.0640
   -57.0624 -57.0624 -57.0470 -57.0468 -57.0465 -57.0465 -57.0196 -57.0196
   -57.0129 -57.0126 -57.0126 -57.0104 -57.0104 -57.0076 -57.0021 -57.0020
   -56.9916 -56.9915 -56.9891 -56.9789 -56.9756 -56.9756 -56.9727 -56.9726
   -56.9692 -56.9692 -56.9664 -56.9636 -56.9636 -56.9629 -56.9568 -56.9568
   -56.9567 -56.9567 -56.9501 -56.9500 -56.9421 -56.9335 -56.9335 -56.9334
   -56.9297 -56.9243 -56.9243 -56.9175 -56.9175 -56.9173 -56.9173 -56.9144
   -56.9143 -56.9121 -56.9053 -56.8993 -56.8992 -56.8928 -56.8928 -56.8899
   -56.8880 -56.8845 -56.8845 -56.8806 -56.8797 -56.8797 -56.8775 -56.8765
   -56.8721 -56.8720 -56.8693 -56.8693 -56.8658 -56.8632 -56.8631 -56.8620
   -56.8606 -56.8605 -56.8585 -56.8529 -56.8501 -56.8500 -56.8406 -56.8405
   -56.8384 -56.8383 -56.8366 -56.8365 -56.8310 -56.8310 -56.8298 -56.8297
   -56.8260 -56.8259 -56.8192 -56.8192 -56.8181 -56.8181 -56.8144 -56.8143
   -56.8060 -56.8009 -56.8009 -56.7992 -56.7989 -56.7957 -56.7946 -56.7945
   -56.7943 -56.7915 -56.7914 -56.7893 -56.7802 -56.7787 -56.7786 -56.7752
   -56.7749 -56.7747 -56.7718 -56.7638 -56.7638 -56.7530 -56.7501 -56.7499
   -56.7429 -56.7428 -56.7427 -56.7426 -56.7410 -56.7408 -56.7341 -56.7340
   -56.7339 -56.7312 -56.7310 -56.7267 -56.7253 -56.7252 -56.7234 -56.7233
   -56.7205 -56.7083 -56.7082 -56.7072 -56.7072 -56.7059 -56.7044 -56.7043
   -56.7023 -56.7023 -56.7022 -56.7021 -56.7001 -56.6974 -56.6974 -56.6891
   -10.5933  -9.4432  -9.4431  -9.4345  -9.3754  -8.4893  -8.4893  -8.3375
    -8.3373  -8.3222  -8.0018  -7.8576  -7.7263  -7.7263  -7.5587  -7.4118
    -7.4011  -7.4011  -7.3675  -7.3674  -7.2928  -7.2790  -7.2738  -7.2737
    -7.1813  -7.1730  -7.1730  -7.1601  -7.0794  -7.0794  -7.0413  -7.0413
    -6.9565  -6.9522  -6.9521  -6.9302  -6.9139  -6.8972  -6.8933  -6.8932
    -6.8857  -6.8825  -6.8825  -6.8763  -6.8761  -6.8733  -6.8730  -6.8009
    -6.8009  -6.7884  -6.7882  -6.7165  -6.7164  -6.7038  -6.7036  -6.6577
    -6.5327  -6.5326  -6.5084  -6.5082  -6.4450  -6.4110  -6.4109  -6.4046
    -6.4045  -6.3813  -6.3812  -6.2349  -6.2348  -6.1960  -6.1960  -6.1270
    -6.1270  -6.1260  -6.1092  -6.1089  -6.0982  -6.0979  -6.0889  -6.0888
    -6.0879  -6.0878  -6.0771  -6.0769  -6.0666  -6.0666  -6.0292  -6.0291
    -5.9662  -5.9661  -5.9626  -5.9553  -5.9550  -5.9029  -5.8965  -5.8963
    -5.8961  -5.8961  -5.8842  -5.8842  -5.8683  -5.8682  -5.8411  -5.8410
    -5.7973  -5.7971  -5.7556  -5.7499  -5.7497  -5.7305  -5.7128  -5.7063
    -5.6911  -5.6910  -5.6809  -5.6806  -5.6759  -5.6757  -5.6681  -5.6680
    -5.6540  -5.5889  -5.5888  -5.5677  -5.5677  -5.4882  -5.4881  -5.4784
    -5.4783  -5.4746  -5.4744  -5.4571  -5.4569  -5.4197  -5.4196  -5.4018
    -5.4017  -5.3973  -5.3733  -5.3710  -5.3709  -5.3339  -5.3339  -5.3194
    -5.3194  -5.3166  -5.2918  -5.2548  -5.2259  -5.2080  -5.2080  -5.2013
    -5.1942  -5.1913  -5.1913  -5.1764  -5.1763  -5.1057  -5.0828  -5.0827
    -5.0757  -5.0748  -5.0748  -5.0601  -5.0600  -5.0534  -5.0497  -5.0495
    -5.0474  -5.0429  -5.0428  -5.0280  -5.0278  -5.0188  -4.9873  -4.9778
    -4.9134  -4.9133  -4.7878  -4.7497  -4.7326  -4.7322  -4.7217  -4.7125
    -4.7123  -4.6508  -4.5865  -4.5568  -4.5565  -4.5299  -4.4822  -4.4802
    -4.4795  -4.4795  -4.4555  -4.4555  -4.4014  -4.3974  -4.3825  -4.3824
    -4.3682  -4.3682  -4.3539  -4.3525  -4.2948  -4.2908  -4.2907  -4.2762
    -4.2761  -4.2585  -4.2584  -4.2567  -4.2565  -4.2393  -4.2381  -4.2219
    -4.2099  -4.2038  -4.1627  -4.1356  -4.1356  -4.1330  -4.1329  -4.1165
    -4.1083  -4.1082  -4.1080  -4.1079  -4.0941  -4.0822  -4.0821  -4.0658
    -4.0350  -4.0346  -4.0319  -4.0288  -4.0285  -4.0123  -4.0121  -4.0057
    -4.0054  -3.9994  -3.9993  -3.9563  -3.9562  -3.9507  -3.9506  -3.9471
    -3.9467  -3.9331  -3.9330  -3.9031  -3.9015  -3.8942  -3.8819  -3.8817
    -3.8720  -3.8720  -3.8717  -3.8647  -3.8491  -3.8490  -3.8317  -3.8316
    -3.8126  -3.8063  -3.8062  -3.8013  -3.8012  -3.8012  -3.8010  -3.7968
    -3.7968  -3.7704  -3.7703  -3.7614  -3.7609  -3.7492  -3.7490  -3.7147
    -3.7145  -3.7143  -3.7140  -3.7139  -3.7139  -3.7138  -3.6968  -3.6967
    -3.6848  -3.6719  -3.6718  -3.6660  -3.6659  -3.6397  -3.6397  -3.6099
    -3.6031  -3.6029  -3.5662  -3.5531  -3.5531  -3.5287  -3.5286  -3.5139
    -3.4853  -3.4852  -3.4694  -3.4693  -3.4200  -3.3820  -3.3817  -3.3605
    -3.3603  -3.2153  -3.2153  -3.1929  -3.1268  -3.1078  -3.1076  -3.0453
    -3.0315  -3.0235  -3.0234  -2.9675  -2.9673  -2.9562  -2.9401  -2.9399
    -2.9319  -2.9317  -2.9244  -2.9209  -2.8476  -2.8473  -2.8404  -2.8398
    -2.7519  -2.7405  -2.6281  -2.5397  -2.5393  -2.5255  -2.5255  -2.2715
    -2.1016  -2.1014  -1.9561  -1.9560  -1.9351  -1.8590  -1.8589  -1.8251
    -1.8251  -1.7707  -1.7706  -1.5071  -1.4972  -1.0270

          k = 0.2500-0.6187 0.0000 (128424 PWs)   bands (ev):

   -90.9806 -90.9790 -90.9724 -90.9687 -90.9594 -90.9557 -90.9556 -90.9548
   -90.9541 -90.9530 -90.9497 -90.9491 -90.9475 -90.9466 -90.9459 -90.9422
   -90.9399 -90.9361 -90.9332 -90.9318 -90.9302 -90.9290 -90.9287 -90.9271
   -90.9234 -90.9223 -90.9205 -90.9189 -90.9137 -90.9092 -90.9055 -90.9036
   -90.8357 -90.8330 -90.8271 -90.8198 -90.8121 -90.8054 -90.8023 -90.8019
   -90.8002 -90.8000 -90.7987 -90.7982 -90.7955 -90.7930 -90.7920 -90.7915
   -90.7902 -90.7895 -90.7884 -90.7846 -90.7844 -90.7839 -90.7837 -90.7828
   -90.7825 -90.7809 -90.7791 -90.7743 -90.7682 -90.7626 -90.7573 -90.7553
   -57.1749 -57.1693 -57.1659 -57.1556 -57.1498 -57.1467 -57.1451 -57.1438
   -57.1417 -57.1407 -57.1404 -57.1404 -57.1373 -57.1358 -57.1321 -57.1311
   -57.1251 -57.1229 -57.1224 -57.1193 -57.1182 -57.1148 -57.1147 -57.1126
   -57.1116 -57.1104 -57.1087 -57.1056 -57.0973 -57.0914 -57.0884 -57.0857
   -57.0789 -57.0782 -57.0778 -57.0723 -57.0671 -57.0612 -57.0607 -57.0603
   -57.0565 -57.0527 -57.0504 -57.0471 -57.0401 -57.0397 -57.0383 -57.0350
   -57.0312 -57.0264 -57.0239 -57.0202 -57.0151 -57.0111 -57.0029 -56.9999
   -56.9996 -56.9991 -56.9859 -56.9813 -56.9801 -56.9783 -56.9742 -56.9734
   -56.9719 -56.9702 -56.9666 -56.9612 -56.9541 -56.9532 -56.9524 -56.9517
   -56.9515 -56.9492 -56.9485 -56.9475 -56.9472 -56.9455 -56.9424 -56.9391
   -56.9348 -56.9333 -56.9333 -56.9292 -56.9266 -56.9190 -56.9182 -56.9170
   -56.9163 -56.9158 -56.9120 -56.9101 -56.9048 -56.8958 -56.8898 -56.8863
   -56.8862 -56.8816 -56.8791 -56.8755 -56.8699 -56.8694 -56.8694 -56.8689
   -56.8649 -56.8647 -56.8636 -56.8627 -56.8617 -56.8603 -56.8603 -56.8595
   -56.8568 -56.8502 -56.8487 -56.8486 -56.8485 -56.8463 -56.8462 -56.8448
   -56.8432 -56.8431 -56.8410 -56.8408 -56.8370 -56.8353 -56.8340 -56.8294
   -56.8287 -56.8249 -56.8239 -56.8213 -56.8145 -56.8136 -56.8100 -56.8084
   -56.8069 -56.8006 -56.7995 -56.7989 -56.7981 -56.7921 -56.7920 -56.7915
   -56.7912 -56.7900 -56.7884 -56.7877 -56.7874 -56.7807 -56.7734 -56.7733
   -56.7715 -56.7708 -56.7693 -56.7644 -56.7626 -56.7587 -56.7577 -56.7461
   -56.7406 -56.7405 -56.7368 -56.7354 -56.7282 -56.7276 -56.7272 -56.7270
   -56.7268 -56.7267 -56.7244 -56.7238 -56.7229 -56.7219 -56.7217 -56.7208
   -56.7199 -56.7190 -56.7189 -56.7188 -56.7162 -56.7151 -56.7141 -56.7138
   -56.7111 -56.7087 -56.7051 -56.7045 -56.7027 -56.7007 -56.6992 -56.6923
   -10.3269 -10.0333  -9.7434  -9.1268  -8.9546  -8.8502  -8.5967  -8.4854
    -7.9089  -7.8313  -7.7823  -7.7122  -7.6777  -7.6552  -7.5807  -7.5643
    -7.4985  -7.4742  -7.3958  -7.3838  -7.3758  -7.3512  -7.3253  -7.2487
    -7.2387  -7.2237  -7.1919  -7.1863  -7.1859  -7.1777  -7.1491  -7.0667
    -7.0639  -7.0607  -7.0457  -7.0297  -6.9945  -6.9758  -6.9503  -6.9442
    -6.9359  -6.9257  -6.9035  -6.8202  -6.8012  -6.7841  -6.7720  -6.7474
    -6.7067  -6.7013  -6.6746  -6.6734  -6.6184  -6.6147  -6.5901  -6.5877
    -6.5792  -6.5481  -6.5366  -6.5152  -6.5101  -6.4803  -6.4479  -6.4278
    -6.4191  -6.4022  -6.4003  -6.3943  -6.3129  -6.2943  -6.2799  -6.2159
    -6.1397  -6.1291  -6.1161  -6.1099  -6.1052  -6.1019  -6.0942  -6.0808
    -6.0805  -6.0552  -6.0102  -6.0041  -5.9688  -5.9650  -5.9585  -5.9502
    -5.9402  -5.9363  -5.9000  -5.8993  -5.8991  -5.8908  -5.8867  -5.8839
    -5.8792  -5.8760  -5.8706  -5.8629  -5.8478  -5.8299  -5.8077  -5.8068
    -5.8001  -5.7923  -5.7671  -5.7623  -5.7556  -5.7461  -5.7443  -5.7357
    -5.7183  -5.6962  -5.6771  -5.6553  -5.6546  -5.6478  -5.6368  -5.6278
    -5.6230  -5.6207  -5.6170  -5.6060  -5.5835  -5.5804  -5.5759  -5.5693
    -5.5672  -5.5663  -5.5436  -5.5196  -5.5086  -5.5050  -5.4902  -5.4615
    -5.4573  -5.3593  -5.3382  -5.3273  -5.3248  -5.3233  -5.3045  -5.2904
    -5.2887  -5.2849  -5.2815  -5.2798  -5.2575  -5.2551  -5.2467  -5.2437
    -5.2351  -5.2330  -5.2314  -5.2267  -5.1847  -5.1763  -5.1752  -5.1628
    -5.1572  -5.1485  -5.0900  -5.0701  -5.0340  -5.0219  -4.9967  -4.9823
    -4.9757  -4.9292  -4.9144  -4.8992  -4.8878  -4.8869  -4.8166  -4.7963
    -4.7743  -4.7550  -4.7377  -4.7335  -4.7016  -4.6527  -4.6453  -4.6197
    -4.6181  -4.5799  -4.5763  -4.5738  -4.5684  -4.5484  -4.5314  -4.5286
    -4.5218  -4.5100  -4.5054  -4.4962  -4.4409  -4.4374  -4.4139  -4.3912
    -4.3896  -4.3620  -4.3565  -4.3474  -4.3379  -4.3273  -4.3084  -4.2994
    -4.2881  -4.2753  -4.2699  -4.2642  -4.2615  -4.2455  -4.2386  -4.2268
    -4.2201  -4.1875  -4.1873  -4.1683  -4.1564  -4.1464  -4.1417  -4.1373
    -4.1363  -4.1352  -4.1306  -4.1246  -4.1129  -4.1024  -4.0995  -4.0926
    -4.0802  -4.0611  -4.0331  -4.0251  -4.0248  -4.0146  -4.0045  -4.0001
    -3.9905  -3.9885  -3.9798  -3.9788  -3.9636  -3.9605  -3.9579  -3.9471
    -3.9267  -3.9185  -3.9155  -3.9104  -3.9038  -3.9012  -3.8998  -3.8708
    -3.8631  -3.8630  -3.8572  -3.8561  -3.8485  -3.8419  -3.8213  -3.8185
    -3.8182  -3.8167  -3.8090  -3.7975  -3.7971  -3.7813  -3.7792  -3.7684
    -3.7599  -3.7530  -3.7489  -3.7456  -3.7429  -3.7295  -3.7244  -3.7191
    -3.7167  -3.7141  -3.7052  -3.7028  -3.6994  -3.6856  -3.6687  -3.6455
    -3.6408  -3.6284  -3.6192  -3.6084  -3.5911  -3.5905  -3.5761  -3.5586
    -3.5483  -3.5324  -3.4990  -3.4651  -3.4566  -3.4452  -3.4385  -3.4357
    -3.3938  -3.3603  -3.3500  -3.3397  -3.3044  -3.2944  -3.2847  -3.2723
    -3.2568  -3.2086  -3.2068  -3.2055  -3.2009  -3.1903  -3.1606  -3.1260
    -3.1194  -3.1134  -3.0757  -3.0673  -3.0589  -3.0553  -3.0125  -2.9928
    -2.9835  -2.9832  -2.9629  -2.9528  -2.9435  -2.9375  -2.9049  -2.8974
    -2.8825  -2.8672  -2.8614  -2.8306  -2.6962  -2.6947  -2.5528  -2.4842
    -2.4159  -2.3289  -2.2032  -2.0629  -2.0179  -2.0079  -1.9404  -1.8435
    -1.5819  -1.5417  -1.3579  -1.2430  -1.2345  -1.1511

          k = 0.2500-0.3536 0.0000 (128397 PWs)   bands (ev):

   -90.9832 -90.9751 -90.9751 -90.9630 -90.9596 -90.9595 -90.9574 -90.9555
   -90.9555 -90.9514 -90.9514 -90.9492 -90.9491 -90.9433 -90.9433 -90.9400
   -90.9362 -90.9360 -90.9360 -90.9328 -90.9327 -90.9294 -90.9293 -90.9279
   -90.9246 -90.9245 -90.9164 -90.9163 -90.9130 -90.9097 -90.9096 -90.9015
   -90.8380 -90.8295 -90.8295 -90.8120 -90.8089 -90.8088 -90.8082 -90.8081
   -90.8022 -90.7989 -90.7987 -90.7949 -90.7949 -90.7931 -90.7904 -90.7904
   -90.7894 -90.7894 -90.7883 -90.7882 -90.7856 -90.7842 -90.7839 -90.7796
   -90.7777 -90.7776 -90.7776 -90.7774 -90.7749 -90.7603 -90.7603 -90.7532
   -57.1761 -57.1673 -57.1673 -57.1492 -57.1482 -57.1482 -57.1468 -57.1468
   -57.1449 -57.1449 -57.1429 -57.1353 -57.1352 -57.1346 -57.1345 -57.1282
   -57.1265 -57.1265 -57.1172 -57.1159 -57.1156 -57.1155 -57.1151 -57.1147
   -57.1142 -57.1141 -57.1051 -57.1049 -57.0952 -57.0946 -57.0937 -57.0936
   -57.0828 -57.0800 -57.0800 -57.0778 -57.0719 -57.0719 -57.0654 -57.0654
   -57.0621 -57.0621 -57.0585 -57.0585 -57.0442 -57.0441 -57.0279 -57.0279
   -57.0117 -57.0075 -57.0075 -57.0072 -57.0028 -56.9913 -56.9913 -56.9907
   -56.9878 -56.9876 -56.9876 -56.9844 -56.9832 -56.9794 -56.9754 -56.9754
   -56.9717 -56.9717 -56.9708 -56.9708 -56.9650 -56.9650 -56.9624 -56.9545
   -56.9545 -56.9501 -56.9500 -56.9452 -56.9430 -56.9430 -56.9340 -56.9340
   -56.9275 -56.9224 -56.9224 -56.9211 -56.9197 -56.9196 -56.9196 -56.9195
   -56.9079 -56.9079 -56.9010 -56.9010 -56.9002 -56.9002 -56.8962 -56.8962
   -56.8942 -56.8857 -56.8850 -56.8849 -56.8842 -56.8785 -56.8730 -56.8655
   -56.8654 -56.8643 -56.8643 -56.8614 -56.8607 -56.8597 -56.8597 -56.8596
   -56.8583 -56.8548 -56.8548 -56.8529 -56.8529 -56.8476 -56.8476 -56.8456
   -56.8455 -56.8450 -56.8388 -56.8388 -56.8359 -56.8321 -56.8320 -56.8297
   -56.8297 -56.8268 -56.8267 -56.8245 -56.8245 -56.8091 -56.8090 -56.8084
   -56.8083 -56.8015 -56.7959 -56.7959 -56.7948 -56.7939 -56.7939 -56.7937
   -56.7929 -56.7928 -56.7849 -56.7848 -56.7844 -56.7844 -56.7778 -56.7761
   -56.7740 -56.7669 -56.7668 -56.7661 -56.7660 -56.7636 -56.7636 -56.7615
   -56.7463 -56.7427 -56.7426 -56.7423 -56.7369 -56.7367 -56.7315 -56.7315
   -56.7291 -56.7291 -56.7250 -56.7247 -56.7239 -56.7238 -56.7231 -56.7224
   -56.7181 -56.7180 -56.7179 -56.7057 -56.7056 -56.7055 -56.7035 -56.7034
   -56.7031 -56.7031 -56.7007 -56.7006 -56.7001 -56.6967 -56.6939 -56.6939
   -10.4415  -9.8532  -9.8531  -9.2298  -8.7019  -8.7018  -8.3539  -8.3539
    -8.3482  -8.0618  -8.0617  -7.8516  -7.5119  -7.5118  -7.5086  -7.5086
    -7.4549  -7.4549  -7.4325  -7.4308  -7.4227  -7.4226  -7.3913  -7.3913
    -7.2691  -7.2690  -7.2253  -7.2177  -7.2051  -7.0827  -7.0827  -7.0321
    -7.0320  -7.0005  -7.0004  -6.9713  -6.9712  -6.9605  -6.9605  -6.9279
    -6.9278  -6.8775  -6.8775  -6.8514  -6.8514  -6.8066  -6.7946  -6.7419
    -6.7418  -6.7306  -6.6550  -6.5909  -6.5907  -6.5881  -6.5880  -6.5456
    -6.5455  -6.5433  -6.5432  -6.5390  -6.5390  -6.5279  -6.4696  -6.4696
    -6.4039  -6.3579  -6.3578  -6.3126  -6.2583  -6.2276  -6.2046  -6.1651
    -6.1257  -6.1257  -6.1060  -6.0890  -6.0655  -6.0653  -6.0615  -6.0615
    -6.0430  -6.0430  -6.0287  -6.0286  -6.0221  -6.0114  -5.9923  -5.9922
    -5.9897  -5.9896  -5.9655  -5.9551  -5.9550  -5.9176  -5.9176  -5.8901
    -5.8900  -5.8799  -5.8799  -5.8583  -5.8510  -5.8439  -5.8438  -5.8296
    -5.8296  -5.8006  -5.8004  -5.7316  -5.7316  -5.7252  -5.7188  -5.7188
    -5.7109  -5.7108  -5.7004  -5.6887  -5.6830  -5.6829  -5.6635  -5.6634
    -5.6415  -5.6145  -5.6145  -5.5471  -5.5470  -5.5387  -5.5160  -5.4491
    -5.4491  -5.4489  -5.4036  -5.4016  -5.4014  -5.3743  -5.3741  -5.3683
    -5.3682  -5.3627  -5.3627  -5.3592  -5.3592  -5.3517  -5.3423  -5.3422
    -5.3419  -5.3356  -5.3356  -5.3182  -5.3101  -5.3099  -5.2996  -5.2995
[...]
    -2.1985  -2.1933  -2.1888  -2.1839  -2.1279  -2.0815  -2.0232  -2.0025
    -1.9800  -1.9681  -1.9238  -1.9117  -1.8970  -1.8857  -1.8576  -1.8487
    -1.8477  -1.8427  -1.8425  -1.8037  -1.7831  -1.7800  -1.7741  -1.7220
    -1.6545  -1.6403  -1.6327  -1.6211  -1.6039  -1.6030  -1.5905  -1.5866
    -1.5824  -1.5784  -1.5722  -1.5664  -1.5474  -1.5452  -1.5068  -1.4755
    -1.4308  -1.4023  -1.3959  -1.3684  -1.3671  -1.3608  -1.3538  -1.3470
    -1.3301  -1.3059  -1.3027  -1.2966  -1.2811  -1.2741  -1.2673  -1.2662
    -1.2332  -1.2245  -1.2204  -1.2079  -1.2057  -1.1791  -1.1787  -1.1757
    -1.1515  -1.1293  -1.1157  -1.1007  -1.0994  -1.0926  -1.0907  -1.0903
    -1.0782  -1.0776  -1.0532  -1.0525  -1.0493  -1.0386  -1.0211  -1.0147
    -1.0128  -1.0118  -0.9906  -0.9792  -0.9761  -0.9567  -0.9552  -0.9486
    -0.9439  -0.9375  -0.9362  -0.8949  -0.8767  -0.8747  -0.8696  -0.8652
    -0.8634  -0.8464  -0.8450  -0.8443  -0.8409  -0.8366  -0.8248  -0.8227
    -0.8107  -0.8025  -0.7916  -0.7735  -0.7607  -0.7581  -0.7438  -0.7436
    -0.7382  -0.7267  -0.7260  -0.7255  -0.7235  -0.7217  -0.7095  -0.6892
    -0.6889  -0.6816  -0.6651  -0.6542  -0.6487  -0.6452  -0.6411  -0.6331
    -0.6074  -0.6043  -0.6039  -0.5615  -0.5521  -0.5449  -0.5273  -0.5167
    -0.5005  -0.4993  -0.4964  -0.4894  -0.4889  -0.4796  -0.4676  -0.4612
    -0.4251  -0.4101  -0.4100  -0.3988  -0.3970  -0.3730  -0.3652  -0.3381
    -0.2485  -0.1962  -0.1409  -0.1334  -0.1189  -0.0135   0.0525   0.1197
     0.2005   0.2850   0.3009   0.4451   0.4636   0.5139

          k =-0.5000-0.3536 0.0000 (128560 PWs)   bands (ev):

   -87.9734 -87.9733 -87.9651 -87.9651 -87.9389 -87.9389 -87.9388 -87.9388
   -87.9334 -87.9334 -87.9321 -87.9320 -87.9271 -87.9270 -87.9270 -87.9270
   -87.9224 -87.9224 -87.9127 -87.9127 -87.9120 -87.9120 -87.9119 -87.9119
   -87.9100 -87.9100 -87.9100 -87.9100 -87.8885 -87.8885 -87.8883 -87.8883
   -87.8775 -87.8775 -87.8766 -87.8766 -87.8751 -87.8751 -87.8744 -87.8744
   -87.8544 -87.8544 -87.8544 -87.8544 -87.8542 -87.8542 -87.8541 -87.8541
   -87.8534 -87.8534 -87.8534 -87.8534 -87.8534 -87.8534 -87.8534 -87.8534
   -87.8329 -87.8329 -87.8321 -87.8321 -87.8315 -87.8315 -87.8312 -87.8312
   -54.2240 -54.2239 -54.2239 -54.2238 -54.2142 -54.2142 -54.2141 -54.2141
   -54.2122 -54.2121 -54.2079 -54.2079 -54.2058 -54.2058 -54.1991 -54.1991
   -54.1991 -54.1990 -54.1907 -54.1907 -54.1907 -54.1906 -54.1826 -54.1826
   -54.1716 -54.1716 -54.1702 -54.1702 -54.1656 -54.1656 -54.1471 -54.1471
   -54.1432 -54.1432 -54.1343 -54.1343 -54.1343 -54.1342 -54.1328 -54.1327
   -54.1327 -54.1327 -54.1265 -54.1265 -54.1265 -54.1265 -54.1258 -54.1257
   -54.1241 -54.1240 -54.1203 -54.1203 -54.1154 -54.1153 -54.1152 -54.1152
   -54.1120 -54.1120 -54.1105 -54.1104 -54.1104 -54.1104 -54.0738 -54.0738
   -54.0626 -54.0626 -54.0626 -54.0626 -54.0608 -54.0607 -54.0511 -54.0511
   -54.0505 -54.0505 -54.0339 -54.0339 -54.0149 -54.0149 -54.0149 -54.0149
   -54.0144 -54.0144 -54.0138 -54.0138 -54.0040 -54.0040 -54.0039 -54.0039
   -54.0024 -54.0024 -54.0024 -54.0023 -53.9865 -53.9865 -53.9857 -53.9857
   -53.9785 -53.9785 -53.9785 -53.9785 -53.9734 -53.9734 -53.9734 -53.9734
   -53.9730 -53.9730 -53.9615 -53.9615 -53.9615 -53.9615 -53.9583 -53.9582
   -53.9499 -53.9499 -53.9451 -53.9451 -53.9373 -53.9373 -53.9349 -53.9349
   -53.9349 -53.9349 -53.9280 -53.9280 -53.9216 -53.9216 -53.9189 -53.9189
   -53.9130 -53.9130 -53.9114 -53.9114 -53.9070 -53.9070 -53.9070 -53.9069
   -53.9048 -53.9048 -53.9041 -53.9041 -53.9040 -53.9040 -53.8993 -53.8993
   -53.8993 -53.8993 -53.8977 -53.8977 -53.8899 -53.8899 -53.8896 -53.8896
   -53.8859 -53.8859 -53.8852 -53.8852 -53.8842 -53.8842 -53.8807 -53.8807
   -53.8807 -53.8806 -53.8805 -53.8805 -53.8791 -53.8791 -53.8752 -53.8752
   -53.8752 -53.8752 -53.8700 -53.8700 -53.8683 -53.8683 -53.8682 -53.8682
   -53.8678 -53.8678 -53.8678 -53.8678 -53.8582 -53.8582 -53.8532 -53.8532
   -53.8532 -53.8532 -53.8517 -53.8517 -53.8484 -53.8484 -53.8474 -53.8474
    -9.9283  -9.9281  -9.3430  -9.3430  -8.6355  -8.6353  -8.0920  -8.0920
    -7.3399  -7.3398  -7.3398  -7.3398  -6.9311  -6.9309  -6.4908  -6.4908
    -6.4908  -6.4908  -6.4900  -6.4900  -6.3952  -6.3952  -6.3566  -6.3566
    -6.3565  -6.3564  -5.9300  -5.9298  -5.9285  -5.9285  -5.9284  -5.9284
    -5.7193  -5.7193  -5.4600  -5.4599  -5.4259  -5.4259  -5.4258  -5.4257
    -5.3680  -5.3679  -5.3244  -5.3243  -5.3243  -5.3242  -5.1661  -5.1660
    -5.1545  -5.1544  -5.1356  -5.1355  -4.8906  -4.8905  -4.8739  -4.8738
    -4.8738  -4.8738  -4.6550  -4.6548  -4.6041  -4.6040  -4.5533  -4.5532
    -4.4466  -4.4465  -4.3656  -4.3656  -4.3654  -4.3654  -4.3568  -4.3567
    -4.3393  -4.3391  -4.3309  -4.3308  -4.2316  -4.2316  -4.2316  -4.2315
    -4.2265  -4.2264  -4.2264  -4.2263  -4.2201  -4.2200  -4.2199  -4.2199
    -4.0076  -4.0075  -3.9995  -3.9995  -3.8673  -3.8673  -3.8672  -3.8672
    -3.8541  -3.8540  -3.8040  -3.8039  -3.8039  -3.8038  -3.7937  -3.7935
    -3.7880  -3.7879  -3.7671  -3.7670  -3.7669  -3.7669  -3.7335  -3.7335
    -3.7335  -3.7333  -3.7304  -3.7304  -3.7304  -3.7304  -3.7239  -3.7235
    -3.6814  -3.6813  -3.6812  -3.6812  -3.6206  -3.6205  -3.6205  -3.6204
    -3.6204  -3.6203  -3.6203  -3.6202  -3.6160  -3.6159  -3.6013  -3.6010
    -3.5437  -3.5436  -3.4104  -3.4101  -3.3482  -3.3482  -3.3482  -3.3482
    -3.3299  -3.3297  -3.2889  -3.2889  -3.2889  -3.2888  -3.1950  -3.1950
    -3.1656  -3.1656  -3.1655  -3.1655  -3.1475  -3.1475  -3.1105  -3.1103
    -3.1002  -3.1000  -3.0541  -3.0539  -2.9166  -2.9166  -2.9050  -2.9049
    -2.8714  -2.8713  -2.8316  -2.8314  -2.8102  -2.8101  -2.8100  -2.8100
    -2.7980  -2.7977  -2.7498  -2.7498  -2.7113  -2.7113  -2.7112  -2.7112
    -2.6882  -2.6878  -2.4377  -2.4376  -2.3645  -2.3641  -2.3220  -2.3217
    -2.2535  -2.2534  -2.0720  -2.0719  -2.0506  -2.0504  -2.0028  -2.0027
    -1.9313  -1.9312  -1.8919  -1.8918  -1.8918  -1.8916  -1.8139  -1.8139
    -1.8130  -1.8128  -1.7720  -1.7718  -1.7582  -1.7581  -1.6565  -1.6565
    -1.6542  -1.6541  -1.6541  -1.6539  -1.5537  -1.5537  -1.5536  -1.5535
    -1.5486  -1.5485  -1.5485  -1.5485  -1.5253  -1.5252  -1.5244  -1.5242
    -1.4478  -1.4477  -1.4477  -1.4477  -1.3832  -1.3831  -1.3830  -1.3830
    -1.3486  -1.3486  -1.3064  -1.3064  -1.2520  -1.2519  -1.1956  -1.1956
    -1.1147  -1.1147  -1.1109  -1.1109  -1.1109  -1.1108  -1.1081  -1.1080
    -1.0915  -1.0915  -1.0647  -1.0647  -1.0542  -1.0542  -1.0541  -1.0540
    -1.0476  -1.0476  -1.0476  -1.0476  -1.0219  -1.0216  -0.9744  -0.9743
    -0.9742  -0.9741  -0.9728  -0.9726  -0.9491  -0.9490  -0.9487  -0.9484
    -0.9427  -0.9425  -0.9117  -0.9117  -0.8993  -0.8992  -0.8777  -0.8777
    -0.8777  -0.8777  -0.8655  -0.8655  -0.8630  -0.8630  -0.8629  -0.8629
    -0.8231  -0.8231  -0.7567  -0.7567  -0.7405  -0.7405  -0.7214  -0.7212
    -0.7107  -0.7106  -0.6766  -0.6766  -0.6766  -0.6765  -0.6750  -0.6750
    -0.6750  -0.6750  -0.6604  -0.6604  -0.6576  -0.6576  -0.6575  -0.6575
    -0.6503  -0.6501  -0.6042  -0.6041  -0.5960  -0.5960  -0.5960  -0.5959
    -0.5813  -0.5811  -0.5726  -0.5725  -0.5725  -0.5725  -0.4832  -0.4830
    -0.4783  -0.4783  -0.4782  -0.4782  -0.2957  -0.2955  -0.2662  -0.2662
    -0.0535  -0.0535  -0.0535  -0.0535   0.0165   0.0166   0.0168   0.0168
     0.0351   0.0352   0.0352   0.0352   0.0557   0.0557

     the Fermi energy is    -2.8223 ev

!    total energy              =  -21072.23931114 Ry
     Harris-Foulkes estimate   =  -21072.23931279 Ry
     estimated scf accuracy    <          7.6E-11 Ry

     total all-electron energy =   -162915.217583 Ry

     The total energy is the sum of the following terms:

     one-electron contribution = -737142.12597799 Ry
     hartree contribution      =  368459.27119025 Ry
     xc contribution           =   -2228.22264549 Ry
     ewald contribution        =  354713.63322277 Ry
     Dispersion Correction     =      -1.37032024 Ry
     one-center paw contrib.   =   -4873.42483130 Ry
     smearing contrib. (-TS)   =       0.00005085 Ry

     total magnetization       =   163.03 Bohr mag/cell
     absolute magnetization    =   169.37 Bohr mag/cell

     convergence has been achieved in  11 iterations

     negative rho (up, down):  2.510E-02 1.791E-02

     Forces acting on atoms (cartesian axes, Ry/au):

     atom    1 type  1   force =     0.00000899    0.00000992    0.00925509
     atom    2 type  1   force =    -0.00000296    0.00001399   -0.00940756
     atom    3 type  1   force =     0.00000047    0.00000401    0.00936118
     atom    4 type  1   force =    -0.00003138   -0.00000649   -0.00940993
     atom    5 type  1   force =     0.00001364   -0.00000465    0.00000136
     atom    6 type  1   force =     0.00000575   -0.00001197    0.00002056
     atom    7 type  1   force =    -0.00000515   -0.00003166    0.00001518
     atom    8 type  1   force =    -0.00000978    0.00000889    0.00000187
     atom    9 type  1   force =    -0.00001295    0.00002213    0.00932811
     atom   10 type  1   force =     0.00001358   -0.00001947    0.00932523
     atom   11 type  1   force =     0.00002570   -0.00007927   -0.00939521
     atom   12 type  1   force =    -0.00006926    0.00005311   -0.00938146
     atom   13 type  1   force =    -0.00000322   -0.00000008   -0.00000982
     atom   14 type  1   force =     0.00000302    0.00000218    0.00000339
     atom   15 type  1   force =     0.00002140    0.00000641   -0.00002631
     atom   16 type  1   force =     0.00002021    0.00001408    0.00001971
     atom   17 type  1   force =     0.00000101   -0.00000699    0.00931429
     atom   18 type  1   force =     0.00000842    0.00000015   -0.00941669
     atom   19 type  1   force =     0.00000791   -0.00000363    0.00931373
     atom   20 type  1   force =     0.00008841   -0.00011318   -0.00937079
     atom   21 type  1   force =    -0.00002205    0.00000398    0.00000639
     atom   22 type  1   force =    -0.00000059   -0.00002602    0.00000477
     atom   23 type  1   force =    -0.00000206    0.00001737    0.00000747
     atom   24 type  1   force =     0.00000805   -0.00002361   -0.00002755
     atom   25 type  1   force =     0.00000361   -0.00000239    0.00936601
     atom   26 type  1   force =     0.00000163   -0.00000118    0.00925126
     atom   27 type  1   force =     0.00003550   -0.00007582   -0.00939576
     atom   28 type  1   force =     0.00007745   -0.00004438   -0.00939465
     atom   29 type  1   force =    -0.00000110   -0.00000433    0.00000024
     atom   30 type  1   force =     0.00000743   -0.00001558   -0.00000436
     atom   31 type  1   force =    -0.00002215   -0.00002687    0.00006183
     atom   32 type  1   force =    -0.00002518   -0.00002063   -0.00002364
     atom   33 type  1   force =    -0.00000630    0.00000164    0.00931655
     atom   34 type  1   force =     0.00000838   -0.00000023   -0.00941788
     atom   35 type  1   force =     0.00000305    0.00000843    0.00931592
     atom   36 type  1   force =    -0.00008454    0.00012963   -0.00937629
     atom   37 type  1   force =    -0.00001180    0.00000232   -0.00000257
     atom   38 type  1   force =     0.00001765   -0.00001473    0.00000140
     atom   39 type  1   force =     0.00000087    0.00000770   -0.00000172
     atom   40 type  1   force =    -0.00001350    0.00001408    0.00001927
     atom   41 type  1   force =     0.00000001    0.00000234    0.00924359
     atom   42 type  1   force =    -0.00000190    0.00000659    0.00936953
     atom   43 type  1   force =    -0.00001813    0.00008881   -0.00938215
     atom   44 type  1   force =    -0.00006973    0.00007049   -0.00940098
     atom   45 type  1   force =    -0.00000019   -0.00000230    0.00001556
     atom   46 type  1   force =    -0.00000617    0.00000283    0.00000158
     atom   47 type  1   force =    -0.00002793   -0.00001635    0.00001703
     atom   48 type  1   force =    -0.00001978   -0.00001680   -0.00002070
     atom   49 type  1   force =    -0.00000234    0.00000124    0.00936341
     atom   50 type  1   force =     0.00000656    0.00000166   -0.00940324
     atom   51 type  1   force =    -0.00000979   -0.00000428    0.00925472
     atom   52 type  1   force =     0.00002850    0.00003488   -0.00940959
     atom   53 type  1   force =     0.00002542   -0.00000852    0.00001264
     atom   54 type  1   force =    -0.00000913    0.00000241   -0.00002072
     atom   55 type  1   force =    -0.00000522   -0.00001652    0.00000216
     atom   56 type  1   force =    -0.00001496    0.00000918    0.00000217
     atom   57 type  1   force =    -0.00001513    0.00001967    0.00932775
     atom   58 type  1   force =     0.00001565   -0.00001930    0.00932450
     atom   59 type  1   force =    -0.00003346    0.00009670   -0.00940040
     atom   60 type  1   force =     0.00007175   -0.00005128   -0.00939621
     atom   61 type  1   force =    -0.00000252    0.00000325   -0.00001010
     atom   62 type  1   force =    -0.00000600   -0.00000688    0.00000046
     atom   63 type  1   force =     0.00001247    0.00001031   -0.00002122
     atom   64 type  1   force =     0.00002384    0.00000501    0.00005794

     Total force =     0.000160     Total SCF correction =     0.000049
     SCF correction compared to forces is large: reduce conv_thr to get better values

     bfgs converged in  11 scf cycles and  10 bfgs steps
     (criteria: energy <  7.3E-07 Ry, force <  3.9E-04 Ry/Bohr)

     End of BFGS Geometry Optimization

     Final energy   =  -21072.2393111404 Ry
Begin final coordinates

ATOMIC_POSITIONS (angstrom)
Fe       1.654912953   1.170200133   0.000000000    0   0   0
Fe       0.000000000   0.000000000   2.026984232    0   0   0
Fe       4.964738858   3.510600399   0.000000000    0   0   0
Fe       3.309825906   2.340400266   2.026984232    0   0   0
Fe       1.654833134   1.170294577   4.028185482
Fe       3.309871844   9.361851104   6.007347978
Fe       4.964858260   3.510918029   4.027842147
Fe       3.310313012   2.340708485   6.007716510
Fe       2.482363858   3.510600399   0.000000000    0   0   0
Fe       4.137287953   1.170200133   0.000000000    0   0   0
Fe       0.827450906   2.340400266   2.026984232    0   0   0
Fe       2.482375000   0.000000000   2.026984232    0   0   0
Fe       2.482483240   3.510661157   4.028071171
Fe       4.137327461   1.170374559   4.027927646
Fe       0.827760404   2.340500860   6.008146894
Fe       2.482393255   0.000401600   6.007865390
Fe       6.619662953   1.170200133   0.000000000    0   0   0
Fe       4.964750000   0.000000000   2.026984232    0   0   0
Fe       9.929488858   3.510600399   0.000000000    0   0   0
Fe       8.274575906   2.340400266   2.026984232    0   0   0
Fe       6.620119067   1.169953398   4.027987342
Fe       4.964822025   0.000367599   6.007327406
Fe       9.929811942   3.510260571   4.027988153
Fe       8.274954527   2.340263479   6.008218476
Fe       7.447113858   3.510600399   0.000000000    0   0   0
Fe       9.102037953   1.170200133   0.000000000    0   0   0
Fe       5.792200906   2.340400266   2.026984232    0   0   0
Fe       7.447125000   0.000000000   2.026984232    0   0   0
Fe       7.447449113   3.510388987   4.027977104
Fe       9.102227377   1.170184492   4.028060170
Fe       5.792731256   2.340740828   6.007058948
Fe      10.757095887   9.361582863   6.008140090
Fe       3.309814764   5.851000664   0.000000000    0   0   0
Fe       1.654901811   4.680800531   2.026984232    0   0   0
Fe       6.619640670   8.191400930   0.000000000    0   0   0
Fe       4.964727717   7.021200797   2.026984232    0   0   0
Fe       3.309766106   5.851444896   4.028071674
Fe      11.584407034   4.681085781   6.007355127
Fe       6.619454496   8.191771347   4.028072090
Fe       4.964626505   7.021756255   6.007794901
Fe       4.137265670   8.191400930   0.000000000    0   0   0
Fe       5.792189764   5.851000664   0.000000000    0   0   0
Fe       2.482352717   7.021200797   2.026984232    0   0   0
Fe       4.137276811   4.680800531   2.026984232    0   0   0
Fe       4.137175465   8.191763122   4.027925740
Fe       5.792072426   5.851425483   4.027958854
Fe      12.411860607   7.021530019   6.007891986
Fe       4.137552857   4.681328629   6.007723671
Fe       8.274564764   5.851000664   0.000000000    0   0   0
Fe       6.619651811   4.680800531   2.026984232    0   0   0
Fe      11.584390670   8.191400930   0.000000000    0   0   0
Fe       9.929477717   7.021200797   2.026984232    0   0   0
Fe       8.274471318   5.851159157   4.027846900
Fe       6.619803455   4.681005799   6.007247564
Fe      11.584564164   8.191659719   4.028193864
Fe       9.929421543   7.021077057   6.007681622
Fe       9.102015670   8.191400930   0.000000000    0   0   0
Fe      10.756939764   5.851000664   0.000000000    0   0   0
Fe       7.447102717   7.021200797   2.026984232    0   0   0
Fe       9.102026811   4.680800531   2.026984232    0   0   0
Fe       9.102143039   8.191476100   4.028066561
Fe      10.757006964   5.851175728   4.027933452
Fe       7.446911280   7.021377491   6.007708042
Fe       9.101917499   4.680667383   6.007082351
End final coordinates



     Writing output data file Fe_paper_480c_ESM_p25.save/

     init_run     :     74.65s CPU     75.83s WALL (       1 calls)
     electrons    :  80585.69s CPU  81234.45s WALL (      11 calls)
     update_pot   :     95.80s CPU     96.17s WALL (      10 calls)
     forces       :    423.44s CPU    426.70s WALL (      11 calls)

     Called by init_run:
     wfcinit      :     58.05s CPU     59.01s WALL (       1 calls)
     potinit      :      4.67s CPU      4.70s WALL (       1 calls)
     hinit0       :      8.98s CPU      9.03s WALL (       1 calls)

     Called by electrons:
     c_bands      :  73812.48s CPU  74372.80s WALL (     238 calls)
     sum_band     :   3787.57s CPU   3845.56s WALL (     238 calls)
     v_of_rho     :    389.25s CPU    390.59s WALL (     239 calls)
     newd         :     67.44s CPU     69.18s WALL (     239 calls)
     PAW_pot      :    111.83s CPU    112.75s WALL (     249 calls)
     mix_rho      :   2305.96s CPU   2327.47s WALL (     238 calls)

     Called by c_bands:
     init_us_2    :    109.14s CPU    111.72s WALL (    1494 calls)
     cegterg      :  59775.73s CPU  60179.47s WALL (     721 calls)

     Called by sum_band:
     sum_band:bec :      8.73s CPU      8.77s WALL (     744 calls)
     addusdens    :     81.38s CPU     84.52s WALL (     238 calls)

     Called by *egterg:
     h_psi        :  17457.58s CPU  17612.22s WALL (    6278 calls)
     s_psi        :   3641.91s CPU   3649.68s WALL (    6278 calls)
     g_psi        :     49.16s CPU     49.29s WALL (    5554 calls)
     cdiaghg      :  24188.81s CPU  24289.80s WALL (    6215 calls)

     Called by h_psi:
     h_psi:pot    :  17379.00s CPU  17479.59s WALL (    6278 calls)
     h_psi:calbec :   3711.24s CPU   3718.37s WALL (    6278 calls)
     vloc_psi     :  10014.86s CPU  10100.00s WALL (    6278 calls)
     add_vuspsi   :   3652.81s CPU   3661.18s WALL (    6278 calls)

     General routines
     calbec       :   5265.64s CPU   5274.37s WALL (    7154 calls)
     fft          :    243.71s CPU    244.92s WALL (    6148 calls)
     ffts         :   1192.44s CPU   1200.91s WALL (  142483 calls)
     fftw         :   9652.49s CPU   9736.49s WALL ( 2852710 calls)
     interpolate  :     24.42s CPU     24.56s WALL (     478 calls)
     davcio       :      1.17s CPU    139.09s WALL (    6187 calls)

     Parallel routines
     fft_scatt_xy :   1932.99s CPU   1942.47s WALL ( 3001341 calls)
     fft_scatt_yz :   2862.05s CPU   2905.47s WALL ( 3001341 calls)

     PWSCF        :     22h34m CPU     22h45m WALL


   This run was terminated on:  22:18: 5  11Jun2022            

=------------------------------------------------------------------------------=
   JOB DONE.
=------------------------------------------------------------------------------=
