     Message from routine get_command_line:
     unexpected argument # 4     :-in

     Program PWSCF v.6.7MaX starts on 28Sep2022 at 20:47: 2 

     This program is part of the open-source Quantum ESPRESSO suite
     for quantum simulation of materials; please cite
         "P. Giannozzi et al., J. Phys.:Condens. Matter 21 395502 (2009);
         "P. Giannozzi et al., J. Phys.:Condens. Matter 29 465901 (2017);
          URL http://www.quantum-espresso.org", 
     in publications or presentations arising from this work. More details at
     http://www.quantum-espresso.org/quote

     Parallel version (MPI), running on   120 processors

     MPI processes distributed on     1 nodes
     K-points division:     npool     =       8
     R & G space division:  proc/nbgrp/npool/nimage =      15
     Waiting for input...
     Reading input from standard input
Warning: card &CELL ignored
Warning: card / ignored

     Current dimensions of program PWSCF are:
     Max number of different atomic species (ntypx) = 10
     Max number of k-points (npk) =  40000
     Max angular momentum in pseudopotentials (lmaxx) =  3

     IMPORTANT: XC functional enforced from input :
     Exchange-correlation= PBE
                           (   1   4   3   4   0   0   0)
     Any further DFT definition will be discarded
     Please, verify this is what you really want


     -------------------------------------------------
     Parameters for Dispersion (Grimme-D2) Correction:
     -------------------------------------------------
       atom      VdW radius       C_6     

        N          2.640         42.670

     Subspace diagonalization in iterative solution of the eigenvalue problem:
     one sub-group per band group will be used
     scalapack distributed-memory algorithm (size of sub-group:  3*  3 procs)


     Parallelization info
     --------------------
     sticks:   dense  smooth     PW     G-vecs:    dense   smooth      PW
     Min        3636    1818    468               639190   225950   29545
     Max        3637    1819    470               639197   225953   29547
     Sum       54553   27281   7033              9587919  3389267  443191



     bravais-lattice index     =            0
     lattice parameter (alat)  =      37.7945  a.u.
     unit-cell volume          =   53986.6760 (a.u.)^3
     number of atoms/cell      =            2
     number of atomic types    =            1
     number of electrons       =        10.00
     number of Kohn-Sham states=            9
     kinetic-energy cutoff     =      60.0000  Ry
     charge density cutoff     =     480.0000  Ry
     scf convergence threshold =      1.0E-08
     mixing beta               =       0.7000
     number of iterations used =           10  plain     mixing
     energy convergence thresh.=      7.3E-07
     force convergence thresh. =      3.9E-04
     Exchange-correlation= PBE
                           (   1   4   3   4   0   0   0)
     nstep                     =           50


     celldm(1)=  37.794522  celldm(2)=   0.000000  celldm(3)=   0.000000
     celldm(4)=   0.000000  celldm(5)=   0.000000  celldm(6)=   0.000000

     crystal axes: (cart. coord. in units of alat)
               a(1) = (   1.000000   0.000000   0.000000 )  
               a(2) = (   0.000000   1.000000   0.000000 )  
               a(3) = (   0.000000   0.000000   1.000000 )  

     reciprocal axes: (cart. coord. in units 2 pi/alat)
               b(1) = (  1.000000  0.000000  0.000000 )  
               b(2) = (  0.000000  1.000000  0.000000 )  
               b(3) = (  0.000000  0.000000  1.000000 )  


     PseudoPot. # 1 for N  read from file:
     ../../SSSP/N.pbe-n-radius_5.UPF
     MD5 check sum: 16739722b17309cd8fe442a2ace49922
     Pseudo is Ultrasoft + core correction, Zval =  5.0
     Generated using "atomic" code by A. Dal Corso  v.5.1
     Using radial grid of 1085 points,  4 beta functions with: 
                l(1) =   0
                l(2) =   0
                l(3) =   1
                l(4) =   1
     Q(r) pseudized with 0 coefficients 


     atomic species   valence    mass     pseudopotential
        N              5.00    14.00700     N ( 1.00)

     Starting magnetic structure 
     atomic species   magnetization
        N            0.100

     No symmetry found



   Cartesian axes

     site n.     atom                  positions (alat units)
         1           N   tau(   1) = (   0.5000000   0.5000000   0.0000000  )
         2           N   tau(   2) = (   0.5000000   0.5000000  -0.0565000  )

     number of k points=    10  Methfessel-Paxton smearing, width (Ry)=  0.0100
                       cart. coord. in units 2pi/alat
        k(    1) = (   0.0000000   0.0000000   0.0000000), wk =   0.0625000
        k(    2) = (   0.0000000   0.2500000   0.0000000), wk =   0.1250000
        k(    3) = (   0.0000000  -0.5000000   0.0000000), wk =   0.0625000
        k(    4) = (   0.2500000   0.0000000   0.0000000), wk =   0.1250000
        k(    5) = (   0.2500000   0.2500000   0.0000000), wk =   0.1250000
        k(    6) = (   0.2500000  -0.5000000   0.0000000), wk =   0.1250000
        k(    7) = (   0.2500000  -0.2500000   0.0000000), wk =   0.1250000
        k(    8) = (  -0.5000000   0.0000000   0.0000000), wk =   0.0625000
        k(    9) = (  -0.5000000   0.2500000   0.0000000), wk =   0.1250000
        k(   10) = (  -0.5000000  -0.5000000   0.0000000), wk =   0.0625000

     Dense  grid:  9587919 G-vectors     FFT dimensions: ( 270, 270, 270)

     Smooth grid:  3389267 G-vectors     FFT dimensions: ( 192, 192, 192)

     Estimated max dynamical RAM per process >     370.17 MB

     Estimated total dynamical RAM >      43.38 GB

     Adding external electric field
        E field amplitude [Ha a.u.]: -7.8812E-03
        Potential amp.       -0.5362 Ry
        Total length         34.0151 bohr

     Generating pointlists ...
     new r_m :   0.0233 (alat units)  0.8808 (a.u.) for type    1

     Initial potential from superposition of free atoms

     starting charge    9.99999, renormalised to   10.00000

     negative rho (up, down):  1.327E-04 1.086E-04
     Starting wfcs are    8 randomized atomic wfcs +    1 random wfcs

     total cpu time spent up to now is       21.3 secs

     Self-consistent Calculation

     iteration #  1     ecut=    60.00 Ry     beta= 0.70
     CG style diagonalization
     c_bands:  1 eigenvalues not converged
     c_bands:  1 eigenvalues not converged
     c_bands:  2 eigenvalues not converged
     ethr =  1.00E-04,  avg # of iterations = 10.1

     negative rho (up, down):  2.316E-04 2.245E-04

     total cpu time spent up to now is       56.6 secs

     total energy              =     -40.35120436 Ry
     estimated scf accuracy    <       0.14407158 Ry

     total magnetization       =     0.00 Bohr mag/cell
     absolute magnetization    =     0.06 Bohr mag/cell

     iteration #  2     ecut=    60.00 Ry     beta= 0.70
     CG style diagonalization
     ethr =  1.44E-03,  avg # of iterations =  3.5

     negative rho (up, down):  2.553E-04 2.539E-04

     total cpu time spent up to now is       76.5 secs

     total energy              =     -40.35755425 Ry
     estimated scf accuracy    <       0.05114333 Ry

     total magnetization       =    -0.00 Bohr mag/cell
     absolute magnetization    =     0.03 Bohr mag/cell

     iteration #  3     ecut=    60.00 Ry     beta= 0.70
     CG style diagonalization
     ethr =  5.11E-04,  avg # of iterations =  3.6

     negative rho (up, down):  2.882E-04 2.877E-04

     total cpu time spent up to now is       96.5 secs

     total energy              =     -40.37288248 Ry
     estimated scf accuracy    <       0.05480570 Ry

     total magnetization       =     0.00 Bohr mag/cell
     absolute magnetization    =     0.02 Bohr mag/cell

     iteration #  4     ecut=    60.00 Ry     beta= 0.70
     CG style diagonalization
     ethr =  5.11E-04,  avg # of iterations =  3.0

     negative rho (up, down):  2.728E-04 2.723E-04

     total cpu time spent up to now is      115.3 secs

     total energy              =     -40.38158530 Ry
     estimated scf accuracy    <       0.00018113 Ry

     total magnetization       =    -0.00 Bohr mag/cell
     absolute magnetization    =     0.01 Bohr mag/cell

     iteration #  5     ecut=    60.00 Ry     beta= 0.70
     CG style diagonalization
     ethr =  1.81E-06,  avg # of iterations =  7.5

     negative rho (up, down):  2.743E-04 2.739E-04

     total cpu time spent up to now is      144.3 secs

     total energy              =     -40.38200253 Ry
     estimated scf accuracy    <       0.00034023 Ry

     total magnetization       =    -0.00 Bohr mag/cell
     absolute magnetization    =     0.00 Bohr mag/cell

     iteration #  6     ecut=    60.00 Ry     beta= 0.70
     CG style diagonalization
     ethr =  1.81E-06,  avg # of iterations =  3.7

     negative rho (up, down):  2.752E-04 2.750E-04

     total cpu time spent up to now is      165.1 secs

     total energy              =     -40.38200580 Ry
     estimated scf accuracy    <       0.00008635 Ry

     total magnetization       =     0.00 Bohr mag/cell
     absolute magnetization    =     0.00 Bohr mag/cell

     iteration #  7     ecut=    60.00 Ry     beta= 0.70
     CG style diagonalization
     ethr =  8.64E-07,  avg # of iterations =  3.6

     negative rho (up, down):  2.752E-04 2.752E-04

     total cpu time spent up to now is      185.7 secs

     total energy              =     -40.38202211 Ry
     estimated scf accuracy    <       0.00000085 Ry

     total magnetization       =     0.00 Bohr mag/cell
     absolute magnetization    =     0.00 Bohr mag/cell

     iteration #  8     ecut=    60.00 Ry     beta= 0.70
     CG style diagonalization
     ethr =  8.54E-09,  avg # of iterations =  4.1

     negative rho (up, down):  2.752E-04 2.752E-04

     total cpu time spent up to now is      207.4 secs

     total energy              =     -40.38202376 Ry
     estimated scf accuracy    <       0.00000117 Ry

     total magnetization       =     0.00 Bohr mag/cell
     absolute magnetization    =     0.00 Bohr mag/cell

     iteration #  9     ecut=    60.00 Ry     beta= 0.70
     CG style diagonalization
     ethr =  8.54E-09,  avg # of iterations =  3.2

     negative rho (up, down):  2.753E-04 2.753E-04

     total cpu time spent up to now is      227.2 secs

     total energy              =     -40.38202380 Ry
     estimated scf accuracy    <       0.00000015 Ry

     total magnetization       =    -0.00 Bohr mag/cell
     absolute magnetization    =     0.00 Bohr mag/cell

     iteration # 10     ecut=    60.00 Ry     beta= 0.70
     CG style diagonalization
     ethr =  1.47E-09,  avg # of iterations =  3.3

     negative rho (up, down):  2.753E-04 2.753E-04

     total cpu time spent up to now is      247.3 secs

     total energy              =     -40.38202385 Ry
     estimated scf accuracy    <       0.00000002 Ry

     total magnetization       =     0.00 Bohr mag/cell
     absolute magnetization    =     0.00 Bohr mag/cell

     iteration # 11     ecut=    60.00 Ry     beta= 0.70
     CG style diagonalization
     ethr =  1.52E-10,  avg # of iterations =  3.6

     negative rho (up, down):  2.753E-04 2.753E-04

     Magnetic moment per site:
     atom:    1    charge:    1.6856    magn:    0.0000    constr:    0.0000
     atom:    2    charge:    1.6781    magn:    0.0000    constr:    0.0000

     total cpu time spent up to now is      265.6 secs

     End of self-consistent calculation

 ------ SPIN UP ------------


          k = 0.0000 0.0000 0.0000 (423701 PWs)   bands (ev):

   -30.4785 -16.3098 -14.0008 -14.0008 -12.7980  -4.9413  -4.9413  -2.5798
    -2.1845

          k = 0.0000 0.2500 0.0000 (423725 PWs)   bands (ev):

   -30.4785 -16.3098 -14.0008 -14.0008 -12.7980  -4.9413  -4.9413  -2.5704
    -2.2626

          k = 0.0000-0.5000 0.0000 (423542 PWs)   bands (ev):

   -30.4785 -16.3098 -14.0008 -14.0008 -12.7980  -4.9413  -4.9413  -2.5593
    -2.3126

          k = 0.2500 0.0000 0.0000 (423725 PWs)   bands (ev):

   -30.4785 -16.3098 -14.0008 -14.0008 -12.7980  -4.9413  -4.9413  -2.5703
    -2.2646

          k = 0.2500 0.2500 0.0000 (423766 PWs)   bands (ev):

   -30.4785 -16.3098 -14.0008 -14.0008 -12.7980  -4.9413  -4.9413  -2.5616
    -2.2601

          k = 0.2500-0.5000 0.0000 (423782 PWs)   bands (ev):

   -30.4785 -16.3098 -14.0008 -14.0008 -12.7980  -4.9413  -4.9413  -2.5511
    -2.2920

          k = 0.2500-0.2500 0.0000 (423766 PWs)   bands (ev):

   -30.4785 -16.3098 -14.0008 -14.0008 -12.7980  -4.9413  -4.9413  -2.5618
    -2.2622

          k =-0.5000 0.0000 0.0000 (423542 PWs)   bands (ev):

   -30.4785 -16.3098 -14.0008 -14.0008 -12.7980  -4.9413  -4.9413  -2.5592
    -2.3134

          k =-0.5000 0.2500 0.0000 (423782 PWs)   bands (ev):

   -30.4785 -16.3098 -14.0008 -14.0008 -12.7980  -4.9413  -4.9413  -2.5510
    -2.2888

          k =-0.5000-0.5000 0.0000 (423708 PWs)   bands (ev):

   -30.4785 -16.3098 -14.0008 -14.0008 -12.7980  -4.9413  -4.9413  -2.5429
    -2.1831

 ------ SPIN DOWN ----------


          k = 0.0000 0.0000 0.0000 (423701 PWs)   bands (ev):

   -30.4785 -16.3098 -14.0008 -14.0008 -12.7981  -4.9413  -4.9413  -2.5794
    -2.1818

          k = 0.0000 0.2500 0.0000 (423725 PWs)   bands (ev):

   -30.4785 -16.3098 -14.0008 -14.0008 -12.7981  -4.9413  -4.9413  -2.5705
    -2.2637

          k = 0.0000-0.5000 0.0000 (423542 PWs)   bands (ev):

   -30.4785 -16.3098 -14.0008 -14.0008 -12.7981  -4.9413  -4.9413  -2.5593
    -2.3140

          k = 0.2500 0.0000 0.0000 (423725 PWs)   bands (ev):

   -30.4785 -16.3098 -14.0008 -14.0008 -12.7981  -4.9413  -4.9413  -2.5704
    -2.2614

          k = 0.2500 0.2500 0.0000 (423766 PWs)   bands (ev):

   -30.4785 -16.3098 -14.0008 -14.0008 -12.7981  -4.9413  -4.9413  -2.5617
    -2.2619

          k = 0.2500-0.5000 0.0000 (423782 PWs)   bands (ev):

   -30.4785 -16.3098 -14.0008 -14.0008 -12.7981  -4.9413  -4.9413  -2.5511
    -2.2899

          k = 0.2500-0.2500 0.0000 (423766 PWs)   bands (ev):

   -30.4785 -16.3098 -14.0008 -14.0008 -12.7981  -4.9413  -4.9413  -2.5615
    -2.2630

          k =-0.5000 0.0000 0.0000 (423542 PWs)   bands (ev):

   -30.4785 -16.3098 -14.0008 -14.0008 -12.7981  -4.9413  -4.9413  -2.5587
    -2.3129

          k =-0.5000 0.2500 0.0000 (423782 PWs)   bands (ev):

   -30.4785 -16.3098 -14.0008 -14.0008 -12.7981  -4.9413  -4.9413  -2.5511
    -2.2931

          k =-0.5000-0.5000 0.0000 (423708 PWs)   bands (ev):

   -30.4785 -16.3098 -14.0008 -14.0008 -12.7981  -4.9413  -4.9413  -2.5428
    -2.2472

     the Fermi energy is    -9.1199 ev

!    total energy              =     -40.38202385 Ry
     estimated scf accuracy    <          9.4E-09 Ry
     smearing contrib. (-TS)   =       0.00000000 Ry
     internal energy E=F+TS    =     -40.38202385 Ry

     The total energy is F=E-TS. E is the sum of the following terms:
     one-electron contribution =     -95.44476804 Ry
     hartree contribution      =      47.68657389 Ry
     xc contribution           =     -10.45723639 Ry
     ewald contribution        =      15.91664191 Ry
     Dispersion Correction     =      -0.00000245 Ry
     electric field correction =       1.91676723 Ry

     total magnetization       =    -0.00 Bohr mag/cell
     absolute magnetization    =     0.00 Bohr mag/cell

     convergence has been achieved in  11 iterations

     negative rho (up, down):  2.753E-04 2.753E-04

     Forces acting on atoms (cartesian axes, Ry/au):

     atom    1 type  1   force =     0.00000000   -0.00000000   -0.12877867
     atom    2 type  1   force =    -0.00000000    0.00000000    0.12877867

     Total force =     0.128779     Total SCF correction =     0.000134

     BFGS Geometry Optimization
     Energy error            =      0.0E+00
     Gradient error          =      1.3E-01

     number of scf cycles    =   1
     number of bfgs steps    =   0

     energy   new            =     -40.3820238509 Ry

     new trust radius        =       0.1287786678 bohr
     new conv_thr            =       0.0000000100 Ry


ATOMIC_POSITIONS (angstrom)
N            10.0000000000       10.0000000000        0.0000000000    0   0   0
N             9.9999999985       10.0000000006       -1.0618532637



     Writing output data file ./N2_ESM_VA4.save/
     NEW-OLD atomic charge density approx. for the potential

     negative rho (up, down):  2.217E-04 2.217E-04

     Adding external electric field
        E field amplitude [Ha a.u.]: -7.8812E-03
        Potential amp.       -0.5362 Ry
        Total length         34.0151 bohr

     Generating pointlists ...
     new r_m :   0.0219 (alat units)  0.8277 (a.u.) for type    1

     total cpu time spent up to now is      286.5 secs

     Self-consistent Calculation

     iteration #  1     ecut=    60.00 Ry     beta= 0.70
     CG style diagonalization
     ethr =  1.00E-06,  avg # of iterations =  8.4

     negative rho (up, down):  2.843E-04 2.843E-04

     total cpu time spent up to now is      318.0 secs

     total energy              =     -40.37098522 Ry
     estimated scf accuracy    <       0.01111045 Ry

     total magnetization       =    -0.00 Bohr mag/cell
     absolute magnetization    =     0.00 Bohr mag/cell

     iteration #  2     ecut=    60.00 Ry     beta= 0.70
     CG style diagonalization
     ethr =  1.11E-04,  avg # of iterations =  3.6

     negative rho (up, down):  3.181E-04 3.181E-04

     total cpu time spent up to now is      337.9 secs

     total energy              =     -40.37290942 Ry
     estimated scf accuracy    <       0.00093163 Ry

     total magnetization       =    -0.00 Bohr mag/cell
     absolute magnetization    =     0.00 Bohr mag/cell

     iteration #  3     ecut=    60.00 Ry     beta= 0.70
     CG style diagonalization
     ethr =  9.32E-06,  avg # of iterations =  4.0

     negative rho (up, down):  3.303E-04 3.303E-04

     total cpu time spent up to now is      358.8 secs

     total energy              =     -40.37361459 Ry
     estimated scf accuracy    <       0.00004168 Ry

     total magnetization       =     0.00 Bohr mag/cell
     absolute magnetization    =     0.00 Bohr mag/cell

     iteration #  4     ecut=    60.00 Ry     beta= 0.70
     CG style diagonalization
     ethr =  4.17E-07,  avg # of iterations =  3.4

     negative rho (up, down):  3.354E-04 3.354E-04

     total cpu time spent up to now is      378.6 secs

     total energy              =     -40.37361907 Ry
     estimated scf accuracy    <       0.00001655 Ry

     total magnetization       =    -0.00 Bohr mag/cell
     absolute magnetization    =     0.00 Bohr mag/cell

     iteration #  5     ecut=    60.00 Ry     beta= 0.70
     CG style diagonalization
     ethr =  1.66E-07,  avg # of iterations =  3.5

     negative rho (up, down):  3.368E-04 3.368E-04

     total cpu time spent up to now is      398.7 secs

     total energy              =     -40.37362550 Ry
     estimated scf accuracy    <       0.00000470 Ry

     total magnetization       =    -0.00 Bohr mag/cell
     absolute magnetization    =     0.00 Bohr mag/cell

     iteration #  6     ecut=    60.00 Ry     beta= 0.70
     CG style diagonalization
     ethr =  4.70E-08,  avg # of iterations =  3.2

     negative rho (up, down):  3.372E-04 3.372E-04

     total cpu time spent up to now is      418.2 secs

     total energy              =     -40.37362626 Ry
     estimated scf accuracy    <       0.00000009 Ry

     total magnetization       =     0.00 Bohr mag/cell
     absolute magnetization    =     0.00 Bohr mag/cell

     iteration #  7     ecut=    60.00 Ry     beta= 0.70
     CG style diagonalization
     ethr =  8.56E-10,  avg # of iterations =  3.6

     negative rho (up, down):  3.373E-04 3.373E-04

     total cpu time spent up to now is      438.5 secs

     total energy              =     -40.37362634 Ry
     estimated scf accuracy    <       0.00000005 Ry

     total magnetization       =    -0.00 Bohr mag/cell
     absolute magnetization    =     0.00 Bohr mag/cell

     iteration #  8     ecut=    60.00 Ry     beta= 0.70
     CG style diagonalization
     ethr =  4.60E-10,  avg # of iterations =  3.4

     negative rho (up, down):  3.374E-04 3.374E-04

     total cpu time spent up to now is      458.7 secs

     total energy              =     -40.37362636 Ry
     estimated scf accuracy    <       0.00000002 Ry

     total magnetization       =    -0.00 Bohr mag/cell
     absolute magnetization    =     0.00 Bohr mag/cell

     iteration #  9     ecut=    60.00 Ry     beta= 0.70
     CG style diagonalization
     ethr =  1.67E-10,  avg # of iterations =  3.1

     negative rho (up, down):  3.374E-04 3.374E-04

     total cpu time spent up to now is      478.1 secs

     total energy              =     -40.37362635 Ry
     estimated scf accuracy    <       0.00000001 Ry

     total magnetization       =     0.00 Bohr mag/cell
     absolute magnetization    =     0.00 Bohr mag/cell

     iteration # 10     ecut=    60.00 Ry     beta= 0.70
     CG style diagonalization
     ethr =  1.13E-10,  avg # of iterations =  3.2

     negative rho (up, down):  3.374E-04 3.374E-04

     Magnetic moment per site:
     atom:    1    charge:    1.5120    magn:   -0.0000    constr:    0.0000
     atom:    2    charge:    1.5063    magn:    0.0000    constr:    0.0000

     total cpu time spent up to now is      495.6 secs

     End of self-consistent calculation

 ------ SPIN UP ------------


          k = 0.0000 0.0000 0.0000 (423701 PWs)   bands (ev):

   -31.5350 -15.8430 -14.5778 -14.5778 -12.8549  -4.1529  -4.1529  -2.5678
    -2.1813

          k = 0.0000 0.2500 0.0000 (423725 PWs)   bands (ev):

   -31.5350 -15.8430 -14.5778 -14.5778 -12.8549  -4.1529  -4.1529  -2.5575
    -2.2643

          k = 0.0000-0.5000 0.0000 (423542 PWs)   bands (ev):

   -31.5350 -15.8430 -14.5778 -14.5778 -12.8549  -4.1529  -4.1529  -2.5451
    -2.3165

          k = 0.2500 0.0000 0.0000 (423725 PWs)   bands (ev):

   -31.5350 -15.8430 -14.5778 -14.5778 -12.8549  -4.1529  -4.1529  -2.5575
    -2.2658

          k = 0.2500 0.2500 0.0000 (423766 PWs)   bands (ev):

   -31.5350 -15.8430 -14.5778 -14.5778 -12.8549  -4.1529  -4.1529  -2.5479
    -2.2618

          k = 0.2500-0.5000 0.0000 (423782 PWs)   bands (ev):

   -31.5350 -15.8430 -14.5778 -14.5778 -12.8549  -4.1529  -4.1529  -2.5366
    -2.2954

          k = 0.2500-0.2500 0.0000 (423766 PWs)   bands (ev):

   -31.5350 -15.8430 -14.5778 -14.5778 -12.8549  -4.1529  -4.1529  -2.5480
    -2.2637

          k =-0.5000 0.0000 0.0000 (423542 PWs)   bands (ev):

   -31.5350 -15.8430 -14.5778 -14.5778 -12.8549  -4.1529  -4.1529  -2.5450
    -2.3169

          k =-0.5000 0.2500 0.0000 (423782 PWs)   bands (ev):

   -31.5350 -15.8430 -14.5778 -14.5778 -12.8549  -4.1529  -4.1529  -2.5361
    -2.2926

          k =-0.5000-0.5000 0.0000 (423708 PWs)   bands (ev):

   -31.5350 -15.8430 -14.5778 -14.5778 -12.8549  -4.1529  -4.1529  -2.5270
    -2.1864

 ------ SPIN DOWN ----------


          k = 0.0000 0.0000 0.0000 (423701 PWs)   bands (ev):

   -31.5350 -15.8430 -14.5778 -14.5778 -12.8549  -4.1529  -4.1529  -2.5675
    -2.1791

          k = 0.0000 0.2500 0.0000 (423725 PWs)   bands (ev):

   -31.5350 -15.8430 -14.5778 -14.5778 -12.8549  -4.1529  -4.1529  -2.5575
    -2.2653

          k = 0.0000-0.5000 0.0000 (423542 PWs)   bands (ev):

   -31.5350 -15.8430 -14.5778 -14.5778 -12.8549  -4.1529  -4.1529  -2.5451
    -2.3174

          k = 0.2500 0.0000 0.0000 (423725 PWs)   bands (ev):

   -31.5350 -15.8430 -14.5778 -14.5778 -12.8549  -4.1529  -4.1529  -2.5575
    -2.2635

          k = 0.2500 0.2500 0.0000 (423766 PWs)   bands (ev):

   -31.5350 -15.8430 -14.5778 -14.5778 -12.8549  -4.1529  -4.1529  -2.5480
    -2.2636

          k = 0.2500-0.5000 0.0000 (423782 PWs)   bands (ev):

   -31.5350 -15.8430 -14.5778 -14.5778 -12.8549  -4.1529  -4.1529  -2.5365
    -2.2936

          k = 0.2500-0.2500 0.0000 (423766 PWs)   bands (ev):

   -31.5350 -15.8430 -14.5778 -14.5778 -12.8549  -4.1529  -4.1529  -2.5480
    -2.2643

          k =-0.5000 0.0000 0.0000 (423542 PWs)   bands (ev):

   -31.5350 -15.8430 -14.5778 -14.5778 -12.8549  -4.1529  -4.1529  -2.5449
    -2.3166

          k =-0.5000 0.2500 0.0000 (423782 PWs)   bands (ev):

   -31.5350 -15.8430 -14.5778 -14.5778 -12.8549  -4.1529  -4.1529  -2.5365
    -2.2963

          k =-0.5000-0.5000 0.0000 (423708 PWs)   bands (ev):

   -31.5350 -15.8430 -14.5778 -14.5778 -12.8549  -4.1529  -4.1529  -2.5270
    -2.2511

     the Fermi energy is    -9.3820 ev

!    total energy              =     -40.37362636 Ry
     estimated scf accuracy    <          9.3E-10 Ry
     smearing contrib. (-TS)   =       0.00000000 Ry
     internal energy E=F+TS    =     -40.37362636 Ry

     The total energy is F=E-TS. E is the sum of the following terms:
     one-electron contribution =     -98.06870923 Ry
     hartree contribution      =      48.97083035 Ry
     xc contribution           =     -10.62096315 Ry
     ewald contribution        =      17.41830134 Ry
     Dispersion Correction     =      -0.00000221 Ry
     electric field correction =       1.92691653 Ry

     total magnetization       =    -0.00 Bohr mag/cell
     absolute magnetization    =     0.00 Bohr mag/cell

     convergence has been achieved in  10 iterations

     negative rho (up, down):  3.374E-04 3.374E-04

     Forces acting on atoms (cartesian axes, Ry/au):

     atom    1 type  1   force =    -0.00000000    0.00000000    0.29589166
     atom    2 type  1   force =     0.00000000   -0.00000000   -0.29589166

     Total force =     0.295892     Total SCF correction =     0.000039
     Energy error            =      8.4E-03
     Gradient error          =      3.0E-01

     number of scf cycles    =   2
     number of bfgs steps    =   1

     energy   old            =     -40.3820238509 Ry
     energy   new            =     -40.3736263592 Ry

     CASE: energy  _new > energy  _old

     new trust radius        =       0.0427449066 bohr
     new conv_thr            =       0.0000000100 Ry


ATOMIC_POSITIONS (angstrom)
N            10.0000000000       10.0000000000        0.0000000000    0   0   0
N             9.9999999995       10.0000000002       -1.1073803696



     Writing output data file ./N2_ESM_VA4.save/
     NEW-OLD atomic charge density approx. for the potential

     negative rho (up, down):  3.485E-04 3.485E-04

     Adding external electric field
        E field amplitude [Ha a.u.]: -7.8812E-03
        Potential amp.       -0.5362 Ry
        Total length         34.0151 bohr

     Generating pointlists ...

     total cpu time spent up to now is      517.0 secs

     Self-consistent Calculation

     iteration #  1     ecut=    60.00 Ry     beta= 0.70
     CG style diagonalization
     ethr =  1.00E-06,  avg # of iterations =  8.2

     negative rho (up, down):  2.952E-04 2.952E-04

     total cpu time spent up to now is      547.9 secs

     total energy              =     -40.38375516 Ry
     estimated scf accuracy    <       0.00532744 Ry

     total magnetization       =    -0.00 Bohr mag/cell
     absolute magnetization    =     0.00 Bohr mag/cell

     iteration #  2     ecut=    60.00 Ry     beta= 0.70
     CG style diagonalization
     ethr =  5.33E-05,  avg # of iterations =  3.6

     negative rho (up, down):  3.022E-04 3.022E-04

     total cpu time spent up to now is      567.7 secs

     total energy              =     -40.38462907 Ry
     estimated scf accuracy    <       0.00069820 Ry

     total magnetization       =     0.00 Bohr mag/cell
     absolute magnetization    =     0.00 Bohr mag/cell

     iteration #  3     ecut=    60.00 Ry     beta= 0.70
     CG style diagonalization
     ethr =  6.98E-06,  avg # of iterations =  4.0

     negative rho (up, down):  3.017E-04 3.017E-04

     total cpu time spent up to now is      588.7 secs

     total energy              =     -40.38500519 Ry
     estimated scf accuracy    <       0.00035784 Ry

     total magnetization       =     0.00 Bohr mag/cell
     absolute magnetization    =     0.00 Bohr mag/cell

     iteration #  4     ecut=    60.00 Ry     beta= 0.70
     CG style diagonalization
     ethr =  3.58E-06,  avg # of iterations =  3.0

     negative rho (up, down):  2.983E-04 2.983E-04

     total cpu time spent up to now is      607.4 secs

     total energy              =     -40.38508711 Ry
     estimated scf accuracy    <       0.00003877 Ry

     total magnetization       =     0.00 Bohr mag/cell
     absolute magnetization    =     0.00 Bohr mag/cell

     iteration #  5     ecut=    60.00 Ry     beta= 0.70
     CG style diagonalization
     ethr =  3.88E-07,  avg # of iterations =  3.2

     negative rho (up, down):  2.981E-04 2.981E-04

     total cpu time spent up to now is      626.7 secs

     total energy              =     -40.38509445 Ry
     estimated scf accuracy    <       0.00000074 Ry

     total magnetization       =     0.00 Bohr mag/cell
     absolute magnetization    =     0.00 Bohr mag/cell

     iteration #  6     ecut=    60.00 Ry     beta= 0.70
     CG style diagonalization
     ethr =  7.36E-09,  avg # of iterations =  3.6

     negative rho (up, down):  2.981E-04 2.981E-04

     total cpu time spent up to now is      646.9 secs

     total energy              =     -40.38509497 Ry
     estimated scf accuracy    <       0.00000017 Ry

     total magnetization       =     0.00 Bohr mag/cell
     absolute magnetization    =     0.00 Bohr mag/cell

     iteration #  7     ecut=    60.00 Ry     beta= 0.70
     CG style diagonalization
     ethr =  1.70E-09,  avg # of iterations =  3.6

     negative rho (up, down):  2.980E-04 2.980E-04

     total cpu time spent up to now is      667.1 secs

     total energy              =     -40.38509505 Ry
     estimated scf accuracy    <       0.00000001 Ry

     total magnetization       =     0.00 Bohr mag/cell
     absolute magnetization    =     0.00 Bohr mag/cell

     iteration #  8     ecut=    60.00 Ry     beta= 0.70
     CG style diagonalization
     ethr =  1.30E-10,  avg # of iterations =  3.6

     negative rho (up, down):  2.980E-04 2.980E-04

     Magnetic moment per site:
     atom:    1    charge:    1.4723    magn:   -0.0000    constr:    0.0000
     atom:    2    charge:    1.4655    magn:    0.0000    constr:    0.0000

     total cpu time spent up to now is      685.4 secs

     End of self-consistent calculation

 ------ SPIN UP ------------


          k = 0.0000 0.0000 0.0000 (423701 PWs)   bands (ev):

   -30.8275 -16.1565 -14.1837 -14.1837 -12.8178  -4.6892  -4.6892  -2.5761
    -2.1836

          k = 0.0000 0.2500 0.0000 (423725 PWs)   bands (ev):

   -30.8275 -16.1566 -14.1837 -14.1837 -12.8178  -4.6892  -4.6892  -2.5664
    -2.2642

          k = 0.0000-0.5000 0.0000 (423542 PWs)   bands (ev):

   -30.8275 -16.1565 -14.1837 -14.1837 -12.8178  -4.6892  -4.6892  -2.5548
    -2.3150

          k = 0.2500 0.0000 0.0000 (423725 PWs)   bands (ev):

   -30.8275 -16.1566 -14.1837 -14.1837 -12.8178  -4.6892  -4.6892  -2.5664
    -2.2655

          k = 0.2500 0.2500 0.0000 (423766 PWs)   bands (ev):

   -30.8275 -16.1566 -14.1837 -14.1837 -12.8178  -4.6892  -4.6892  -2.5573
    -2.2613

          k = 0.2500-0.5000 0.0000 (423782 PWs)   bands (ev):

   -30.8275 -16.1566 -14.1837 -14.1837 -12.8178  -4.6892  -4.6892  -2.5468
    -2.2936

          k = 0.2500-0.2500 0.0000 (423766 PWs)   bands (ev):

   -30.8275 -16.1566 -14.1837 -14.1837 -12.8178  -4.6892  -4.6892  -2.5574
    -2.2633

          k =-0.5000 0.0000 0.0000 (423542 PWs)   bands (ev):

   -30.8275 -16.1565 -14.1837 -14.1837 -12.8178  -4.6892  -4.6892  -2.5548
    -2.3152

          k =-0.5000 0.2500 0.0000 (423782 PWs)   bands (ev):

   -30.8275 -16.1566 -14.1837 -14.1837 -12.8178  -4.6892  -4.6892  -2.5467
    -2.2911

          k =-0.5000-0.5000 0.0000 (423708 PWs)   bands (ev):

   -30.8275 -16.1566 -14.1837 -14.1837 -12.8178  -4.6892  -4.6892  -2.5378
    -2.1843

 ------ SPIN DOWN ----------


          k = 0.0000 0.0000 0.0000 (423701 PWs)   bands (ev):

   -30.8275 -16.1565 -14.1837 -14.1837 -12.8178  -4.6892  -4.6892  -2.5759
    -2.1813

          k = 0.0000 0.2500 0.0000 (423725 PWs)   bands (ev):

   -30.8275 -16.1566 -14.1837 -14.1837 -12.8178  -4.6892  -4.6892  -2.5664
    -2.2649

          k = 0.0000-0.5000 0.0000 (423542 PWs)   bands (ev):

   -30.8275 -16.1565 -14.1837 -14.1837 -12.8178  -4.6892  -4.6892  -2.5548
    -2.3155

          k = 0.2500 0.0000 0.0000 (423725 PWs)   bands (ev):

   -30.8275 -16.1566 -14.1837 -14.1837 -12.8178  -4.6892  -4.6892  -2.5664
    -2.2635

          k = 0.2500 0.2500 0.0000 (423766 PWs)   bands (ev):

   -30.8275 -16.1566 -14.1837 -14.1837 -12.8178  -4.6892  -4.6892  -2.5574
    -2.2632

          k = 0.2500-0.5000 0.0000 (423782 PWs)   bands (ev):

   -30.8275 -16.1566 -14.1837 -14.1837 -12.8178  -4.6892  -4.6892  -2.5468
    -2.2920

          k = 0.2500-0.2500 0.0000 (423766 PWs)   bands (ev):

   -30.8275 -16.1566 -14.1837 -14.1837 -12.8178  -4.6892  -4.6892  -2.5574
    -2.2637

          k =-0.5000 0.0000 0.0000 (423542 PWs)   bands (ev):

   -30.8275 -16.1565 -14.1837 -14.1837 -12.8178  -4.6892  -4.6892  -2.5548
    -2.3149

          k =-0.5000 0.2500 0.0000 (423782 PWs)   bands (ev):

   -30.8275 -16.1566 -14.1837 -14.1837 -12.8178  -4.6892  -4.6892  -2.5468
    -2.2944

          k =-0.5000-0.5000 0.0000 (423708 PWs)   bands (ev):

   -30.8275 -16.1566 -14.1837 -14.1837 -12.8178  -4.6892  -4.6892  -2.5378
    -2.2495

     the Fermi energy is    -9.2068 ev

!    total energy              =     -40.38509506 Ry
     estimated scf accuracy    <          9.5E-10 Ry
     smearing contrib. (-TS)   =       0.00000000 Ry
     internal energy E=F+TS    =     -40.38509506 Ry

     The total energy is F=E-TS. E is the sum of the following terms:
     one-electron contribution =     -96.29074193 Ry
     hartree contribution      =      48.10001749 Ry
     xc contribution           =     -10.50907145 Ry
     ewald contribution        =      16.39456716 Ry
     Dispersion Correction     =      -0.00000236 Ry
     electric field correction =       1.92013604 Ry

     total magnetization       =     0.00 Bohr mag/cell
     absolute magnetization    =     0.00 Bohr mag/cell

     convergence has been achieved in   8 iterations

     negative rho (up, down):  2.980E-04 2.980E-04

     Forces acting on atoms (cartesian axes, Ry/au):

     atom    1 type  1   force =    -0.00000000    0.00000000   -0.01190893
     atom    2 type  1   force =     0.00000000   -0.00000000    0.01190893

     Total force =     0.011909     Total SCF correction =     0.000012
     Energy error            =      3.1E-03
     Gradient error          =      1.2E-02

     number of scf cycles    =   3
     number of bfgs steps    =   1

     energy   old            =     -40.3820238509 Ry
     energy   new            =     -40.3850950585 Ry

     CASE: energy  _new < energy  _old

     new trust radius        =       0.0043556704 bohr
     new conv_thr            =       0.0000000031 Ry


ATOMIC_POSITIONS (angstrom)
N            10.0000000000       10.0000000000        0.0000000000    0   0   0
N            10.0000000009        9.9999999991       -1.1050754480



     Writing output data file ./N2_ESM_VA4.save/
     NEW-OLD atomic charge density approx. for the potential

     negative rho (up, down):  2.963E-04 2.963E-04

     Adding external electric field
        E field amplitude [Ha a.u.]: -7.8812E-03
        Potential amp.       -0.5362 Ry
        Total length         34.0151 bohr

     Generating pointlists ...

     total cpu time spent up to now is      706.5 secs

     Self-consistent Calculation

     iteration #  1     ecut=    60.00 Ry     beta= 0.70
     CG style diagonalization
     ethr =  1.00E-06,  avg # of iterations =  2.8

     negative rho (up, down):  2.994E-04 2.994E-04

     total cpu time spent up to now is      725.0 secs

     total energy              =     -40.38508895 Ry
     estimated scf accuracy    <       0.00001953 Ry

     total magnetization       =     0.00 Bohr mag/cell
     absolute magnetization    =     0.00 Bohr mag/cell

     iteration #  2     ecut=    60.00 Ry     beta= 0.70
     CG style diagonalization
     ethr =  1.95E-07,  avg # of iterations =  4.2

     negative rho (up, down):  3.000E-04 3.000E-04

     total cpu time spent up to now is      746.4 secs

     total energy              =     -40.38510810 Ry
     estimated scf accuracy    <       0.00006440 Ry

     total magnetization       =    -0.00 Bohr mag/cell
     absolute magnetization    =     0.00 Bohr mag/cell

     iteration #  3     ecut=    60.00 Ry     beta= 0.70
     CG style diagonalization
     ethr =  1.95E-07,  avg # of iterations =  3.3

     negative rho (up, down):  3.004E-04 3.004E-04

     total cpu time spent up to now is      765.8 secs

     total energy              =     -40.38511680 Ry
     estimated scf accuracy    <       0.00000125 Ry

     total magnetization       =     0.00 Bohr mag/cell
     absolute magnetization    =     0.00 Bohr mag/cell

     iteration #  4     ecut=    60.00 Ry     beta= 0.70
     CG style diagonalization
     ethr =  1.25E-08,  avg # of iterations =  3.3

     negative rho (up, down):  3.004E-04 3.004E-04

     total cpu time spent up to now is      785.4 secs

     total energy              =     -40.38511717 Ry
     estimated scf accuracy    <       0.00000019 Ry

     total magnetization       =    -0.00 Bohr mag/cell
     absolute magnetization    =     0.00 Bohr mag/cell

     iteration #  5     ecut=    60.00 Ry     beta= 0.70
     CG style diagonalization
     ethr =  1.92E-09,  avg # of iterations =  3.8

     negative rho (up, down):  3.004E-04 3.004E-04

     total cpu time spent up to now is      806.0 secs

     total energy              =     -40.38511734 Ry
     estimated scf accuracy    <       0.00000011 Ry

     total magnetization       =     0.00 Bohr mag/cell
     absolute magnetization    =     0.00 Bohr mag/cell

     iteration #  6     ecut=    60.00 Ry     beta= 0.70
     CG style diagonalization
     ethr =  1.05E-09,  avg # of iterations =  3.4

     negative rho (up, down):  3.004E-04 3.004E-04

     total cpu time spent up to now is      825.9 secs

     total energy              =     -40.38511736 Ry
     estimated scf accuracy    <       0.00000001 Ry

     total magnetization       =    -0.00 Bohr mag/cell
     absolute magnetization    =     0.00 Bohr mag/cell

     iteration #  7     ecut=    60.00 Ry     beta= 0.70
     CG style diagonalization
     ethr =  1.00E-10,  avg # of iterations =  3.3

     negative rho (up, down):  3.004E-04 3.004E-04

     Magnetic moment per site:
     atom:    1    charge:    1.4741    magn:   -0.0000    constr:    0.0000
     atom:    2    charge:    1.4677    magn:    0.0000    constr:    0.0000

     total cpu time spent up to now is      843.6 secs

     End of self-consistent calculation

 ------ SPIN UP ------------


          k = 0.0000 0.0000 0.0000 (423701 PWs)   bands (ev):

   -30.8631 -16.1408 -14.2027 -14.2027 -12.8198  -4.6630  -4.6630  -2.5756
    -2.1835

          k = 0.0000 0.2500 0.0000 (423725 PWs)   bands (ev):

   -30.8631 -16.1408 -14.2028 -14.2028 -12.8198  -4.6630  -4.6630  -2.5659
    -2.2645

          k = 0.0000-0.5000 0.0000 (423542 PWs)   bands (ev):

   -30.8631 -16.1408 -14.2027 -14.2027 -12.8198  -4.6630  -4.6630  -2.5543
    -2.3152

          k = 0.2500 0.0000 0.0000 (423725 PWs)   bands (ev):

   -30.8631 -16.1408 -14.2028 -14.2028 -12.8198  -4.6630  -4.6630  -2.5659
    -2.2656

          k = 0.2500 0.2500 0.0000 (423766 PWs)   bands (ev):

   -30.8631 -16.1408 -14.2028 -14.2028 -12.8198  -4.6630  -4.6630  -2.5568
    -2.2615

          k = 0.2500-0.5000 0.0000 (423782 PWs)   bands (ev):

   -30.8631 -16.1408 -14.2028 -14.2028 -12.8198  -4.6630  -4.6630  -2.5463
    -2.2938

          k = 0.2500-0.2500 0.0000 (423766 PWs)   bands (ev):

   -30.8631 -16.1408 -14.2028 -14.2028 -12.8198  -4.6630  -4.6630  -2.5569
    -2.2635

          k =-0.5000 0.0000 0.0000 (423542 PWs)   bands (ev):

   -30.8631 -16.1408 -14.2027 -14.2027 -12.8198  -4.6630  -4.6630  -2.5543
    -2.3154

          k =-0.5000 0.2500 0.0000 (423782 PWs)   bands (ev):

   -30.8631 -16.1408 -14.2028 -14.2028 -12.8198  -4.6630  -4.6630  -2.5462
    -2.2915

          k =-0.5000-0.5000 0.0000 (423708 PWs)   bands (ev):

   -30.8631 -16.1408 -14.2028 -14.2028 -12.8198  -4.6630  -4.6630  -2.5372
    -2.1844

 ------ SPIN DOWN ----------


          k = 0.0000 0.0000 0.0000 (423701 PWs)   bands (ev):

   -30.8631 -16.1408 -14.2027 -14.2027 -12.8198  -4.6630  -4.6630  -2.5755
    -2.1814

          k = 0.0000 0.2500 0.0000 (423725 PWs)   bands (ev):

   -30.8631 -16.1408 -14.2028 -14.2028 -12.8198  -4.6630  -4.6630  -2.5659
    -2.2651

          k = 0.0000-0.5000 0.0000 (423542 PWs)   bands (ev):

   -30.8631 -16.1408 -14.2027 -14.2027 -12.8198  -4.6630  -4.6630  -2.5543
    -2.3157

          k = 0.2500 0.0000 0.0000 (423725 PWs)   bands (ev):

   -30.8631 -16.1408 -14.2028 -14.2028 -12.8198  -4.6630  -4.6630  -2.5659
    -2.2640

          k = 0.2500 0.2500 0.0000 (423766 PWs)   bands (ev):

   -30.8631 -16.1408 -14.2028 -14.2028 -12.8198  -4.6630  -4.6630  -2.5569
    -2.2634

          k = 0.2500-0.5000 0.0000 (423782 PWs)   bands (ev):

   -30.8631 -16.1408 -14.2028 -14.2028 -12.8198  -4.6630  -4.6630  -2.5463
    -2.2923

          k = 0.2500-0.2500 0.0000 (423766 PWs)   bands (ev):

   -30.8631 -16.1408 -14.2028 -14.2028 -12.8198  -4.6630  -4.6630  -2.5569
    -2.2638

          k =-0.5000 0.0000 0.0000 (423542 PWs)   bands (ev):

   -30.8631 -16.1408 -14.2027 -14.2027 -12.8198  -4.6630  -4.6630  -2.5543
    -2.3152

          k =-0.5000 0.2500 0.0000 (423782 PWs)   bands (ev):

   -30.8631 -16.1408 -14.2028 -14.2028 -12.8198  -4.6630  -4.6630  -2.5463
    -2.2945

          k =-0.5000-0.5000 0.0000 (423708 PWs)   bands (ev):

   -30.8631 -16.1408 -14.2028 -14.2028 -12.8198  -4.6630  -4.6630  -2.5372
    -2.2498

     the Fermi energy is    -9.2158 ev

!    total energy              =     -40.38511736 Ry
     estimated scf accuracy    <          3.9E-10 Ry
     smearing contrib. (-TS)   =       0.00000000 Ry
     internal energy E=F+TS    =     -40.38511736 Ry

     The total energy is F=E-TS. E is the sum of the following terms:
     one-electron contribution =     -96.37830582 Ry
     hartree contribution      =      48.14283090 Ry
     xc contribution           =     -10.51448639 Ry
     ewald contribution        =      16.44436698 Ry
     Dispersion Correction     =      -0.00000235 Ry
     electric field correction =       1.92047932 Ry

     total magnetization       =    -0.00 Bohr mag/cell
     absolute magnetization    =     0.00 Bohr mag/cell

     convergence has been achieved in   7 iterations

     negative rho (up, down):  3.004E-04 3.004E-04

     Forces acting on atoms (cartesian axes, Ry/au):

     atom    1 type  1   force =    -0.00000000    0.00000000    0.00121842
     atom    2 type  1   force =     0.00000000   -0.00000000   -0.00121842

     Total force =     0.001218     Total SCF correction =     0.000003
     Energy error            =      2.2E-05
     Gradient error          =      1.2E-03

     number of scf cycles    =   4
     number of bfgs steps    =   2

     energy   old            =     -40.3850950585 Ry
     energy   new            =     -40.3851173619 Ry

     CASE: energy  _new < energy  _old

     new trust radius        =       0.0004042744 bohr
     new conv_thr            =       0.0000000003 Ry


ATOMIC_POSITIONS (angstrom)
N            10.0000000000       10.0000000000        0.0000000000    0   0   0
N            10.0000000020        9.9999999983       -1.1052893808



     Writing output data file ./N2_ESM_VA4.save/
     NEW-OLD atomic charge density approx. for the potential

     negative rho (up, down):  3.006E-04 3.006E-04

     Adding external electric field
        E field amplitude [Ha a.u.]: -7.8812E-03
        Potential amp.       -0.5362 Ry
        Total length         34.0151 bohr

     Generating pointlists ...

     total cpu time spent up to now is      864.4 secs

     Self-consistent Calculation

     iteration #  1     ecut=    60.00 Ry     beta= 0.70
     CG style diagonalization
     ethr =  1.00E-06,  avg # of iterations =  2.0

     Threshold (ethr) on eigenvalues was too large:
     Diagonalizing with lowered threshold

     CG style diagonalization
     ethr =  1.47E-09,  avg # of iterations =  3.3

     negative rho (up, down):  3.003E-04 3.003E-04

     total cpu time spent up to now is      891.6 secs

     total energy              =     -40.38511768 Ry
     estimated scf accuracy    <       0.00000010 Ry

     total magnetization       =    -0.00 Bohr mag/cell
     absolute magnetization    =     0.00 Bohr mag/cell

     iteration #  2     ecut=    60.00 Ry     beta= 0.70
     CG style diagonalization
     ethr =  9.89E-10,  avg # of iterations =  3.6

     negative rho (up, down):  3.003E-04 3.003E-04

     total cpu time spent up to now is      911.4 secs

     total energy              =     -40.38511769 Ry
     estimated scf accuracy    <       0.00000003 Ry

     total magnetization       =     0.00 Bohr mag/cell
     absolute magnetization    =     0.00 Bohr mag/cell

     iteration #  3     ecut=    60.00 Ry     beta= 0.70
     CG style diagonalization
     ethr =  2.94E-10,  avg # of iterations =  3.6

     negative rho (up, down):  3.002E-04 3.002E-04

     total cpu time spent up to now is      931.3 secs

     total energy              =     -40.38511770 Ry
     estimated scf accuracy    <       0.00000002 Ry

     total magnetization       =     0.00 Bohr mag/cell
     absolute magnetization    =     0.00 Bohr mag/cell

     iteration #  4     ecut=    60.00 Ry     beta= 0.70
     CG style diagonalization
     ethr =  1.71E-10,  avg # of iterations =  3.0

     negative rho (up, down):  3.002E-04 3.002E-04

     Magnetic moment per site:
     atom:    1    charge:    1.4740    magn:   -0.0000    constr:    0.0000
     atom:    2    charge:    1.4675    magn:    0.0000    constr:    0.0000

     total cpu time spent up to now is      948.4 secs

     End of self-consistent calculation

 ------ SPIN UP ------------


          k = 0.0000 0.0000 0.0000 (423701 PWs)   bands (ev):

   -30.8600 -16.1424 -14.2011 -14.2011 -12.8198  -4.6655  -4.6655  -2.5757
    -2.1835

          k = 0.0000 0.2500 0.0000 (423725 PWs)   bands (ev):

   -30.8600 -16.1424 -14.2011 -14.2011 -12.8198  -4.6655  -4.6655  -2.5660
    -2.2647

          k = 0.0000-0.5000 0.0000 (423542 PWs)   bands (ev):

   -30.8600 -16.1424 -14.2011 -14.2011 -12.8198  -4.6655  -4.6655  -2.5544
    -2.3153

          k = 0.2500 0.0000 0.0000 (423725 PWs)   bands (ev):

   -30.8600 -16.1424 -14.2011 -14.2011 -12.8198  -4.6655  -4.6655  -2.5660
    -2.2656

          k = 0.2500 0.2500 0.0000 (423766 PWs)   bands (ev):

   -30.8600 -16.1424 -14.2011 -14.2011 -12.8198  -4.6655  -4.6655  -2.5569
    -2.2616

          k = 0.2500-0.5000 0.0000 (423782 PWs)   bands (ev):

   -30.8600 -16.1424 -14.2011 -14.2011 -12.8198  -4.6655  -4.6655  -2.5464
    -2.2938

          k = 0.2500-0.2500 0.0000 (423766 PWs)   bands (ev):

   -30.8600 -16.1424 -14.2011 -14.2011 -12.8198  -4.6655  -4.6655  -2.5570
    -2.2636

          k =-0.5000 0.0000 0.0000 (423542 PWs)   bands (ev):

   -30.8600 -16.1424 -14.2011 -14.2011 -12.8198  -4.6655  -4.6655  -2.5544
    -2.3154

          k =-0.5000 0.2500 0.0000 (423782 PWs)   bands (ev):

   -30.8600 -16.1424 -14.2011 -14.2011 -12.8198  -4.6655  -4.6655  -2.5463
    -2.2917

          k =-0.5000-0.5000 0.0000 (423708 PWs)   bands (ev):

   -30.8600 -16.1424 -14.2011 -14.2011 -12.8198  -4.6655  -4.6655  -2.5373
    -2.1844

 ------ SPIN DOWN ----------


          k = 0.0000 0.0000 0.0000 (423701 PWs)   bands (ev):

   -30.8600 -16.1424 -14.2011 -14.2011 -12.8198  -4.6655  -4.6655  -2.5756
    -2.1815

          k = 0.0000 0.2500 0.0000 (423725 PWs)   bands (ev):

   -30.8600 -16.1424 -14.2011 -14.2011 -12.8198  -4.6655  -4.6655  -2.5660
    -2.2652

          k = 0.0000-0.5000 0.0000 (423542 PWs)   bands (ev):

   -30.8600 -16.1424 -14.2011 -14.2011 -12.8198  -4.6655  -4.6655  -2.5544
    -2.3157

          k = 0.2500 0.0000 0.0000 (423725 PWs)   bands (ev):

   -30.8600 -16.1424 -14.2011 -14.2011 -12.8198  -4.6655  -4.6655  -2.5660
    -2.2642

          k = 0.2500 0.2500 0.0000 (423766 PWs)   bands (ev):

   -30.8600 -16.1424 -14.2011 -14.2011 -12.8198  -4.6655  -4.6655  -2.5570
    -2.2634

          k = 0.2500-0.5000 0.0000 (423782 PWs)   bands (ev):

   -30.8600 -16.1424 -14.2011 -14.2011 -12.8198  -4.6655  -4.6655  -2.5464
    -2.2925

          k = 0.2500-0.2500 0.0000 (423766 PWs)   bands (ev):

   -30.8600 -16.1424 -14.2011 -14.2011 -12.8198  -4.6655  -4.6655  -2.5570
    -2.2638

          k =-0.5000 0.0000 0.0000 (423542 PWs)   bands (ev):

   -30.8600 -16.1424 -14.2011 -14.2011 -12.8198  -4.6655  -4.6655  -2.5544
    -2.3153

          k =-0.5000 0.2500 0.0000 (423782 PWs)   bands (ev):

   -30.8600 -16.1424 -14.2011 -14.2011 -12.8198  -4.6655  -4.6655  -2.5464
    -2.2945

          k =-0.5000-0.5000 0.0000 (423708 PWs)   bands (ev):

   -30.8600 -16.1424 -14.2011 -14.2011 -12.8198  -4.6655  -4.6655  -2.5373
    -2.2499

     the Fermi energy is    -9.2150 ev

!    total energy              =     -40.38511771 Ry
     estimated scf accuracy    <          2.7E-10 Ry
     smearing contrib. (-TS)   =       0.00000000 Ry
     internal energy E=F+TS    =     -40.38511771 Ry

     The total energy is F=E-TS. E is the sum of the following terms:
     one-electron contribution =     -96.37021824 Ry
     hartree contribution      =      48.13891502 Ry
     xc contribution           =     -10.51399561 Ry
     ewald contribution        =      16.43973602 Ry
     Dispersion Correction     =      -0.00000235 Ry
     electric field correction =       1.92044746 Ry

     total magnetization       =    -0.00 Bohr mag/cell
     absolute magnetization    =     0.00 Bohr mag/cell

     convergence has been achieved in   4 iterations

     negative rho (up, down):  3.002E-04 3.002E-04

     Forces acting on atoms (cartesian axes, Ry/au):

     atom    1 type  1   force =    -0.00000000    0.00000000   -0.00000575
     atom    2 type  1   force =     0.00000000   -0.00000000    0.00000575

     Total force =     0.000006     Total SCF correction =     0.000012
     SCF correction compared to forces is large: reduce conv_thr to get better values
     Energy error            =      3.4E-07
     Gradient error          =      5.8E-06
Begin final coordinates

ATOMIC_POSITIONS (angstrom)
N            10.0000000000       10.0000000000        0.0000000000    0   0   0
N            10.0000000020        9.9999999983       -1.1052893808
End final coordinates



     Writing output data file ./N2_ESM_VA4.save/

     lsda relaxation :  a final configuration with zero
                        absolute magnetization has been found

     the program is checking if it is really the minimum energy structure
     by performing a new scf iteration without any "electronic" history

     Initial potential from superposition of free atoms

     starting charge    9.99999, renormalised to   10.00000

     negative rho (up, down):  1.334E-04 1.091E-04

     total cpu time spent up to now is      967.0 secs

     Self-consistent Calculation

     iteration #  1     ecut=    60.00 Ry     beta= 0.70
     CG style diagonalization
     ethr =  1.00E-06,  avg # of iterations =  9.2

     negative rho (up, down):  2.479E-04 2.412E-04

     total cpu time spent up to now is     1000.6 secs

     total energy              =     -40.35086669 Ry
     estimated scf accuracy    <       0.16306531 Ry

     total magnetization       =    -0.00 Bohr mag/cell
     absolute magnetization    =     0.06 Bohr mag/cell

     iteration #  2     ecut=    60.00 Ry     beta= 0.70
     CG style diagonalization
     ethr =  1.63E-03,  avg # of iterations =  3.6

     negative rho (up, down):  2.699E-04 2.687E-04

     total cpu time spent up to now is     1020.6 secs

     total energy              =     -40.36614653 Ry
     estimated scf accuracy    <       0.03453103 Ry

     total magnetization       =     0.00 Bohr mag/cell
     absolute magnetization    =     0.03 Bohr mag/cell

     iteration #  3     ecut=    60.00 Ry     beta= 0.70
     CG style diagonalization
     ethr =  3.45E-04,  avg # of iterations =  3.7

     negative rho (up, down):  3.078E-04 3.084E-04

     total cpu time spent up to now is     1040.9 secs

     total energy              =     -40.37810425 Ry
     estimated scf accuracy    <       0.03758254 Ry

     total magnetization       =     0.00 Bohr mag/cell
     absolute magnetization    =     0.02 Bohr mag/cell

     iteration #  4     ecut=    60.00 Ry     beta= 0.70
     CG style diagonalization
     ethr =  3.45E-04,  avg # of iterations =  3.0

     negative rho (up, down):  2.961E-04 2.957E-04

     total cpu time spent up to now is     1059.7 secs

     total energy              =     -40.38481706 Ry
     estimated scf accuracy    <       0.00027850 Ry

     total magnetization       =    -0.00 Bohr mag/cell
     absolute magnetization    =     0.01 Bohr mag/cell

     iteration #  5     ecut=    60.00 Ry     beta= 0.70
     CG style diagonalization
     ethr =  2.79E-06,  avg # of iterations =  6.1

     negative rho (up, down):  2.988E-04 2.984E-04

     total cpu time spent up to now is     1085.7 secs

     total energy              =     -40.38510412 Ry
     estimated scf accuracy    <       0.00018206 Ry

     total magnetization       =     0.00 Bohr mag/cell
     absolute magnetization    =     0.00 Bohr mag/cell

     iteration #  6     ecut=    60.00 Ry     beta= 0.70
     CG style diagonalization
     ethr =  1.82E-06,  avg # of iterations =  3.4

     negative rho (up, down):  3.000E-04 2.999E-04

     total cpu time spent up to now is     1105.6 secs

     total energy              =     -40.38510076 Ry
     estimated scf accuracy    <       0.00005127 Ry

     total magnetization       =     0.00 Bohr mag/cell
     absolute magnetization    =     0.00 Bohr mag/cell

     iteration #  7     ecut=    60.00 Ry     beta= 0.70
     CG style diagonalization
     ethr =  5.13E-07,  avg # of iterations =  3.4

     negative rho (up, down):  3.001E-04 3.000E-04

     total cpu time spent up to now is     1125.5 secs

     total energy              =     -40.38511579 Ry
     estimated scf accuracy    <       0.00000722 Ry

     total magnetization       =    -0.00 Bohr mag/cell
     absolute magnetization    =     0.00 Bohr mag/cell

     iteration #  8     ecut=    60.00 Ry     beta= 0.70
     CG style diagonalization
     ethr =  7.22E-08,  avg # of iterations =  3.3

     negative rho (up, down):  3.002E-04 3.001E-04

     total cpu time spent up to now is     1145.4 secs

     total energy              =     -40.38511752 Ry
     estimated scf accuracy    <       0.00000029 Ry

     total magnetization       =    -0.00 Bohr mag/cell
     absolute magnetization    =     0.00 Bohr mag/cell

     iteration #  9     ecut=    60.00 Ry     beta= 0.70
     CG style diagonalization
     ethr =  2.93E-09,  avg # of iterations =  3.6

     negative rho (up, down):  3.002E-04 3.002E-04

     total cpu time spent up to now is     1166.0 secs

     total energy              =     -40.38511769 Ry
     estimated scf accuracy    <       0.00000002 Ry

     total magnetization       =     0.00 Bohr mag/cell
     absolute magnetization    =     0.00 Bohr mag/cell

     iteration # 10     ecut=    60.00 Ry     beta= 0.70
     CG style diagonalization
     ethr =  1.63E-10,  avg # of iterations =  4.3

     negative rho (up, down):  3.002E-04 3.002E-04

     total cpu time spent up to now is     1188.2 secs

     total energy              =     -40.38511770 Ry
     estimated scf accuracy    <       0.00000006 Ry

     total magnetization       =    -0.00 Bohr mag/cell
     absolute magnetization    =     0.00 Bohr mag/cell

     iteration # 11     ecut=    60.00 Ry     beta= 0.70
     CG style diagonalization
     ethr =  1.63E-10,  avg # of iterations =  3.3

     negative rho (up, down):  3.002E-04 3.002E-04

     total cpu time spent up to now is     1208.4 secs

     total energy              =     -40.38511771 Ry
     estimated scf accuracy    <          5.9E-10 Ry

     total magnetization       =    -0.00 Bohr mag/cell
     absolute magnetization    =     0.00 Bohr mag/cell

     iteration # 12     ecut=    60.00 Ry     beta= 0.70
     CG style diagonalization
     ethr =  5.91E-12,  avg # of iterations =  4.1

     negative rho (up, down):  3.002E-04 3.002E-04

     Magnetic moment per site:
     atom:    1    charge:    1.4740    magn:    0.0000    constr:    0.0000
     atom:    2    charge:    1.4674    magn:   -0.0000    constr:    0.0000

     total cpu time spent up to now is     1227.9 secs

     End of self-consistent calculation

 ------ SPIN UP ------------


          k = 0.0000 0.0000 0.0000 (423701 PWs)   bands (ev):

   -30.8599 -16.1424 -14.2011 -14.2011 -12.8197  -4.6655  -4.6655  -2.5756
    -2.1833

          k = 0.0000 0.2500 0.0000 (423725 PWs)   bands (ev):

   -30.8599 -16.1424 -14.2011 -14.2011 -12.8197  -4.6655  -4.6655  -2.5658
    -2.2652

          k = 0.0000-0.5000 0.0000 (423542 PWs)   bands (ev):

   -30.8599 -16.1424 -14.2011 -14.2011 -12.8197  -4.6655  -4.6655  -2.5543
    -2.3156

          k = 0.2500 0.0000 0.0000 (423725 PWs)   bands (ev):

   -30.8599 -16.1424 -14.2011 -14.2011 -12.8197  -4.6655  -4.6655  -2.5660
    -2.2659

          k = 0.2500 0.2500 0.0000 (423766 PWs)   bands (ev):

   -30.8599 -16.1424 -14.2011 -14.2011 -12.8197  -4.6655  -4.6655  -2.5565
    -2.2620

          k = 0.2500-0.5000 0.0000 (423782 PWs)   bands (ev):

   -30.8599 -16.1424 -14.2011 -14.2011 -12.8197  -4.6655  -4.6655  -2.5458
    -2.2940

          k = 0.2500-0.2500 0.0000 (423766 PWs)   bands (ev):

   -30.8599 -16.1424 -14.2011 -14.2011 -12.8197  -4.6655  -4.6655  -2.5569
    -2.2636

          k =-0.5000 0.0000 0.0000 (423542 PWs)   bands (ev):

   -30.8599 -16.1424 -14.2011 -14.2011 -12.8197  -4.6655  -4.6655  -2.5544
    -2.3156

          k =-0.5000 0.2500 0.0000 (423782 PWs)   bands (ev):

   -30.8599 -16.1424 -14.2011 -14.2011 -12.8197  -4.6655  -4.6655  -2.5461
    -2.2934

          k =-0.5000-0.5000 0.0000 (423708 PWs)   bands (ev):

   -30.8599 -16.1424 -14.2011 -14.2011 -12.8197  -4.6655  -4.6655  -2.5373
    -2.1844

 ------ SPIN DOWN ----------


          k = 0.0000 0.0000 0.0000 (423701 PWs)   bands (ev):

   -30.8599 -16.1424 -14.2011 -14.2011 -12.8197  -4.6655  -4.6655  -2.5754
    -2.1817

          k = 0.0000 0.2500 0.0000 (423725 PWs)   bands (ev):

   -30.8599 -16.1424 -14.2011 -14.2011 -12.8197  -4.6655  -4.6655  -2.5657
    -2.2654

          k = 0.0000-0.5000 0.0000 (423542 PWs)   bands (ev):

   -30.8599 -16.1424 -14.2011 -14.2011 -12.8197  -4.6655  -4.6655  -2.5541
    -2.3157

          k = 0.2500 0.0000 0.0000 (423725 PWs)   bands (ev):

   -30.8599 -16.1424 -14.2011 -14.2011 -12.8197  -4.6655  -4.6655  -2.5658
    -2.2656

          k = 0.2500 0.2500 0.0000 (423766 PWs)   bands (ev):

   -30.8599 -16.1424 -14.2011 -14.2011 -12.8197  -4.6655  -4.6655  -2.5566
    -2.2637

          k = 0.2500-0.5000 0.0000 (423782 PWs)   bands (ev):

   -30.8599 -16.1424 -14.2011 -14.2011 -12.8197  -4.6655  -4.6655  -2.5462
    -2.2934

          k = 0.2500-0.2500 0.0000 (423766 PWs)   bands (ev):

   -30.8599 -16.1424 -14.2011 -14.2011 -12.8197  -4.6655  -4.6655  -2.5566
    -2.2638

          k =-0.5000 0.0000 0.0000 (423542 PWs)   bands (ev):

   -30.8599 -16.1424 -14.2011 -14.2011 -12.8197  -4.6655  -4.6655  -2.5541
    -2.3154

          k =-0.5000 0.2500 0.0000 (423782 PWs)   bands (ev):

   -30.8599 -16.1424 -14.2011 -14.2011 -12.8197  -4.6655  -4.6655  -2.5463
    -2.2945

          k =-0.5000-0.5000 0.0000 (423708 PWs)   bands (ev):

   -30.8599 -16.1424 -14.2011 -14.2011 -12.8197  -4.6655  -4.6655  -2.5371
    -2.2503

     the Fermi energy is    -9.2152 ev

!    total energy              =     -40.38511771 Ry
     estimated scf accuracy    <          6.5E-11 Ry
     smearing contrib. (-TS)   =       0.00000000 Ry
     internal energy E=F+TS    =     -40.38511771 Ry

     The total energy is F=E-TS. E is the sum of the following terms:
     one-electron contribution =     -96.37019112 Ry
     hartree contribution      =      48.13888253 Ry
     xc contribution           =     -10.51399024 Ry
     ewald contribution        =      16.43973602 Ry
     Dispersion Correction     =      -0.00000235 Ry
     electric field correction =       1.92044746 Ry

     total magnetization       =     0.00 Bohr mag/cell
     absolute magnetization    =     0.00 Bohr mag/cell

     convergence has been achieved in  12 iterations

     negative rho (up, down):  3.002E-04 3.002E-04

     Forces acting on atoms (cartesian axes, Ry/au):

     atom    1 type  1   force =    -0.00000000    0.00000000   -0.00000114
     atom    2 type  1   force =     0.00000000   -0.00000000    0.00000114

     Total force =     0.000001     Total SCF correction =     0.000002
     SCF correction compared to forces is large: reduce conv_thr to get better values
     Energy error            =      3.4E-07
     Gradient error          =      1.1E-06

     bfgs converged in   5 scf cycles and   3 bfgs steps
     (criteria: energy <  7.3E-07 Ry, force <  3.9E-04 Ry/Bohr)

     End of BFGS Geometry Optimization

     Final energy   =     -40.3851177065 Ry

     File ./N2_ESM_VA4.bfgs deleted, as requested
Begin final coordinates

ATOMIC_POSITIONS (angstrom)
N            10.0000000000       10.0000000000        0.0000000000    0   0   0
N            10.0000000020        9.9999999983       -1.1052893808
End final coordinates



     Writing output data file ./N2_ESM_VA4.save/

     init_run     :     19.93s CPU     21.09s WALL (       1 calls)
     electrons    :   1048.56s CPU   1120.31s WALL (       6 calls)
     update_pot   :     29.21s CPU     30.92s WALL (       4 calls)
     forces       :     46.57s CPU     50.11s WALL (       6 calls)

     Called by init_run:
     wfcinit      :      1.96s CPU      2.02s WALL (       1 calls)
     potinit      :     14.36s CPU     15.52s WALL (       2 calls)
     hinit0       :      0.95s CPU      1.12s WALL (       1 calls)

     Called by electrons:
     c_bands      :    465.48s CPU    472.48s WALL (      53 calls)
     sum_band     :    125.39s CPU    129.52s WALL (      53 calls)
     v_of_rho     :    322.39s CPU    351.87s WALL (      58 calls)
     newd         :     47.46s CPU     49.32s WALL (      58 calls)
     mix_rho      :     68.02s CPU     83.30s WALL (      53 calls)

     Called by c_bands:
     init_us_2    :      2.07s CPU      2.15s WALL (     339 calls)
     ccgdiagg     :    370.44s CPU    374.72s WALL (     159 calls)
     wfcrot       :     89.25s CPU     90.27s WALL (     141 calls)

     Called by *cgdiagg:
     h_psi        :    390.40s CPU    394.91s WALL (    4644 calls)
     s_psi        :     28.29s CPU     28.60s WALL (    9147 calls)

     Called by h_psi:
     h_psi:calbec :     17.67s CPU     17.88s WALL (    4644 calls)
     vloc_psi     :    349.71s CPU    353.79s WALL (    4644 calls)
     add_vuspsi   :     20.99s CPU     21.22s WALL (    4644 calls)
     hs_1psi      :    321.76s CPU    325.49s WALL (    4503 calls)
     s_1psi       :     30.64s CPU     30.98s WALL (    4503 calls)

     General routines
     calbec       :     34.90s CPU     35.33s WALL (    9378 calls)
     fft          :    352.69s CPU    362.16s WALL (    1532 calls)
     ffts         :     18.33s CPU     18.48s WALL (     222 calls)
     fftw         :    326.35s CPU    330.02s WALL (   12975 calls)
     interpolate  :     39.44s CPU     41.99s WALL (     116 calls)
     davcio       :      0.17s CPU      8.90s WALL (    1023 calls)

     Parallel routines
     fft_scatt_xy :    112.10s CPU    113.42s WALL (   14729 calls)
     fft_scatt_yz :    245.24s CPU    247.98s WALL (   14729 calls)

     PWSCF        :  19m21.37s CPU  20m41.61s WALL


   This run was terminated on:  21: 7:43  28Sep2022            

=------------------------------------------------------------------------------=
   JOB DONE.
=------------------------------------------------------------------------------=
