
     Program PWSCF v.6.4.1 starts on 15Jun2022 at 15: 7:35 

     This program is part of the open-source Quantum ESPRESSO suite
     for quantum simulation of materials; please cite
         "P. Giannozzi et al., J. Phys.:Condens. Matter 21 395502 (2009);
         "P. Giannozzi et al., J. Phys.:Condens. Matter 29 465901 (2017);
          URL http://www.quantum-espresso.org", 
     in publications or presentations arising from this work. More details at
     http://www.quantum-espresso.org/quote

     Parallel version (MPI), running on   160 processors

     MPI processes distributed on     8 nodes
     K-points division:     npool     =       8
     R & G space division:  proc/nbgrp/npool/nimage =      20
     Waiting for input...
     Reading input from standard input
Warning: card &CELL ignored
Warning: card / ignored

     Current dimensions of program PWSCF are:
     Max number of different atomic species (ntypx) = 10
     Max number of k-points (npk) =  40000
     Max angular momentum in pseudopotentials (lmaxx) =  3

     IMPORTANT: XC functional enforced from input :
     Exchange-correlation      = PBE ( 1  4  3  4 0 0)
     Any further DFT definition will be discarded
     Please, verify this is what you really want

               file Fe.pbe-spn-kjpaw_psl.0.2.1.UPF: wavefunction(s)  3D renormalized

     -------------------------------------------------
     Parameters for Dispersion (Grimme-D2) Correction:
     -------------------------------------------------
       atom      VdW radius       C_6     

        Fe         2.952        374.666
        H          1.892          4.857

     Subspace diagonalization in iterative solution of the eigenvalue problem:
     one sub-group per band group will be used
     scalapack distributed-memory algorithm (size of sub-group:  3*  3 procs)


     Parallelization info
     --------------------
     sticks:   dense  smooth     PW     G-vecs:    dense   smooth      PW
     Min         634     317     83               145278    51361    6989
     Max         635     318     84               145287    51370    7000
     Sum       12685    6351   1677              2905599  1027285  139897



     bravais-lattice index     =            0
     lattice parameter (alat)  =      18.7640  a.u.
     unit-cell volume          =   16360.3163 (a.u.)^3
     number of atoms/cell      =           65
     number of atomic types    =            2
     number of electrons       =      1025.00
     number of Kohn-Sham states=          616
     kinetic-energy cutoff     =      60.0000  Ry
     charge density cutoff     =     480.0000  Ry
     convergence threshold     =      1.0E-08
     mixing beta               =       0.2000
     number of iterations used =           10  local-TF  mixing
     Exchange-correlation      = PBE ( 1  4  3  4 0 0)
     nstep                     =           50


     Effective Screening Medium Method
     =================================
     Boundary Conditions: Metal-Slab-Metal
     field strength                   =    -0.02 Ry/a.u.
     grid points for fit at edges     =        4 


     celldm(1)=  18.764036  celldm(2)=   0.000000  celldm(3)=   0.000000
     celldm(4)=   0.000000  celldm(5)=   0.000000  celldm(6)=   0.000000

     crystal axes: (cart. coord. in units of alat)
               a(1) = (   1.000000   0.000000   0.000000 )  
               a(2) = (   0.333330   0.942807   0.000000 )  
               a(3) = (   0.000000   0.000000   2.626577 )  

     reciprocal axes: (cart. coord. in units 2 pi/alat)
               b(1) = (  1.000000 -0.353551  0.000000 )  
               b(2) = (  0.000000  1.060663  0.000000 )  
               b(3) = (  0.000000  0.000000  0.380724 )  


     PseudoPot. # 1 for Fe read from file:
     ../../SSSP/Fe.pbe-spn-kjpaw_psl.0.2.1.UPF
     MD5 check sum: e86618425769142926afa95317d90200
     Pseudo is Projector augmented-wave + core cor, Zval = 16.0
     Generated using "atomic" code by A. Dal Corso v.5.0.99 svn rev. 10869
     Shape of augmentation charge: PSQ
     Using radial grid of 1191 points,  6 beta functions with: 
                l(1) =   0
                l(2) =   0
                l(3) =   1
                l(4) =   1
                l(5) =   2
                l(6) =   2
     Q(r) pseudized with 0 coefficients 


     PseudoPot. # 2 for H  read from file:
     ../../SSSP/H.pbe-rrkjus_psl.1.0.0.UPF
     MD5 check sum: f52b6d4d1c606e5624b1dc7b2218f220
     Pseudo is Ultrasoft, Zval =  1.0
     Generated using "atomic" code by A. Dal Corso v.5.1
     Using radial grid of  929 points,  2 beta functions with: 
                l(1) =   0
                l(2) =   0
     Q(r) pseudized with 0 coefficients 


     atomic species   valence    mass     pseudopotential
        Fe            16.00    55.84500     Fe( 1.00)
        H              1.00     1.00800     H ( 1.00)

     Starting magnetic structure 
     atomic species   magnetization
        Fe           0.100
        H            0.100

     No symmetry found



   Cartesian axes

     site n.     atom                  positions (alat units)
         1           Fe  tau(   1) = (   0.1666663   0.1178509   0.0000000  )
         2           Fe  tau(   2) = (   0.0000000   0.0000000   0.2041376  )
         3           Fe  tau(   3) = (   0.4999989   0.3535526   0.0000000  )
         4           Fe  tau(   4) = (   0.3333326   0.2357017   0.2041376  )
         5           Fe  tau(   5) = (   0.1662190   0.1177084   0.4056103  )
         6           Fe  tau(   6) = (   0.3327911   0.9435645   0.6049621  )
         7           Fe  tau(   7) = (   0.4997857   0.3534152   0.4058247  )
         8           Fe  tau(   8) = (   0.3323518   0.2356626   0.6043726  )
         9           Fe  tau(   9) = (   0.2499989   0.3535526   0.0000000  )
        10           Fe  tau(  10) = (   0.4166663   0.1178509   0.0000000  )
        11           Fe  tau(  11) = (   0.0833326   0.2357017   0.2041376  )
        12           Fe  tau(  12) = (   0.2500000   0.0000000   0.2041376  )
        13           Fe  tau(  13) = (   0.2498586   0.3535814   0.4056765  )
        14           Fe  tau(  14) = (   0.4163663   0.1176825   0.4056133  )
        15           Fe  tau(  15) = (   0.0830340   0.2358905   0.6048889  )
        16           Fe  tau(  16) = (   0.2494028  -0.0003380   0.6053016  )
        17           Fe  tau(  17) = (   0.6666663   0.1178509   0.0000000  )
        18           Fe  tau(  18) = (   0.5000000   0.0000000   0.2041376  )
        19           Fe  tau(  19) = (   0.9999989   0.3535526   0.0000000  )
        20           Fe  tau(  20) = (   0.8333326   0.2357017   0.2041376  )
        21           Fe  tau(  21) = (   0.6664466   0.1177377   0.4058354  )
        22           Fe  tau(  22) = (   0.4995632  -0.0008388   0.6043512  )
        23           Fe  tau(  23) = (   1.0001184   0.3537083   0.4054265  )
        24           Fe  tau(  24) = (   0.8333348   0.2361025   0.6054343  )
        25           Fe  tau(  25) = (   0.7499989   0.3535526   0.0000000  )
        26           Fe  tau(  26) = (   0.9166663   0.1178509   0.0000000  )
        27           Fe  tau(  27) = (   0.5833326   0.2357017   0.2041376  )
        28           Fe  tau(  28) = (   0.7500000   0.0000000   0.2041376  )
        29           Fe  tau(  29) = (   0.7498237   0.3534375   0.4048894  )
        30           Fe  tau(  30) = (   0.9161579   0.1182427   0.4061936  )
        31           Fe  tau(  31) = (   0.5817155   0.2346237   0.6048878  )
        32           Fe  tau(  32) = (   1.0836539   0.9433692   0.6048271  )
        33           Fe  tau(  33) = (   0.3333315   0.5892543   0.0000000  )
        34           Fe  tau(  34) = (   0.1666652   0.4714034   0.2041376  )
        35           Fe  tau(  35) = (   0.6666640   0.8249560   0.0000000  )
        36           Fe  tau(  36) = (   0.4999978   0.7071052   0.2041376  )
        37           Fe  tau(  37) = (   0.3335031   0.5893548   0.4056561  )
        38           Fe  tau(  38) = (   1.1663206   0.4719697   0.6046230  )
        39           Fe  tau(  39) = (   0.6663427   0.8246626   0.4056190  )
        40           Fe  tau(  40) = (   0.5004260   0.7064848   0.6050130  )
        41           Fe  tau(  41) = (   0.4166640   0.8249560   0.0000000  )
        42           Fe  tau(  42) = (   0.5833315   0.5892543   0.0000000  )
        43           Fe  tau(  43) = (   0.2499978   0.7071052   0.2041376  )
        44           Fe  tau(  44) = (   0.4166652   0.4714034   0.2041376  )
        45           Fe  tau(  45) = (   0.4165396   0.8249356   0.4057939  )
        46           Fe  tau(  46) = (   0.5834722   0.5887213   0.4062029  )
        47           Fe  tau(  47) = (   1.2504112   0.7075005   0.6049033  )
        48           Fe  tau(  48) = (   0.4172384   0.4716337   0.6048084  )
        49           Fe  tau(  49) = (   0.8333315   0.5892543   0.0000000  )
        50           Fe  tau(  50) = (   0.6666652   0.4714034   0.2041376  )
        51           Fe  tau(  51) = (   1.1666640   0.8249560   0.0000000  )
        52           Fe  tau(  52) = (   0.9999978   0.7071052   0.2041376  )
        53           Fe  tau(  53) = (   0.8334921   0.5893570   0.4054289  )
        54           Fe  tau(  54) = (   0.6669727   0.4713538   0.6053815  )
        55           Fe  tau(  55) = (   1.1667703   0.8251784   0.4056510  )
        56           Fe  tau(  56) = (   1.0003273   0.7066843   0.6046484  )
        57           Fe  tau(  57) = (   0.9166640   0.8249560   0.0000000  )
        58           Fe  tau(  58) = (   1.0833315   0.5892543   0.0000000  )
        59           Fe  tau(  59) = (   0.7499978   0.7071052   0.2041376  )
        60           Fe  tau(  60) = (   0.9166652   0.4714034   0.2041376  )
        61           Fe  tau(  61) = (   0.9166297   0.8248757   0.4056737  )
        62           Fe  tau(  62) = (   1.0834496   0.5893883   0.4056809  )
        63           Fe  tau(  63) = (   0.7499710   0.7068495   0.6049051  )
        64           Fe  tau(  64) = (   0.9168786   0.4716099   0.6042537  )
        65           H   tau(  65) = (   0.7923433   0.3836379   0.6989544  )

     number of k points=    10  Methfessel-Paxton smearing, width (Ry)=  0.0100
                       cart. coord. in units 2pi/alat
        k(    1) = (   0.0000000   0.0000000   0.0000000), wk =   0.0625000
        k(    2) = (   0.0000000   0.2651656   0.0000000), wk =   0.1250000
        k(    3) = (   0.0000000  -0.5303313   0.0000000), wk =   0.0625000
        k(    4) = (   0.2500000  -0.0883878   0.0000000), wk =   0.1250000
        k(    5) = (   0.2500000   0.1767779   0.0000000), wk =   0.1250000
        k(    6) = (   0.2500000  -0.6187190   0.0000000), wk =   0.1250000
        k(    7) = (   0.2500000  -0.3535534   0.0000000), wk =   0.1250000
        k(    8) = (  -0.5000000   0.1767755   0.0000000), wk =   0.0625000
        k(    9) = (  -0.5000000   0.4419412   0.0000000), wk =   0.1250000
        k(   10) = (  -0.5000000  -0.3535558   0.0000000), wk =   0.0625000

     Dense  grid:  2905599 G-vectors     FFT dimensions: ( 135, 135, 360)

     Smooth grid:  1027285 G-vectors     FFT dimensions: (  96,  96, 243)

     Estimated max dynamical RAM per process >    1022.28 MB

     Estimated total dynamical RAM >     159.73 GB
     Generating pointlists ...
     new r_m :   0.0740 (alat units)  1.3882 (a.u.) for type    1
     new r_m :   0.0740 (alat units)  1.3882 (a.u.) for type    2

     Check: negative core charge=   -0.000039

     Initial potential from superposition of free atoms

     starting charge 1024.97193, renormalised to 1025.00000

     negative rho (up, down):  2.478E-02 2.522E-03
     Starting wfcs are  833 randomized atomic wfcs
     Checking if some PAW data can be deallocated... 

     total cpu time spent up to now is       80.8 secs

     Self-consistent Calculation

     iteration #  1     ecut=    60.00 Ry     beta= 0.20
     Davidson diagonalization with overlap
     ethr =  1.00E-04,  avg # of iterations = 18.4

     negative rho (up, down):  1.518E-02 3.234E-03

     total cpu time spent up to now is     1096.8 secs

     total energy              =  -21057.91493784 Ry
     Harris-Foulkes estimate   =  -21080.30911694 Ry
     estimated scf accuracy    <    1169.04790115 Ry

     total magnetization       =    69.10 Bohr mag/cell
     absolute magnetization    =    70.98 Bohr mag/cell

     iteration #  2     ecut=    60.00 Ry     beta= 0.20
     Davidson diagonalization with overlap
     ethr =  1.00E-02,  avg # of iterations =  1.0

     negative rho (up, down):  1.271E-02 2.847E-02

     total cpu time spent up to now is     1226.9 secs

     total energy              =  -21070.51700860 Ry
     Harris-Foulkes estimate   =  -21077.65822526 Ry
     estimated scf accuracy    <     373.95528582 Ry

     total magnetization       =    81.27 Bohr mag/cell
     absolute magnetization    =    83.41 Bohr mag/cell

     iteration #  3     ecut=    60.00 Ry     beta= 0.20
     Davidson diagonalization with overlap
     ethr =  1.00E-02,  avg # of iterations =  1.0

     negative rho (up, down):  1.003E-02 6.159E-02

     total cpu time spent up to now is     1364.8 secs

     total energy              =  -21073.37967092 Ry
     Harris-Foulkes estimate   =  -21073.63222003 Ry
     estimated scf accuracy    <      15.31261584 Ry

     total magnetization       =   120.97 Bohr mag/cell
     absolute magnetization    =   121.59 Bohr mag/cell

     iteration #  4     ecut=    60.00 Ry     beta= 0.20
     Davidson diagonalization with overlap
     ethr =  1.49E-03,  avg # of iterations =  1.0

     negative rho (up, down):  7.359E-03 6.907E-02

     total cpu time spent up to now is     1496.5 secs

     total energy              =  -21073.46409779 Ry
     Harris-Foulkes estimate   =  -21073.51416023 Ry
     estimated scf accuracy    <      18.04274901 Ry

     total magnetization       =   128.20 Bohr mag/cell
     absolute magnetization    =   128.75 Bohr mag/cell

     iteration #  5     ecut=    60.00 Ry     beta= 0.20
     Davidson diagonalization with overlap
     ethr =  1.49E-03,  avg # of iterations =  1.0

     negative rho (up, down):  2.164E-02 2.366E-01

     total cpu time spent up to now is     1624.7 secs

     total energy              =  -21071.64465765 Ry
     Harris-Foulkes estimate   =  -21073.50432863 Ry
     estimated scf accuracy    <      21.19867257 Ry

     total magnetization       =   132.47 Bohr mag/cell
     absolute magnetization    =   133.03 Bohr mag/cell

     iteration #  6     ecut=    60.00 Ry     beta= 0.20
     Davidson diagonalization with overlap
     ethr =  1.49E-03,  avg # of iterations =  2.9

     negative rho (up, down):  1.437E-02 1.990E-01

     total cpu time spent up to now is     1786.3 secs

     total energy              =  -21072.41678520 Ry
     Harris-Foulkes estimate   =  -21072.65840139 Ry
     estimated scf accuracy    <       7.60980581 Ry

     total magnetization       =   155.43 Bohr mag/cell
     absolute magnetization    =   156.70 Bohr mag/cell

     iteration #  7     ecut=    60.00 Ry     beta= 0.20
     Davidson diagonalization with overlap
     ethr =  7.42E-04,  avg # of iterations =  3.2

     negative rho (up, down):  6.072E-03 9.708E-02

     total cpu time spent up to now is     1955.5 secs

     total energy              =  -21072.60212688 Ry
     Harris-Foulkes estimate   =  -21072.64783965 Ry
     estimated scf accuracy    <       2.00770404 Ry

     total magnetization       =   154.50 Bohr mag/cell
     absolute magnetization    =   156.41 Bohr mag/cell

     iteration #  8     ecut=    60.00 Ry     beta= 0.20
     Davidson diagonalization with overlap
     ethr =  1.96E-04,  avg # of iterations = 13.7

     negative rho (up, down):  6.382E-04 4.180E-02

     total cpu time spent up to now is     2854.2 secs

     total energy              =  -21072.91006354 Ry
     Harris-Foulkes estimate   =  -21074.02836564 Ry
     estimated scf accuracy    <       8.48493518 Ry

     total magnetization       =   153.52 Bohr mag/cell
     absolute magnetization    =   160.00 Bohr mag/cell

     iteration #  9     ecut=    60.00 Ry     beta= 0.20
     Davidson diagonalization with overlap
     ethr =  1.96E-04,  avg # of iterations =  5.5

     negative rho (up, down):  5.328E-04 2.555E-02

     total cpu time spent up to now is     3057.0 secs

     total energy              =  -21073.45051473 Ry
     Harris-Foulkes estimate   =  -21073.44769601 Ry
     estimated scf accuracy    <       0.80210466 Ry

     total magnetization       =   147.39 Bohr mag/cell
     absolute magnetization    =   152.35 Bohr mag/cell

     iteration # 10     ecut=    60.00 Ry     beta= 0.20
     Davidson diagonalization with overlap
     ethr =  7.83E-05,  avg # of iterations =  6.7

     negative rho (up, down):  3.937E-04 4.867E-02

     total cpu time spent up to now is     3254.9 secs

     total energy              =  -21073.52653981 Ry
     Harris-Foulkes estimate   =  -21073.48869114 Ry
     estimated scf accuracy    <       0.81587081 Ry

     total magnetization       =   147.38 Bohr mag/cell
     absolute magnetization    =   152.21 Bohr mag/cell

     iteration # 11     ecut=    60.00 Ry     beta= 0.20
     Davidson diagonalization with overlap
     ethr =  7.83E-05,  avg # of iterations =  6.2

     negative rho (up, down):  1.162E-03 6.190E-02

     total cpu time spent up to now is     3455.7 secs

     total energy              =  -21073.61666158 Ry
     Harris-Foulkes estimate   =  -21073.62163351 Ry
     estimated scf accuracy    <       0.97663755 Ry

     total magnetization       =   153.21 Bohr mag/cell
     absolute magnetization    =   157.93 Bohr mag/cell

     iteration # 12     ecut=    60.00 Ry     beta= 0.20
     Davidson diagonalization with overlap
     ethr =  7.83E-05,  avg # of iterations =  1.0

     negative rho (up, down):  1.354E-03 5.045E-02

     total cpu time spent up to now is     3584.6 secs

     total energy              =  -21073.60161883 Ry
     Harris-Foulkes estimate   =  -21073.65297151 Ry
     estimated scf accuracy    <       0.83547184 Ry

     total magnetization       =   158.01 Bohr mag/cell
     absolute magnetization    =   162.77 Bohr mag/cell

     iteration # 13     ecut=    60.00 Ry     beta= 0.20
     Davidson diagonalization with overlap
     ethr =  7.83E-05,  avg # of iterations =  1.0

     negative rho (up, down):  1.087E-03 4.350E-02

     total cpu time spent up to now is     3717.0 secs

     total energy              =  -21073.59604032 Ry
     Harris-Foulkes estimate   =  -21073.63338154 Ry
     estimated scf accuracy    <       1.24400087 Ry

     total magnetization       =   162.51 Bohr mag/cell
     absolute magnetization    =   167.29 Bohr mag/cell

     iteration # 14     ecut=    60.00 Ry     beta= 0.20
     Davidson diagonalization with overlap
     ethr =  7.83E-05,  avg # of iterations =  1.0

     negative rho (up, down):  1.557E-03 4.120E-02

     total cpu time spent up to now is     3846.0 secs

     total energy              =  -21073.57660617 Ry
     Harris-Foulkes estimate   =  -21073.60949621 Ry
     estimated scf accuracy    <       0.74530540 Ry

     total magnetization       =   163.07 Bohr mag/cell
     absolute magnetization    =   167.90 Bohr mag/cell

     iteration # 15     ecut=    60.00 Ry     beta= 0.20
     Davidson diagonalization with overlap
     ethr =  7.27E-05,  avg # of iterations =  1.0

     negative rho (up, down):  3.074E-02 4.686E-02

     total cpu time spent up to now is     3975.2 secs

     total energy              =  -21073.56515019 Ry
     Harris-Foulkes estimate   =  -21073.58941681 Ry
     estimated scf accuracy    <       0.26372859 Ry

     total magnetization       =   163.55 Bohr mag/cell
     absolute magnetization    =   168.42 Bohr mag/cell

     iteration # 16     ecut=    60.00 Ry     beta= 0.20
     Davidson diagonalization with overlap
     ethr =  2.57E-05,  avg # of iterations =  8.1

     negative rho (up, down):  6.162E-02 4.483E-02

     total cpu time spent up to now is     4202.7 secs

     total energy              =  -21073.58812648 Ry
     Harris-Foulkes estimate   =  -21073.59329247 Ry
     estimated scf accuracy    <       0.07126687 Ry

     total magnetization       =   162.89 Bohr mag/cell
     absolute magnetization    =   168.05 Bohr mag/cell

     iteration # 17     ecut=    60.00 Ry     beta= 0.20
     Davidson diagonalization with overlap
     c_bands:  2 eigenvalues not converged
     c_bands:  3 eigenvalues not converged
     c_bands:  1 eigenvalues not converged
     ethr =  6.95E-06,  avg # of iterations = 54.3

     negative rho (up, down):  2.881E-03 3.126E-02

     total cpu time spent up to now is     6477.2 secs

     total energy              =  -21073.65899856 Ry
     Harris-Foulkes estimate   =  -21073.67175936 Ry
     estimated scf accuracy    <       0.60905536 Ry

     total magnetization       =   161.09 Bohr mag/cell
     absolute magnetization    =   169.57 Bohr mag/cell

     iteration # 18     ecut=    60.00 Ry     beta= 0.20
     Davidson diagonalization with overlap
     c_bands:  3 eigenvalues not converged
     ethr =  6.95E-06,  avg # of iterations = 14.2

     negative rho (up, down):  2.320E-03 3.939E-02

     total cpu time spent up to now is     6846.9 secs

     total energy              =  -21073.65867344 Ry
     Harris-Foulkes estimate   =  -21073.66240152 Ry
     estimated scf accuracy    <       0.48439936 Ry

     total magnetization       =   160.31 Bohr mag/cell
     absolute magnetization    =   168.82 Bohr mag/cell

     iteration # 19     ecut=    60.00 Ry     beta= 0.20
     Davidson diagonalization with overlap
     c_bands:  1 eigenvalues not converged
     ethr =  6.95E-06,  avg # of iterations =  8.2

     negative rho (up, down):  4.591E-03 8.666E-02

     total cpu time spent up to now is     7212.0 secs

     total energy              =  -21073.60458972 Ry
     Harris-Foulkes estimate   =  -21073.66082202 Ry
     estimated scf accuracy    <       0.37100044 Ry

     total magnetization       =   160.69 Bohr mag/cell
     absolute magnetization    =   169.18 Bohr mag/cell

     iteration # 20     ecut=    60.00 Ry     beta= 0.20
     Davidson diagonalization with overlap
     c_bands:  5 eigenvalues not converged
     ethr =  6.95E-06,  avg # of iterations = 15.3

     negative rho (up, down):  4.082E-03 1.010E-01

     total cpu time spent up to now is     7597.9 secs

     total energy              =  -21073.66862560 Ry
     Harris-Foulkes estimate   =  -21073.66628667 Ry
     estimated scf accuracy    <       0.26565647 Ry

     total magnetization       =   162.40 Bohr mag/cell
     absolute magnetization    =   168.18 Bohr mag/cell

     iteration # 21     ecut=    60.00 Ry     beta= 0.20
     Davidson diagonalization with overlap
     c_bands:  1 eigenvalues not converged
     ethr =  6.95E-06,  avg # of iterations =  7.1

     negative rho (up, down):  5.972E-03 1.440E-01

     total cpu time spent up to now is     7883.4 secs

     total energy              =  -21073.67730678 Ry
     Harris-Foulkes estimate   =  -21073.67220251 Ry
     estimated scf accuracy    <       0.36746708 Ry

     total magnetization       =   162.77 Bohr mag/cell
     absolute magnetization    =   168.53 Bohr mag/cell

     iteration # 22     ecut=    60.00 Ry     beta= 0.20
     Davidson diagonalization with overlap
     c_bands:  4 eigenvalues not converged
     ethr =  6.95E-06,  avg # of iterations =  6.3

     negative rho (up, down):  2.272E-03 1.272E-01

     total cpu time spent up to now is     8168.6 secs

     total energy              =  -21073.57286544 Ry
     Harris-Foulkes estimate   =  -21073.68058104 Ry
     estimated scf accuracy    <       0.45194110 Ry

     total magnetization       =   162.88 Bohr mag/cell
     absolute magnetization    =   168.64 Bohr mag/cell

     iteration # 23     ecut=    60.00 Ry     beta= 0.20
     Davidson diagonalization with overlap
     c_bands:  3 eigenvalues not converged
     ethr =  6.95E-06,  avg # of iterations = 13.6

     negative rho (up, down):  4.070E-03 2.033E-01

     total cpu time spent up to now is     8485.0 secs

     total energy              =  -21073.67501446 Ry
     Harris-Foulkes estimate   =  -21073.70168539 Ry
     estimated scf accuracy    <       0.98662895 Ry

     total magnetization       =   160.04 Bohr mag/cell
     absolute magnetization    =   170.12 Bohr mag/cell

     iteration # 24     ecut=    60.00 Ry     beta= 0.20
     Davidson diagonalization with overlap
     c_bands:  2 eigenvalues not converged
     ethr =  6.95E-06,  avg # of iterations = 11.2

     negative rho (up, down):  2.535E-03 2.214E-01

     total cpu time spent up to now is     8849.7 secs

     total energy              =  -21073.63223832 Ry
     Harris-Foulkes estimate   =  -21073.68112875 Ry
     estimated scf accuracy    <       0.51450671 Ry

     total magnetization       =   160.56 Bohr mag/cell
     absolute magnetization    =   169.64 Bohr mag/cell

     iteration # 25     ecut=    60.00 Ry     beta= 0.20
     Davidson diagonalization with overlap
     c_bands:  1 eigenvalues not converged
     ethr =  6.95E-06,  avg # of iterations =  5.2

     negative rho (up, down):  2.894E-03 1.949E-01

     total cpu time spent up to now is     9062.3 secs

     total energy              =  -21073.67337087 Ry
     Harris-Foulkes estimate   =  -21073.64521216 Ry
     estimated scf accuracy    <       0.11224223 Ry

     total magnetization       =   161.80 Bohr mag/cell
     absolute magnetization    =   169.50 Bohr mag/cell

     iteration # 26     ecut=    60.00 Ry     beta= 0.20
     Davidson diagonalization with overlap
     ethr =  6.95E-06,  avg # of iterations =  2.3

     negative rho (up, down):  5.331E-02 2.869E-01

     total cpu time spent up to now is     9225.6 secs

     total energy              =  -21073.39599697 Ry
     Harris-Foulkes estimate   =  -21073.68888386 Ry
     estimated scf accuracy    <       0.71172204 Ry

     total magnetization       =   160.80 Bohr mag/cell
     absolute magnetization    =   170.28 Bohr mag/cell

     iteration # 27     ecut=    60.00 Ry     beta= 0.20
     Davidson diagonalization with overlap
     ethr =  6.95E-06,  avg # of iterations = 12.7

     negative rho (up, down):  7.542E-02 2.893E-01

     total cpu time spent up to now is     9543.5 secs

     total energy              =  -21073.52599860 Ry
     Harris-Foulkes estimate   =  -21073.53846654 Ry
     estimated scf accuracy    <       0.12613140 Ry

     total magnetization       =   162.91 Bohr mag/cell
     absolute magnetization    =   168.81 Bohr mag/cell

     iteration # 28     ecut=    60.00 Ry     beta= 0.20
     Davidson diagonalization with overlap
     ethr =  6.95E-06,  avg # of iterations =  9.6

     negative rho (up, down):  7.498E-02 2.887E-01

     total cpu time spent up to now is     9832.2 secs

     total energy              =  -21073.51441484 Ry
     Harris-Foulkes estimate   =  -21073.52688067 Ry
     estimated scf accuracy    <       0.14846029 Ry

     total magnetization       =   163.03 Bohr mag/cell
     absolute magnetization    =   168.94 Bohr mag/cell

     iteration # 29     ecut=    60.00 Ry     beta= 0.20
     Davidson diagonalization with overlap
     ethr =  6.95E-06,  avg # of iterations =  9.6

     negative rho (up, down):  8.684E-02 2.906E-01

     total cpu time spent up to now is    10112.2 secs

     total energy              =  -21073.51618925 Ry
     Harris-Foulkes estimate   =  -21073.51491839 Ry
     estimated scf accuracy    <       0.14478136 Ry

     total magnetization       =   162.96 Bohr mag/cell
     absolute magnetization    =   168.89 Bohr mag/cell

     iteration # 30     ecut=    60.00 Ry     beta= 0.20
     Davidson diagonalization with overlap
     ethr =  6.95E-06,  avg # of iterations =  7.0

     negative rho (up, down):  1.161E-01 2.961E-01

     total cpu time spent up to now is    10351.4 secs

     total energy              =  -21073.47102036 Ry
     Harris-Foulkes estimate   =  -21073.51665509 Ry
     estimated scf accuracy    <       0.15408804 Ry

     total magnetization       =   163.09 Bohr mag/cell
     absolute magnetization    =   169.02 Bohr mag/cell

     iteration # 31     ecut=    60.00 Ry     beta= 0.20
     Davidson diagonalization with overlap
     ethr =  6.95E-06,  avg # of iterations =  3.9

     negative rho (up, down):  1.028E-01 2.924E-01

     total cpu time spent up to now is    10570.5 secs

     total energy              =  -21073.49679082 Ry
     Harris-Foulkes estimate   =  -21073.47146212 Ry
     estimated scf accuracy    <       0.16207813 Ry

     total magnetization       =   163.15 Bohr mag/cell
     absolute magnetization    =   169.10 Bohr mag/cell

     iteration # 32     ecut=    60.00 Ry     beta= 0.20
     Davidson diagonalization with overlap
     ethr =  6.95E-06,  avg # of iterations =  3.9

     negative rho (up, down):  4.984E-02 2.733E-01

     total cpu time spent up to now is    10790.2 secs

     total energy              =  -21073.59600794 Ry
     Harris-Foulkes estimate   =  -21073.49713145 Ry
     estimated scf accuracy    <       0.16179771 Ry

     total magnetization       =   163.12 Bohr mag/cell
     absolute magnetization    =   169.08 Bohr mag/cell

     iteration # 33     ecut=    60.00 Ry     beta= 0.20
     Davidson diagonalization with overlap
     ethr =  6.95E-06,  avg # of iterations =  2.7

     negative rho (up, down):  4.391E-02 1.883E-02

     total cpu time spent up to now is    11000.6 secs

     total energy              =  -21073.67662175 Ry
     Harris-Foulkes estimate   =  -21073.59632661 Ry
     estimated scf accuracy    <       0.14871454 Ry

     total magnetization       =   162.96 Bohr mag/cell
     absolute magnetization    =   168.94 Bohr mag/cell

     iteration # 34     ecut=    60.00 Ry     beta= 0.20
     Davidson diagonalization with overlap
     ethr =  6.95E-06,  avg # of iterations =  9.8

     negative rho (up, down):  3.451E-02 2.906E-02

     total cpu time spent up to now is    11304.8 secs

     total energy              =  -21073.66714218 Ry
     Harris-Foulkes estimate   =  -21073.67730434 Ry
     estimated scf accuracy    <       0.15609729 Ry

     total magnetization       =   162.69 Bohr mag/cell
     absolute magnetization    =   168.74 Bohr mag/cell

     iteration # 35     ecut=    60.00 Ry     beta= 0.20
     Davidson diagonalization with overlap
     ethr =  6.95E-06,  avg # of iterations = 10.3

     negative rho (up, down):  2.048E-02 3.899E-02

     total cpu time spent up to now is    11585.1 secs

     total energy              =  -21073.64339074 Ry
     Harris-Foulkes estimate   =  -21073.66745499 Ry
     estimated scf accuracy    <       0.13298265 Ry

     total magnetization       =   162.63 Bohr mag/cell
     absolute magnetization    =   168.71 Bohr mag/cell

     iteration # 36     ecut=    60.00 Ry     beta= 0.20
     Davidson diagonalization with overlap
     ethr =  6.95E-06,  avg # of iterations = 11.8

     negative rho (up, down):  2.049E-02 2.415E-02

     total cpu time spent up to now is    11872.1 secs

     total energy              =  -21073.63607801 Ry
     Harris-Foulkes estimate   =  -21073.64503481 Ry
     estimated scf accuracy    <       0.02980623 Ry

     total magnetization       =   162.34 Bohr mag/cell
     absolute magnetization    =   168.94 Bohr mag/cell

     iteration # 37     ecut=    60.00 Ry     beta= 0.20
     Davidson diagonalization with overlap
     ethr =  2.91E-06,  avg # of iterations = 12.7

     negative rho (up, down):  2.067E-02 1.539E-01

     total cpu time spent up to now is    12160.6 secs

     total energy              =  -21073.63699983 Ry
     Harris-Foulkes estimate   =  -21073.63738639 Ry
     estimated scf accuracy    <       0.00201203 Ry

     total magnetization       =   162.16 Bohr mag/cell
     absolute magnetization    =   169.17 Bohr mag/cell

     iteration # 38     ecut=    60.00 Ry     beta= 0.20
     Davidson diagonalization with overlap
     c_bands:  1 eigenvalues not converged
     c_bands:  1 eigenvalues not converged
     c_bands:  3 eigenvalues not converged
     ethr =  1.96E-07,  avg # of iterations = 19.5

     negative rho (up, down):  2.138E-02 1.482E-01

     total cpu time spent up to now is    13306.2 secs

     total energy              =  -21073.63958562 Ry
     Harris-Foulkes estimate   =  -21073.64033475 Ry
     estimated scf accuracy    <       0.03607842 Ry

     total magnetization       =   161.80 Bohr mag/cell
     absolute magnetization    =   169.78 Bohr mag/cell

     iteration # 39     ecut=    60.00 Ry     beta= 0.20
     Davidson diagonalization with overlap
     c_bands:  1 eigenvalues not converged
     c_bands:  1 eigenvalues not converged
     ethr =  1.96E-07,  avg # of iterations =  9.8

     negative rho (up, down):  2.123E-02 1.468E-01

     total cpu time spent up to now is    13575.6 secs

     total energy              =  -21073.64007145 Ry
     Harris-Foulkes estimate   =  -21073.63970330 Ry
     estimated scf accuracy    <       0.02032502 Ry

     total magnetization       =   161.87 Bohr mag/cell
     absolute magnetization    =   169.69 Bohr mag/cell

     iteration # 40     ecut=    60.00 Ry     beta= 0.20
     Davidson diagonalization with overlap
     c_bands:  1 eigenvalues not converged
     ethr =  1.96E-07,  avg # of iterations =  4.8

     negative rho (up, down):  2.297E-02 1.105E-01

     total cpu time spent up to now is    13796.6 secs

     total energy              =  -21073.63692303 Ry
     Harris-Foulkes estimate   =  -21073.64009130 Ry
     estimated scf accuracy    <       0.02135101 Ry

     total magnetization       =   161.86 Bohr mag/cell
     absolute magnetization    =   169.70 Bohr mag/cell

     iteration # 41     ecut=    60.00 Ry     beta= 0.20
     Davidson diagonalization with overlap
     c_bands:  1 eigenvalues not converged
     ethr =  1.96E-07,  avg # of iterations =  6.0

     negative rho (up, down):  2.278E-02 1.056E-01

     total cpu time spent up to now is    14042.6 secs

     total energy              =  -21073.63628338 Ry
     Harris-Foulkes estimate   =  -21073.63746424 Ry
     estimated scf accuracy    <       0.00157651 Ry

     total magnetization       =   162.07 Bohr mag/cell
     absolute magnetization    =   169.54 Bohr mag/cell

     iteration # 42     ecut=    60.00 Ry     beta= 0.20
     Davidson diagonalization with overlap
     c_bands:  1 eigenvalues not converged
     ethr =  1.54E-07,  avg # of iterations =  4.2

     negative rho (up, down):  2.036E-02 1.566E-01

     total cpu time spent up to now is    14223.8 secs

     total energy              =  -21073.63717589 Ry
     Harris-Foulkes estimate   =  -21073.63637659 Ry
     estimated scf accuracy    <       0.00031705 Ry

     total magnetization       =   162.14 Bohr mag/cell
     absolute magnetization    =   169.49 Bohr mag/cell

     iteration # 43     ecut=    60.00 Ry     beta= 0.20
     Davidson diagonalization with overlap
     ethr =  3.09E-08,  avg # of iterations = 10.3

     negative rho (up, down):  2.057E-02 1.362E-01

     total cpu time spent up to now is    14635.1 secs

     total energy              =  -21073.63729396 Ry
     Harris-Foulkes estimate   =  -21073.63770643 Ry
     estimated scf accuracy    <       0.01029100 Ry

     total magnetization       =   162.00 Bohr mag/cell
     absolute magnetization    =   169.72 Bohr mag/cell

     iteration # 44     ecut=    60.00 Ry     beta= 0.20
     Davidson diagonalization with overlap
     ethr =  3.09E-08,  avg # of iterations =  8.5

     negative rho (up, down):  2.071E-02 1.102E-01

     total cpu time spent up to now is    14908.4 secs

     total energy              =  -21073.63544440 Ry
     Harris-Foulkes estimate   =  -21073.63733288 Ry
     estimated scf accuracy    <       0.01556750 Ry

     total magnetization       =   161.96 Bohr mag/cell
     absolute magnetization    =   169.75 Bohr mag/cell

     iteration # 45     ecut=    60.00 Ry     beta= 0.20
     Davidson diagonalization with overlap
     ethr =  3.09E-08,  avg # of iterations =  7.0

     negative rho (up, down):  1.765E-02 8.612E-02

     total cpu time spent up to now is    15153.6 secs

     total energy              =  -21073.63352156 Ry
     Harris-Foulkes estimate   =  -21073.63553820 Ry
     estimated scf accuracy    <       0.00645785 Ry

     total magnetization       =   162.03 Bohr mag/cell
     absolute magnetization    =   169.67 Bohr mag/cell

     iteration # 46     ecut=    60.00 Ry     beta= 0.20
     Davidson diagonalization with overlap
     ethr =  3.09E-08,  avg # of iterations =  6.0

     negative rho (up, down):  1.662E-02 5.802E-02

     total cpu time spent up to now is    15388.1 secs

     total energy              =  -21073.63223866 Ry
     Harris-Foulkes estimate   =  -21073.63368254 Ry
     estimated scf accuracy    <       0.00076857 Ry

     total magnetization       =   162.12 Bohr mag/cell
     absolute magnetization    =   169.57 Bohr mag/cell

     iteration # 47     ecut=    60.00 Ry     beta= 0.20
     Davidson diagonalization with overlap
     ethr =  3.09E-08,  avg # of iterations =  5.9

     negative rho (up, down):  1.965E-02 3.241E-02

     total cpu time spent up to now is    15633.8 secs

     total energy              =  -21073.63003217 Ry
     Harris-Foulkes estimate   =  -21073.63243093 Ry
     estimated scf accuracy    <       0.00089711 Ry

     total magnetization       =   162.20 Bohr mag/cell
     absolute magnetization    =   169.49 Bohr mag/cell

     iteration # 48     ecut=    60.00 Ry     beta= 0.20
     Davidson diagonalization with overlap
     ethr =  3.09E-08,  avg # of iterations =  5.6

     negative rho (up, down):  1.824E-02 3.144E-02

     total cpu time spent up to now is    15894.4 secs

     total energy              =  -21073.62813930 Ry
     Harris-Foulkes estimate   =  -21073.63012941 Ry
     estimated scf accuracy    <       0.00328640 Ry

     total magnetization       =   162.25 Bohr mag/cell
     absolute magnetization    =   169.45 Bohr mag/cell

     iteration # 49     ecut=    60.00 Ry     beta= 0.20
     Davidson diagonalization with overlap
     ethr =  3.09E-08,  avg # of iterations =  2.6

     negative rho (up, down):  1.900E-02 3.448E-02

     total cpu time spent up to now is    16065.4 secs

     total energy              =  -21073.62867366 Ry
     Harris-Foulkes estimate   =  -21073.62818789 Ry
     estimated scf accuracy    <       0.00122368 Ry

     total magnetization       =   162.23 Bohr mag/cell
     absolute magnetization    =   169.50 Bohr mag/cell

     iteration # 50     ecut=    60.00 Ry     beta= 0.20
     Davidson diagonalization with overlap
     ethr =  3.09E-08,  avg # of iterations =  2.5

     negative rho (up, down):  1.938E-02 3.538E-02

     total cpu time spent up to now is    16231.7 secs

     total energy              =  -21073.62937008 Ry
     Harris-Foulkes estimate   =  -21073.62867595 Ry
     estimated scf accuracy    <       0.00134171 Ry

     total magnetization       =   162.24 Bohr mag/cell
     absolute magnetization    =   169.51 Bohr mag/cell

     iteration # 51     ecut=    60.00 Ry     beta= 0.20
     Davidson diagonalization with overlap
     ethr =  3.09E-08,  avg # of iterations =  1.0

     negative rho (up, down):  1.786E-02 4.062E-02

     total cpu time spent up to now is    16357.8 secs

     total energy              =  -21073.62999929 Ry
     Harris-Foulkes estimate   =  -21073.62937390 Ry
     estimated scf accuracy    <       0.00145268 Ry

     total magnetization       =   162.25 Bohr mag/cell
     absolute magnetization    =   169.52 Bohr mag/cell

     iteration # 52     ecut=    60.00 Ry     beta= 0.20
     Davidson diagonalization with overlap
     ethr =  3.09E-08,  avg # of iterations =  3.5

     negative rho (up, down):  1.522E-02 6.243E-02

     total cpu time spent up to now is    16558.3 secs

     total energy              =  -21073.62565701 Ry
     Harris-Foulkes estimate   =  -21073.63001421 Ry
     estimated scf accuracy    <       0.00085197 Ry

     total magnetization       =   162.28 Bohr mag/cell
     absolute magnetization    =   169.58 Bohr mag/cell

     iteration # 53     ecut=    60.00 Ry     beta= 0.20
     Davidson diagonalization with overlap
     ethr =  3.09E-08,  avg # of iterations =  6.2

     negative rho (up, down):  1.455E-02 1.046E-01

     total cpu time spent up to now is    16824.5 secs

     total energy              =  -21073.62624943 Ry
     Harris-Foulkes estimate   =  -21073.62576494 Ry
     estimated scf accuracy    <       0.00014624 Ry

     total magnetization       =   162.25 Bohr mag/cell
     absolute magnetization    =   169.68 Bohr mag/cell

     iteration # 54     ecut=    60.00 Ry     beta= 0.20
     Davidson diagonalization with overlap
     ethr =  1.43E-08,  avg # of iterations = 12.2

     negative rho (up, down):  1.474E-02 7.806E-02

     total cpu time spent up to now is    17143.2 secs

     total energy              =  -21073.62475298 Ry
     Harris-Foulkes estimate   =  -21073.62657086 Ry
     estimated scf accuracy    <       0.00850273 Ry

     total magnetization       =   162.13 Bohr mag/cell
     absolute magnetization    =   169.85 Bohr mag/cell

     iteration # 55     ecut=    60.00 Ry     beta= 0.20
     Davidson diagonalization with overlap
     ethr =  1.43E-08,  avg # of iterations =  7.8

     negative rho (up, down):  1.382E-02 1.055E-01

     total cpu time spent up to now is    17406.1 secs

     total energy              =  -21073.62473413 Ry
     Harris-Foulkes estimate   =  -21073.62494747 Ry
     estimated scf accuracy    <       0.00088585 Ry

     total magnetization       =   162.23 Bohr mag/cell
     absolute magnetization    =   169.74 Bohr mag/cell

     iteration # 56     ecut=    60.00 Ry     beta= 0.20
     Davidson diagonalization with overlap
     ethr =  1.43E-08,  avg # of iterations =  5.9

     negative rho (up, down):  1.503E-02 9.133E-02

     total cpu time spent up to now is    17623.2 secs

     total energy              =  -21073.62551366 Ry
     Harris-Foulkes estimate   =  -21073.62512955 Ry
     estimated scf accuracy    <       0.01627643 Ry

     total magnetization       =   162.07 Bohr mag/cell
     absolute magnetization    =   169.91 Bohr mag/cell

     iteration # 57     ecut=    60.00 Ry     beta= 0.20
     Davidson diagonalization with overlap
     ethr =  1.43E-08,  avg # of iterations =  4.3

     negative rho (up, down):  1.389E-02 9.626E-02

     total cpu time spent up to now is    17814.7 secs

     total energy              =  -21073.62579666 Ry
     Harris-Foulkes estimate   =  -21073.62557587 Ry
     estimated scf accuracy    <       0.00796357 Ry

     total magnetization       =   162.13 Bohr mag/cell
     absolute magnetization    =   169.84 Bohr mag/cell

     iteration # 58     ecut=    60.00 Ry     beta= 0.20
     Davidson diagonalization with overlap
     ethr =  1.43E-08,  avg # of iterations =  1.8

     negative rho (up, down):  1.516E-02 7.547E-02

     total cpu time spent up to now is    17962.5 secs

     total energy              =  -21073.62485304 Ry
     Harris-Foulkes estimate   =  -21073.62580203 Ry
     estimated scf accuracy    <       0.00647629 Ry

     total magnetization       =   162.14 Bohr mag/cell
     absolute magnetization    =   169.83 Bohr mag/cell

     iteration # 59     ecut=    60.00 Ry     beta= 0.20
     Davidson diagonalization with overlap
     ethr =  1.43E-08,  avg # of iterations =  5.4

     negative rho (up, down):  1.504E-02 7.496E-02

     total cpu time spent up to now is    18165.6 secs

     total energy              =  -21073.62459542 Ry
     Harris-Foulkes estimate   =  -21073.62500278 Ry
     estimated scf accuracy    <       0.00065248 Ry

     total magnetization       =   162.23 Bohr mag/cell
     absolute magnetization    =   169.74 Bohr mag/cell

     iteration # 60     ecut=    60.00 Ry     beta= 0.20
     Davidson diagonalization with overlap
     ethr =  1.43E-08,  avg # of iterations =  2.4

     negative rho (up, down):  1.527E-02 7.731E-02

     total cpu time spent up to now is    18334.9 secs

     total energy              =  -21073.62483649 Ry
     Harris-Foulkes estimate   =  -21073.62460057 Ry
     estimated scf accuracy    <       0.00033526 Ry

     total magnetization       =   162.24 Bohr mag/cell
     absolute magnetization    =   169.72 Bohr mag/cell

     iteration # 61     ecut=    60.00 Ry     beta= 0.20
     Davidson diagonalization with overlap
     ethr =  1.43E-08,  avg # of iterations =  1.0

     negative rho (up, down):  1.296E-02 8.097E-02

     total cpu time spent up to now is    18462.8 secs

     total energy              =  -21073.62381389 Ry
     Harris-Foulkes estimate   =  -21073.62483938 Ry
     estimated scf accuracy    <       0.00052562 Ry

     total magnetization       =   162.24 Bohr mag/cell
     absolute magnetization    =   169.74 Bohr mag/cell

     iteration # 62     ecut=    60.00 Ry     beta= 0.20
     Davidson diagonalization with overlap
     ethr =  1.43E-08,  avg # of iterations =  5.2

     negative rho (up, down):  1.292E-02 8.171E-02

     total cpu time spent up to now is    18668.0 secs

     total energy              =  -21073.62389416 Ry
     Harris-Foulkes estimate   =  -21073.62381749 Ry
     estimated scf accuracy    <       0.00059094 Ry

     total magnetization       =   162.23 Bohr mag/cell
     absolute magnetization    =   169.75 Bohr mag/cell

     iteration # 63     ecut=    60.00 Ry     beta= 0.20
     Davidson diagonalization with overlap
     ethr =  1.43E-08,  avg # of iterations =  1.0

     negative rho (up, down):  1.338E-02 7.599E-02

     total cpu time spent up to now is    18795.9 secs

     total energy              =  -21073.62413192 Ry
     Harris-Foulkes estimate   =  -21073.62389590 Ry
     estimated scf accuracy    <       0.00062946 Ry

     total magnetization       =   162.24 Bohr mag/cell
     absolute magnetization    =   169.75 Bohr mag/cell

     iteration # 64     ecut=    60.00 Ry     beta= 0.20
     Davidson diagonalization with overlap
     ethr =  1.43E-08,  avg # of iterations =  1.9

     negative rho (up, down):  1.340E-02 7.599E-02

     total cpu time spent up to now is    18945.7 secs

     total energy              =  -21073.62417705 Ry
     Harris-Foulkes estimate   =  -21073.62414505 Ry
     estimated scf accuracy    <       0.00012082 Ry

     total magnetization       =   162.25 Bohr mag/cell
     absolute magnetization    =   169.72 Bohr mag/cell

     iteration # 65     ecut=    60.00 Ry     beta= 0.20
     Davidson diagonalization with overlap
     ethr =  1.18E-08,  avg # of iterations =  1.0

     negative rho (up, down):  1.331E-02 8.124E-02

     total cpu time spent up to now is    19075.1 secs

     total energy              =  -21073.62483956 Ry
     Harris-Foulkes estimate   =  -21073.62417830 Ry
     estimated scf accuracy    <       0.00011347 Ry

     total magnetization       =   162.25 Bohr mag/cell
     absolute magnetization    =   169.72 Bohr mag/cell

     iteration # 66     ecut=    60.00 Ry     beta= 0.20
     Davidson diagonalization with overlap
     ethr =  1.11E-08,  avg # of iterations =  4.7

     negative rho (up, down):  1.280E-02 8.508E-02

     total cpu time spent up to now is    19269.1 secs

     total energy              =  -21073.62454862 Ry
     Harris-Foulkes estimate   =  -21073.62484170 Ry
     estimated scf accuracy    <       0.00008515 Ry

     total magnetization       =   162.25 Bohr mag/cell
     absolute magnetization    =   169.72 Bohr mag/cell

     iteration # 67     ecut=    60.00 Ry     beta= 0.20
     Davidson diagonalization with overlap
     ethr =  8.31E-09,  avg # of iterations =  4.2

     negative rho (up, down):  1.284E-02 8.649E-02

     total cpu time spent up to now is    19453.4 secs

     total energy              =  -21073.62451398 Ry
     Harris-Foulkes estimate   =  -21073.62455347 Ry
     estimated scf accuracy    <       0.00025803 Ry

     total magnetization       =   162.25 Bohr mag/cell
     absolute magnetization    =   169.75 Bohr mag/cell

     iteration # 68     ecut=    60.00 Ry     beta= 0.20
     Davidson diagonalization with overlap
     ethr =  8.31E-09,  avg # of iterations =  1.7

     negative rho (up, down):  1.276E-02 8.731E-02

     total cpu time spent up to now is    19615.7 secs

     total energy              =  -21073.62468784 Ry
     Harris-Foulkes estimate   =  -21073.62451504 Ry
     estimated scf accuracy    <       0.00028277 Ry

     total magnetization       =   162.25 Bohr mag/cell
     absolute magnetization    =   169.75 Bohr mag/cell

     iteration # 69     ecut=    60.00 Ry     beta= 0.20
     Davidson diagonalization with overlap
     ethr =  8.31E-09,  avg # of iterations =  1.0

     negative rho (up, down):  1.298E-02 8.793E-02

     total cpu time spent up to now is    19740.2 secs

     total energy              =  -21073.62487699 Ry
     Harris-Foulkes estimate   =  -21073.62468883 Ry
     estimated scf accuracy    <       0.00023621 Ry

     total magnetization       =   162.25 Bohr mag/cell
     absolute magnetization    =   169.75 Bohr mag/cell

     iteration # 70     ecut=    60.00 Ry     beta= 0.20
     Davidson diagonalization with overlap
     ethr =  8.31E-09,  avg # of iterations =  1.0

     negative rho (up, down):  1.298E-02 8.530E-02

     total cpu time spent up to now is    19865.3 secs

     total energy              =  -21073.62472334 Ry
     Harris-Foulkes estimate   =  -21073.62488012 Ry
     estimated scf accuracy    <       0.00007978 Ry

     total magnetization       =   162.26 Bohr mag/cell
     absolute magnetization    =   169.74 Bohr mag/cell

     iteration # 71     ecut=    60.00 Ry     beta= 0.20
     Davidson diagonalization with overlap
     ethr =  7.78E-09,  avg # of iterations =  1.0

     negative rho (up, down):  1.300E-02 9.875E-02

     total cpu time spent up to now is    19994.0 secs

     total energy              =  -21073.62553883 Ry
     Harris-Foulkes estimate   =  -21073.62472410 Ry
     estimated scf accuracy    <       0.00008459 Ry

     total magnetization       =   162.26 Bohr mag/cell
     absolute magnetization    =   169.74 Bohr mag/cell

     iteration # 72     ecut=    60.00 Ry     beta= 0.20
     Davidson diagonalization with overlap
     ethr =  7.78E-09,  avg # of iterations =  4.8

     negative rho (up, down):  1.283E-02 1.003E-01

     total cpu time spent up to now is    20173.0 secs

     total energy              =  -21073.62540994 Ry
     Harris-Foulkes estimate   =  -21073.62554060 Ry
     estimated scf accuracy    <       0.00003304 Ry

     total magnetization       =   162.27 Bohr mag/cell
     absolute magnetization    =   169.74 Bohr mag/cell

     iteration # 73     ecut=    60.00 Ry     beta= 0.20
     Davidson diagonalization with overlap
     c_bands:  1 eigenvalues not converged
     ethr =  3.22E-09,  avg # of iterations = 11.2

     negative rho (up, down):  1.310E-02 9.801E-02

     total cpu time spent up to now is    21030.6 secs

     total energy              =  -21073.62561286 Ry
     Harris-Foulkes estimate   =  -21073.62542004 Ry
     estimated scf accuracy    <       0.00003228 Ry

     total magnetization       =   162.27 Bohr mag/cell
     absolute magnetization    =   169.76 Bohr mag/cell

     iteration # 74     ecut=    60.00 Ry     beta= 0.20
     Davidson diagonalization with overlap
     ethr =  3.15E-09,  avg # of iterations =  3.3

     negative rho (up, down):  1.290E-02 9.518E-02

     total cpu time spent up to now is    21216.5 secs

     total energy              =  -21073.62532180 Ry
     Harris-Foulkes estimate   =  -21073.62561353 Ry
     estimated scf accuracy    <       0.00004015 Ry

     total magnetization       =   162.26 Bohr mag/cell
     absolute magnetization    =   169.75 Bohr mag/cell

     iteration # 75     ecut=    60.00 Ry     beta= 0.20
     Davidson diagonalization with overlap
     ethr =  3.15E-09,  avg # of iterations =  2.0

     negative rho (up, down):  1.290E-02 9.639E-02

     total cpu time spent up to now is    21365.4 secs

     total energy              =  -21073.62544132 Ry
     Harris-Foulkes estimate   =  -21073.62532227 Ry
     estimated scf accuracy    <       0.00004271 Ry

     total magnetization       =   162.27 Bohr mag/cell
     absolute magnetization    =   169.76 Bohr mag/cell

     iteration # 76     ecut=    60.00 Ry     beta= 0.20
     Davidson diagonalization with overlap
     ethr =  3.15E-09,  avg # of iterations =  1.3

     negative rho (up, down):  1.292E-02 9.880E-02

     total cpu time spent up to now is    21496.7 secs

     total energy              =  -21073.62555937 Ry
     Harris-Foulkes estimate   =  -21073.62544163 Ry
     estimated scf accuracy    <       0.00004096 Ry

     total magnetization       =   162.27 Bohr mag/cell
     absolute magnetization    =   169.76 Bohr mag/cell

     iteration # 77     ecut=    60.00 Ry     beta= 0.20
     Davidson diagonalization with overlap
     ethr =  3.15E-09,  avg # of iterations =  1.4

     negative rho (up, down):  1.293E-02 8.939E-02

     total cpu time spent up to now is    21627.8 secs

     total energy              =  -21073.62492465 Ry
     Harris-Foulkes estimate   =  -21073.62555967 Ry
     estimated scf accuracy    <       0.00004870 Ry

     total magnetization       =   162.27 Bohr mag/cell
     absolute magnetization    =   169.76 Bohr mag/cell

     iteration # 78     ecut=    60.00 Ry     beta= 0.20
     Davidson diagonalization with overlap
     ethr =  3.15E-09,  avg # of iterations =  3.4

     negative rho (up, down):  1.267E-02 9.258E-02

     total cpu time spent up to now is    21811.7 secs

     total energy              =  -21073.62530027 Ry
     Harris-Foulkes estimate   =  -21073.62492524 Ry
     estimated scf accuracy    <       0.00009243 Ry

     total magnetization       =   162.26 Bohr mag/cell
     absolute magnetization    =   169.76 Bohr mag/cell

     iteration # 79     ecut=    60.00 Ry     beta= 0.20
     Davidson diagonalization with overlap
     ethr =  3.15E-09,  avg # of iterations =  3.2

     negative rho (up, down):  1.236E-02 1.027E-01

     total cpu time spent up to now is    21983.4 secs

     total energy              =  -21073.62602743 Ry
     Harris-Foulkes estimate   =  -21073.62530086 Ry
     estimated scf accuracy    <       0.00005325 Ry

     total magnetization       =   162.27 Bohr mag/cell
     absolute magnetization    =   169.76 Bohr mag/cell

     iteration # 80     ecut=    60.00 Ry     beta= 0.20
     Davidson diagonalization with overlap
     ethr =  3.15E-09,  avg # of iterations =  4.0

     negative rho (up, down):  1.233E-02 9.727E-02

     total cpu time spent up to now is    22171.2 secs

     total energy              =  -21073.62568074 Ry
     Harris-Foulkes estimate   =  -21073.62602788 Ry
     estimated scf accuracy    <       0.00004727 Ry

     total magnetization       =   162.28 Bohr mag/cell
     absolute magnetization    =   169.77 Bohr mag/cell

     iteration # 81     ecut=    60.00 Ry     beta= 0.20
     Davidson diagonalization with overlap
     ethr =  3.15E-09,  avg # of iterations =  2.5

     negative rho (up, down):  1.222E-02 1.007E-01

     total cpu time spent up to now is    22331.4 secs

     total energy              =  -21073.62584645 Ry
     Harris-Foulkes estimate   =  -21073.62568156 Ry
     estimated scf accuracy    <       0.00002002 Ry

     total magnetization       =   162.28 Bohr mag/cell
     absolute magnetization    =   169.77 Bohr mag/cell

     iteration # 82     ecut=    60.00 Ry     beta= 0.20
     Davidson diagonalization with overlap
     ethr =  1.95E-09,  avg # of iterations =  4.4

     negative rho (up, down):  1.218E-02 1.037E-01

     total cpu time spent up to now is    22532.6 secs

     total energy              =  -21073.62600020 Ry
     Harris-Foulkes estimate   =  -21073.62584719 Ry
     estimated scf accuracy    <       0.00004379 Ry

     total magnetization       =   162.28 Bohr mag/cell
     absolute magnetization    =   169.78 Bohr mag/cell

     iteration # 83     ecut=    60.00 Ry     beta= 0.20
     Davidson diagonalization with overlap
     ethr =  1.95E-09,  avg # of iterations =  1.8

     negative rho (up, down):  1.190E-02 1.035E-01

     total cpu time spent up to now is    22679.1 secs

     total energy              =  -21073.62592786 Ry
     Harris-Foulkes estimate   =  -21073.62600039 Ry
     estimated scf accuracy    <       0.00003813 Ry

     total magnetization       =   162.28 Bohr mag/cell
     absolute magnetization    =   169.78 Bohr mag/cell

     iteration # 84     ecut=    60.00 Ry     beta= 0.20
     Davidson diagonalization with overlap
     ethr =  1.95E-09,  avg # of iterations =  4.3

     negative rho (up, down):  1.166E-02 1.043E-01

     total cpu time spent up to now is    22875.0 secs

     total energy              =  -21073.62588882 Ry
     Harris-Foulkes estimate   =  -21073.62592881 Ry
     estimated scf accuracy    <       0.00005288 Ry

     total magnetization       =   162.28 Bohr mag/cell
     absolute magnetization    =   169.78 Bohr mag/cell

     iteration # 85     ecut=    60.00 Ry     beta= 0.20
     Davidson diagonalization with overlap
     ethr =  1.95E-09,  avg # of iterations =  3.5

     negative rho (up, down):  1.158E-02 1.079E-01

     total cpu time spent up to now is    23037.0 secs

     total energy              =  -21073.62608031 Ry
     Harris-Foulkes estimate   =  -21073.62588930 Ry
     estimated scf accuracy    <       0.00003437 Ry

     total magnetization       =   162.28 Bohr mag/cell
     absolute magnetization    =   169.78 Bohr mag/cell

     iteration # 86     ecut=    60.00 Ry     beta= 0.20
     Davidson diagonalization with overlap
     ethr =  1.95E-09,  avg # of iterations =  3.4

     negative rho (up, down):  1.156E-02 1.103E-01

     total cpu time spent up to now is    23219.0 secs

     total energy              =  -21073.62606645 Ry
     Harris-Foulkes estimate   =  -21073.62608053 Ry
     estimated scf accuracy    <       0.00003019 Ry

     total magnetization       =   162.28 Bohr mag/cell
     absolute magnetization    =   169.78 Bohr mag/cell

     iteration # 87     ecut=    60.00 Ry     beta= 0.20
     Davidson diagonalization with overlap
     ethr =  1.95E-09,  avg # of iterations =  2.4

     negative rho (up, down):  1.122E-02 1.138E-01

     total cpu time spent up to now is    23388.2 secs

     total energy              =  -21073.62589914 Ry
     Harris-Foulkes estimate   =  -21073.62606680 Ry
     estimated scf accuracy    <       0.00001394 Ry

     total magnetization       =   162.29 Bohr mag/cell
     absolute magnetization    =   169.78 Bohr mag/cell

     iteration # 88     ecut=    60.00 Ry     beta= 0.20
     Davidson diagonalization with overlap
     ethr =  1.36E-09,  avg # of iterations =  6.6

     negative rho (up, down):  1.120E-02 1.144E-01

     total cpu time spent up to now is    23617.5 secs

     total energy              =  -21073.62586887 Ry
     Harris-Foulkes estimate   =  -21073.62589963 Ry
     estimated scf accuracy    <       0.00001024 Ry

     total magnetization       =   162.29 Bohr mag/cell
     absolute magnetization    =   169.79 Bohr mag/cell

     iteration # 89     ecut=    60.00 Ry     beta= 0.20
     Davidson diagonalization with overlap
     ethr =  1.00E-09,  avg # of iterations =  4.1

     negative rho (up, down):  1.127E-02 1.197E-01

     total cpu time spent up to now is    23814.6 secs

     total energy              =  -21073.62617391 Ry
     Harris-Foulkes estimate   =  -21073.62586934 Ry
     estimated scf accuracy    <       0.00000835 Ry

     total magnetization       =   162.30 Bohr mag/cell
     absolute magnetization    =   169.79 Bohr mag/cell

     iteration # 90     ecut=    60.00 Ry     beta= 0.20
     Davidson diagonalization with overlap
     ethr =  8.15E-10,  avg # of iterations =  5.3

     negative rho (up, down):  1.134E-02 1.231E-01

     total cpu time spent up to now is    24017.8 secs

     total energy              =  -21073.62634541 Ry
     Harris-Foulkes estimate   =  -21073.62617435 Ry
     estimated scf accuracy    <       0.00000214 Ry

     total magnetization       =   162.30 Bohr mag/cell
     absolute magnetization    =   169.79 Bohr mag/cell

     iteration # 91     ecut=    60.00 Ry     beta= 0.20
     Davidson diagonalization with overlap
     ethr =  2.09E-10,  avg # of iterations = 12.2

     negative rho (up, down):  1.133E-02 1.231E-01

     total cpu time spent up to now is    24726.1 secs

     total energy              =  -21073.62632703 Ry
     Harris-Foulkes estimate   =  -21073.62634672 Ry
     estimated scf accuracy    <       0.00000051 Ry

     total magnetization       =   162.31 Bohr mag/cell
     absolute magnetization    =   169.80 Bohr mag/cell

     iteration # 92     ecut=    60.00 Ry     beta= 0.20
     Davidson diagonalization with overlap
     ethr =  4.97E-11,  avg # of iterations = 10.6

     negative rho (up, down):  1.133E-02 1.225E-01

     total cpu time spent up to now is    25274.5 secs

     total energy              =  -21073.62629025 Ry
     Harris-Foulkes estimate   =  -21073.62632726 Ry
     estimated scf accuracy    <       0.00000059 Ry

     total magnetization       =   162.31 Bohr mag/cell
     absolute magnetization    =   169.80 Bohr mag/cell

     iteration # 93     ecut=    60.00 Ry     beta= 0.20
     Davidson diagonalization with overlap
     ethr =  4.97E-11,  avg # of iterations =  3.6

     negative rho (up, down):  1.132E-02 1.204E-01

     total cpu time spent up to now is    25468.5 secs

     total energy              =  -21073.62606281 Ry
     Harris-Foulkes estimate   =  -21073.62629027 Ry
     estimated scf accuracy    <       0.00000040 Ry

     total magnetization       =   162.31 Bohr mag/cell
     absolute magnetization    =   169.80 Bohr mag/cell

     iteration # 94     ecut=    60.00 Ry     beta= 0.20
     Davidson diagonalization with overlap
     ethr =  3.94E-11,  avg # of iterations =  8.9

     negative rho (up, down):  1.138E-02 1.214E-01

     total cpu time spent up to now is    25881.2 secs

     total energy              =  -21073.62609649 Ry
     Harris-Foulkes estimate   =  -21073.62606292 Ry
     estimated scf accuracy    <       0.00000042 Ry

     total magnetization       =   162.31 Bohr mag/cell
     absolute magnetization    =   169.80 Bohr mag/cell

     iteration # 95     ecut=    60.00 Ry     beta= 0.20
     Davidson diagonalization with overlap
     ethr =  3.94E-11,  avg # of iterations =  4.5

     negative rho (up, down):  1.151E-02 1.211E-01

     total cpu time spent up to now is    26082.2 secs

     total energy              =  -21073.62593490 Ry
     Harris-Foulkes estimate   =  -21073.62609649 Ry
     estimated scf accuracy    <       0.00000018 Ry

     total magnetization       =   162.31 Bohr mag/cell
     absolute magnetization    =   169.80 Bohr mag/cell

     iteration # 96     ecut=    60.00 Ry     beta= 0.20
     Davidson diagonalization with overlap
     ethr =  1.74E-11,  avg # of iterations = 11.9

     negative rho (up, down):  1.153E-02 1.220E-01

     total cpu time spent up to now is    26498.4 secs

     total energy              =  -21073.62594480 Ry
     Harris-Foulkes estimate   =  -21073.62593494 Ry
     estimated scf accuracy    <       0.00000023 Ry

     total magnetization       =   162.31 Bohr mag/cell
     absolute magnetization    =   169.80 Bohr mag/cell

     iteration # 97     ecut=    60.00 Ry     beta= 0.20
     Davidson diagonalization with overlap
     ethr =  1.74E-11,  avg # of iterations =  5.8

     negative rho (up, down):  1.151E-02 1.210E-01

     total cpu time spent up to now is    26733.9 secs

     total energy              =  -21073.62590586 Ry
     Harris-Foulkes estimate   =  -21073.62594480 Ry
     estimated scf accuracy    <       0.00000004 Ry

     total magnetization       =   162.31 Bohr mag/cell
     absolute magnetization    =   169.80 Bohr mag/cell

     iteration # 98     ecut=    60.00 Ry     beta= 0.20
     Davidson diagonalization with overlap
     ethr =  3.54E-12,  avg # of iterations = 17.1

     negative rho (up, down):  1.151E-02 1.212E-01

     total cpu time spent up to now is    27488.9 secs

     total energy              =  -21073.62590467 Ry
     Harris-Foulkes estimate   =  -21073.62590593 Ry
     estimated scf accuracy    <       0.00000030 Ry

     total magnetization       =   162.31 Bohr mag/cell
     absolute magnetization    =   169.80 Bohr mag/cell

     iteration # 99     ecut=    60.00 Ry     beta= 0.20
     Davidson diagonalization with overlap
     ethr =  3.54E-12,  avg # of iterations =  6.0

     negative rho (up, down):  1.151E-02 1.216E-01

     total cpu time spent up to now is    27733.5 secs

     total energy              =  -21073.62593291 Ry
     Harris-Foulkes estimate   =  -21073.62590466 Ry
     estimated scf accuracy    <       0.00000017 Ry

     total magnetization       =   162.31 Bohr mag/cell
     absolute magnetization    =   169.80 Bohr mag/cell

     iteration #100     ecut=    60.00 Ry     beta= 0.20
     Davidson diagonalization with overlap
     ethr =  3.54E-12,  avg # of iterations =  6.4

     negative rho (up, down):  1.153E-02 1.222E-01

     Magnetic moment per site:
     atom:    1    charge:   12.6106    magn:    2.3597    constr:    0.0000
     atom:    2    charge:   12.5993    magn:    2.2117    constr:    0.0000
     atom:    3    charge:   12.6105    magn:    2.3623    constr:    0.0000
     atom:    4    charge:   12.5995    magn:    2.1892    constr:    0.0000
     atom:    5    charge:   12.6021    magn:    2.1741    constr:    0.0000
     atom:    6    charge:   12.6156    magn:    2.3555    constr:    0.0000
     atom:    7    charge:   12.6025    magn:    2.1783    constr:    0.0000
     atom:    8    charge:   12.6164    magn:    2.3500    constr:    0.0000
     atom:    9    charge:   12.6105    magn:    2.3571    constr:    0.0000
     atom:   10    charge:   12.6103    magn:    2.3596    constr:    0.0000
     atom:   11    charge:   12.5999    magn:    2.2013    constr:    0.0000
     atom:   12    charge:   12.5995    magn:    2.1900    constr:    0.0000
     atom:   13    charge:   12.6023    magn:    2.1711    constr:    0.0000
     atom:   14    charge:   12.6018    magn:    2.1666    constr:    0.0000
     atom:   15    charge:   12.6158    magn:    2.3619    constr:    0.0000
     atom:   16    charge:   12.6160    magn:    2.3608    constr:    0.0000
     atom:   17    charge:   12.6104    magn:    2.3623    constr:    0.0000
     atom:   18    charge:   12.5995    magn:    2.1892    constr:    0.0000
     atom:   19    charge:   12.6103    magn:    2.3624    constr:    0.0000
     atom:   20    charge:   12.5998    magn:    2.1978    constr:    0.0000
     atom:   21    charge:   12.6025    magn:    2.1780    constr:    0.0000
     atom:   22    charge:   12.6163    magn:    2.3499    constr:    0.0000
     atom:   23    charge:   12.6024    magn:    2.1926    constr:    0.0000
     atom:   24    charge:   12.6141    magn:    2.2336    constr:    0.0000
     atom:   25    charge:   12.6104    magn:    2.3638    constr:    0.0000
     atom:   26    charge:   12.6105    magn:    2.3596    constr:    0.0000
     atom:   27    charge:   12.5996    magn:    2.2009    constr:    0.0000
     atom:   28    charge:   12.5997    magn:    2.1974    constr:    0.0000
     atom:   29    charge:   12.6030    magn:    2.1983    constr:    0.0000
     atom:   30    charge:   12.6021    magn:    2.1633    constr:    0.0000
     atom:   31    charge:   12.6161    magn:    2.3935    constr:    0.0000
     atom:   32    charge:   12.6155    magn:    2.3585    constr:    0.0000
     atom:   33    charge:   12.6104    magn:    2.3590    constr:    0.0000
     atom:   34    charge:   12.5995    magn:    2.1932    constr:    0.0000
     atom:   35    charge:   12.6105    magn:    2.3597    constr:    0.0000
     atom:   36    charge:   12.5997    magn:    2.2119    constr:    0.0000
     atom:   37    charge:   12.6022    magn:    2.1702    constr:    0.0000
     atom:   38    charge:   12.6150    magn:    2.3627    constr:    0.0000
     atom:   39    charge:   12.6020    magn:    2.1742    constr:    0.0000
     atom:   40    charge:   12.6157    magn:    2.3558    constr:    0.0000
     atom:   41    charge:   12.6106    magn:    2.3704    constr:    0.0000
     atom:   42    charge:   12.6109    magn:    2.3598    constr:    0.0000
     atom:   43    charge:   12.5994    magn:    2.1875    constr:    0.0000
     atom:   44    charge:   12.5997    magn:    2.1975    constr:    0.0000
     atom:   45    charge:   12.6029    magn:    2.1725    constr:    0.0000
     atom:   46    charge:   12.6014    magn:    2.1636    constr:    0.0000
     atom:   47    charge:   12.6164    magn:    2.3529    constr:    0.0000
     atom:   48    charge:   12.6153    magn:    2.3585    constr:    0.0000
     atom:   49    charge:   12.6105    magn:    2.3625    constr:    0.0000
     atom:   50    charge:   12.6003    magn:    2.1982    constr:    0.0000
     atom:   51    charge:   12.6104    magn:    2.3590    constr:    0.0000
     atom:   52    charge:   12.5996    magn:    2.1932    constr:    0.0000
     atom:   53    charge:   12.6022    magn:    2.1929    constr:    0.0000
     atom:   54    charge:   12.6146    magn:    2.2332    constr:    0.0000
     atom:   55    charge:   12.6023    magn:    2.1701    constr:    0.0000
     atom:   56    charge:   12.6151    magn:    2.3629    constr:    0.0000
     atom:   57    charge:   12.6105    magn:    2.3571    constr:    0.0000
     atom:   58    charge:   12.6104    magn:    2.3594    constr:    0.0000
     atom:   59    charge:   12.5999    magn:    2.2014    constr:    0.0000
     atom:   60    charge:   12.6000    magn:    2.1990    constr:    0.0000
     atom:   61    charge:   12.6022    magn:    2.1711    constr:    0.0000
     atom:   62    charge:   12.6018    magn:    2.1566    constr:    0.0000
     atom:   63    charge:   12.6157    magn:    2.3621    constr:    0.0000
     atom:   64    charge:   12.6123    magn:    2.2660    constr:    0.0000
     atom:   65    charge:    0.9770    magn:   -0.0223    constr:    0.0000

     total cpu time spent up to now is    27985.6 secs

     total energy              =  -21073.62599151 Ry
     Harris-Foulkes estimate   =  -21073.62593290 Ry
     estimated scf accuracy    <       0.00000008 Ry

     total magnetization       =   162.31 Bohr mag/cell
     absolute magnetization    =   169.80 Bohr mag/cell

     iteration #101     ecut=    60.00 Ry     beta= 0.20
     Davidson diagonalization with overlap
     ethr =  3.54E-12,  avg # of iterations =  7.0

     negative rho (up, down):  1.154E-02 1.215E-01

     total cpu time spent up to now is    28242.1 secs

     total energy              =  -21073.62596030 Ry
     Harris-Foulkes estimate   =  -21073.62599152 Ry
     estimated scf accuracy    <       0.00000002 Ry

     total magnetization       =   162.31 Bohr mag/cell
     absolute magnetization    =   169.80 Bohr mag/cell

     iteration #102     ecut=    60.00 Ry     beta= 0.20
     Davidson diagonalization with overlap
     ethr =  1.66E-12,  avg # of iterations =  7.9

     negative rho (up, down):  1.154E-02 1.218E-01

     total cpu time spent up to now is    28509.2 secs

     total energy              =  -21073.62597450 Ry
     Harris-Foulkes estimate   =  -21073.62596030 Ry
     estimated scf accuracy    <       0.00000007 Ry

     total magnetization       =   162.31 Bohr mag/cell
     absolute magnetization    =   169.80 Bohr mag/cell

     iteration #103     ecut=    60.00 Ry     beta= 0.20
     Davidson diagonalization with overlap
     ethr =  1.66E-12,  avg # of iterations =  6.9

     negative rho (up, down):  1.155E-02 1.220E-01

     total cpu time spent up to now is    28766.4 secs

     total energy              =  -21073.62597784 Ry
     Harris-Foulkes estimate   =  -21073.62597451 Ry
     estimated scf accuracy    <       0.00000003 Ry

     total magnetization       =   162.31 Bohr mag/cell
     absolute magnetization    =   169.80 Bohr mag/cell

     iteration #104     ecut=    60.00 Ry     beta= 0.20
     Davidson diagonalization with overlap
     ethr =  1.66E-12,  avg # of iterations =  5.6

     negative rho (up, down):  1.156E-02 1.220E-01

     Magnetic moment per site:
     atom:    1    charge:   12.6106    magn:    2.3597    constr:    0.0000
     atom:    2    charge:   12.5993    magn:    2.2117    constr:    0.0000
     atom:    3    charge:   12.6105    magn:    2.3623    constr:    0.0000
     atom:    4    charge:   12.5995    magn:    2.1891    constr:    0.0000
     atom:    5    charge:   12.6021    magn:    2.1740    constr:    0.0000
     atom:    6    charge:   12.6156    magn:    2.3555    constr:    0.0000
     atom:    7    charge:   12.6025    magn:    2.1782    constr:    0.0000
     atom:    8    charge:   12.6164    magn:    2.3500    constr:    0.0000
     atom:    9    charge:   12.6105    magn:    2.3571    constr:    0.0000
     atom:   10    charge:   12.6103    magn:    2.3596    constr:    0.0000
     atom:   11    charge:   12.5999    magn:    2.2012    constr:    0.0000
     atom:   12    charge:   12.5995    magn:    2.1900    constr:    0.0000
     atom:   13    charge:   12.6023    magn:    2.1711    constr:    0.0000
     atom:   14    charge:   12.6018    magn:    2.1666    constr:    0.0000
     atom:   15    charge:   12.6158    magn:    2.3619    constr:    0.0000
     atom:   16    charge:   12.6160    magn:    2.3608    constr:    0.0000
     atom:   17    charge:   12.6104    magn:    2.3623    constr:    0.0000
     atom:   18    charge:   12.5995    magn:    2.1891    constr:    0.0000
     atom:   19    charge:   12.6103    magn:    2.3624    constr:    0.0000
     atom:   20    charge:   12.5998    magn:    2.1978    constr:    0.0000
     atom:   21    charge:   12.6025    magn:    2.1780    constr:    0.0000
     atom:   22    charge:   12.6163    magn:    2.3499    constr:    0.0000
     atom:   23    charge:   12.6024    magn:    2.1926    constr:    0.0000
     atom:   24    charge:   12.6141    magn:    2.2336    constr:    0.0000
     atom:   25    charge:   12.6104    magn:    2.3638    constr:    0.0000
     atom:   26    charge:   12.6105    magn:    2.3596    constr:    0.0000
     atom:   27    charge:   12.5996    magn:    2.2009    constr:    0.0000
     atom:   28    charge:   12.5997    magn:    2.1974    constr:    0.0000
     atom:   29    charge:   12.6030    magn:    2.1983    constr:    0.0000
     atom:   30    charge:   12.6021    magn:    2.1633    constr:    0.0000
     atom:   31    charge:   12.6161    magn:    2.3935    constr:    0.0000
     atom:   32    charge:   12.6155    magn:    2.3585    constr:    0.0000
     atom:   33    charge:   12.6104    magn:    2.3590    constr:    0.0000
     atom:   34    charge:   12.5995    magn:    2.1932    constr:    0.0000
     atom:   35    charge:   12.6105    magn:    2.3597    constr:    0.0000
     atom:   36    charge:   12.5997    magn:    2.2119    constr:    0.0000
     atom:   37    charge:   12.6022    magn:    2.1701    constr:    0.0000
     atom:   38    charge:   12.6151    magn:    2.3627    constr:    0.0000
     atom:   39    charge:   12.6020    magn:    2.1742    constr:    0.0000
     atom:   40    charge:   12.6157    magn:    2.3558    constr:    0.0000
     atom:   41    charge:   12.6106    magn:    2.3704    constr:    0.0000
     atom:   42    charge:   12.6109    magn:    2.3598    constr:    0.0000
     atom:   43    charge:   12.5994    magn:    2.1875    constr:    0.0000
     atom:   44    charge:   12.5997    magn:    2.1975    constr:    0.0000
     atom:   45    charge:   12.6029    magn:    2.1725    constr:    0.0000
     atom:   46    charge:   12.6014    magn:    2.1636    constr:    0.0000
     atom:   47    charge:   12.6164    magn:    2.3529    constr:    0.0000
     atom:   48    charge:   12.6154    magn:    2.3585    constr:    0.0000
     atom:   49    charge:   12.6105    magn:    2.3625    constr:    0.0000
     atom:   50    charge:   12.6003    magn:    2.1982    constr:    0.0000
     atom:   51    charge:   12.6104    magn:    2.3590    constr:    0.0000
     atom:   52    charge:   12.5996    magn:    2.1932    constr:    0.0000
     atom:   53    charge:   12.6022    magn:    2.1929    constr:    0.0000
     atom:   54    charge:   12.6146    magn:    2.2332    constr:    0.0000
     atom:   55    charge:   12.6023    magn:    2.1701    constr:    0.0000
     atom:   56    charge:   12.6151    magn:    2.3629    constr:    0.0000
     atom:   57    charge:   12.6105    magn:    2.3571    constr:    0.0000
     atom:   58    charge:   12.6104    magn:    2.3594    constr:    0.0000
     atom:   59    charge:   12.5999    magn:    2.2013    constr:    0.0000
     atom:   60    charge:   12.6000    magn:    2.1989    constr:    0.0000
     atom:   61    charge:   12.6022    magn:    2.1710    constr:    0.0000
     atom:   62    charge:   12.6018    magn:    2.1566    constr:    0.0000
     atom:   63    charge:   12.6157    magn:    2.3621    constr:    0.0000
     atom:   64    charge:   12.6123    magn:    2.2660    constr:    0.0000
     atom:   65    charge:    0.9770    magn:   -0.0223    constr:    0.0000

     total cpu time spent up to now is    28980.1 secs

     End of self-consistent calculation

 ------ SPIN UP ------------


          k = 0.0000 0.0000 0.0000 (128403 PWs)   bands (ev):

  -100.4135-100.3906-100.3890-100.3786-100.3738-100.3735-100.3727-100.3724
  -100.3721-100.3719-100.3656-100.3607-100.3606-100.3597-100.3575-100.3572
  -100.3550-100.3547-100.3546-100.3537-100.3487-100.3463-100.3438-100.3426
  -100.3420-100.3417-100.3412-100.3397-100.3339-100.3335-100.3305-100.3193
  -100.2571-100.2398-100.2380-100.2344-100.2340-100.2266-100.2252-100.2181
  -100.2179-100.2114-100.2113-100.2109-100.2098-100.2096-100.2076-100.2042
  -100.2034-100.2031-100.2016-100.2002-100.1984-100.1963-100.1950-100.1932
  -100.1900-100.1893-100.1864-100.1794-100.1785-100.1759-100.1736-100.1604
   -66.6045 -66.5896 -66.5747 -66.5735 -66.5691 -66.5681 -66.5668 -66.5566
   -66.5564 -66.5561 -66.5551 -66.5547 -66.5547 -66.5543 -66.5472 -66.5449
   -66.5449 -66.5446 -66.5438 -66.5384 -66.5380 -66.5347 -66.5347 -66.5328
   -66.5283 -66.5282 -66.5270 -66.5257 -66.5248 -66.5240 -66.5224 -66.5168
   -66.5132 -66.5111 -66.5034 -66.5026 -66.5002 -66.4986 -66.4889 -66.4864
   -66.4824 -66.4770 -66.4756 -66.4750 -66.4750 -66.4731 -66.4391 -66.4141
   -66.4130 -66.4105 -66.4087 -66.4080 -66.4066 -66.4033 -66.4029 -66.4010
   -66.4010 -66.3990 -66.3971 -66.3946 -66.3908 -66.3905 -66.3894 -66.3873
   -66.3823 -66.3798 -66.3790 -66.3757 -66.3749 -66.3747 -66.3731 -66.3717
   -66.3687 -66.3661 -66.3632 -66.3596 -66.3504 -66.3502 -66.3482 -66.3440
   -66.3431 -66.3426 -66.3371 -66.3357 -66.3334 -66.3329 -66.3328 -66.3324
   -66.3302 -66.3288 -66.3274 -66.3241 -66.3233 -66.3203 -66.3193 -66.3122
   -66.3121 -66.3077 -66.3054 -66.3002 -66.2981 -66.2976 -66.2965 -66.2953
   -66.2811 -66.2801 -66.2776 -66.2775 -66.2773 -66.2753 -66.2724 -66.2722
   -66.2698 -66.2668 -66.2664 -66.2643 -66.2638 -66.2627 -66.2622 -66.2591
   -66.2587 -66.2550 -66.2531 -66.2522 -66.2491 -66.2488 -66.2487 -66.2482
[...]
   -11.4946 -11.4356 -11.4137 -11.3879 -11.3800 -11.3364 -11.3178 -11.3049
   -11.2936 -11.2701 -11.2514 -11.2442 -11.2431 -11.2401 -11.2162 -11.1939
   -11.1852 -11.1780 -11.1370 -11.0641 -11.0409 -11.0315 -11.0245 -11.0189
   -11.0051 -11.0003 -10.9939 -10.9900 -10.9838 -10.9799 -10.9770 -10.9554
   -10.9454 -10.9133 -10.8839 -10.8416 -10.8130 -10.8021 -10.7791 -10.7712
   -10.7635 -10.7603 -10.7498 -10.7402 -10.7196 -10.7177 -10.7144 -10.7052
   -10.6852 -10.6819 -10.6785 -10.6667 -10.6384 -10.6349 -10.6303 -10.6184
   -10.6099 -10.5923 -10.5891 -10.5832 -10.5683 -10.5434 -10.5195 -10.5094
   -10.5063 -10.5010 -10.5002 -10.4915 -10.4841 -10.4823 -10.4650 -10.4610
   -10.4586 -10.4448 -10.4373 -10.4240 -10.4198 -10.4170 -10.3958 -10.3922
   -10.3847 -10.3695 -10.3662 -10.3550 -10.3496 -10.3405 -10.3366 -10.2970
   -10.2899 -10.2835 -10.2811 -10.2753 -10.2707 -10.2581 -10.2512 -10.2486
   -10.2472 -10.2458 -10.2346 -10.2309 -10.2165 -10.2151 -10.1930 -10.1860
   -10.1794 -10.1721 -10.1531 -10.1482 -10.1457 -10.1453 -10.1390 -10.1360
   -10.1299 -10.1276 -10.1258 -10.1153 -10.0983 -10.0907 -10.0899 -10.0742
   -10.0661 -10.0561 -10.0531 -10.0510 -10.0402 -10.0246 -10.0158 -10.0082
    -9.9716  -9.9670  -9.9544  -9.9370  -9.9264  -9.9144  -9.9100  -9.9094
    -9.9041  -9.9022  -9.8886  -9.8804  -9.8725  -9.8352  -9.8278  -9.8087
    -9.8036  -9.8012  -9.7843  -9.7773  -9.7738  -9.7501  -9.6558  -9.6027
    -9.5604  -9.5460  -9.5296  -9.4702  -9.4025  -9.3610  -9.2902  -9.1938

          k =-0.5000-0.3536 0.0000 (128560 PWs)   bands (ev):

   -97.4158 -97.4074 -97.3748 -97.3709 -97.3647 -97.3642 -97.3528 -97.3431
   -97.3390 -97.3372 -97.3362 -97.3359 -97.3355 -97.3332 -97.3321 -97.3284
   -97.3257 -97.3246 -97.3216 -97.3204 -97.3185 -97.3179 -97.3156 -97.3150
   -97.3131 -97.3114 -97.3113 -97.3092 -97.3084 -97.3077 -97.3071 -97.2906
   -97.2892 -97.2883 -97.2868 -97.2819 -97.2800 -97.2795 -97.2779 -97.2778
   -97.2774 -97.2762 -97.2679 -97.2614 -97.2605 -97.2600 -97.2594 -97.2592
   -97.2576 -97.2574 -97.2563 -97.2557 -97.2554 -97.2551 -97.2549 -97.2511
   -97.2505 -97.2410 -97.2390 -97.2371 -97.2348 -97.2343 -97.2333 -97.2305
   -63.6914 -63.6586 -63.6353 -63.6251 -63.6238 -63.6226 -63.6220 -63.6192
   -63.6162 -63.6139 -63.6137 -63.6135 -63.6119 -63.6106 -63.6057 -63.6020
   -63.6013 -63.5997 -63.5991 -63.5974 -63.5953 -63.5948 -63.5900 -63.5857
   -63.5842 -63.5819 -63.5801 -63.5793 -63.5717 -63.5708 -63.5691 -63.5686
   -63.5604 -63.5574 -63.5554 -63.5463 -63.5451 -63.5433 -63.5406 -63.5394
   -63.5381 -63.5363 -63.5349 -63.5347 -63.5309 -63.5306 -63.5301 -63.5292
   -63.5284 -63.5281 -63.5258 -63.5240 -63.5232 -63.5229 -63.5186 -63.5186
   -63.5183 -63.5177 -63.5165 -63.5163 -63.5160 -63.5146 -63.4939 -63.4898
   -63.4798 -63.4795 -63.4755 -63.4713 -63.4694 -63.4673 -63.4639 -63.4591
   -63.4547 -63.4529 -63.4487 -63.4431 -63.4376 -63.4351 -63.4252 -63.4251
   -63.4204 -63.4195 -63.4187 -63.4144 -63.4133 -63.4131 -63.4126 -63.4100
   -63.4089 -63.4070 -63.4063 -63.4063 -63.4054 -63.4039 -63.3977 -63.3939
   -63.3905 -63.3900 -63.3858 -63.3849 -63.3837 -63.3809 -63.3783 -63.3762
   -63.3758 -63.3742 -63.3738 -63.3672 -63.3672 -63.3655 -63.3649 -63.3628
   -63.3606 -63.3585 -63.3529 -63.3516 -63.3480 -63.3471 -63.3461 -63.3417
   -63.3405 -63.3387 -63.3382 -63.3372 -63.3323 -63.3301 -63.3297 -63.3288
   -63.3272 -63.3250 -63.3220 -63.3211 -63.3173 -63.3154 -63.3153 -63.3145
   -63.3140 -63.3137 -63.3119 -63.3115 -63.3093 -63.3091 -63.3078 -63.3077
   -63.3071 -63.3056 -63.3055 -63.3050 -63.3022 -63.3005 -63.2988 -63.2964
   -63.2953 -63.2948 -63.2918 -63.2906 -63.2897 -63.2879 -63.2872 -63.2871
   -63.2859 -63.2858 -63.2850 -63.2848 -63.2842 -63.2838 -63.2835 -63.2817
   -63.2816 -63.2794 -63.2769 -63.2758 -63.2748 -63.2738 -63.2731 -63.2726
   -63.2721 -63.2715 -63.2715 -63.2708 -63.2634 -63.2625 -63.2608 -63.2584
   -63.2583 -63.2570 -63.2568 -63.2556 -63.2542 -63.2522 -63.2512 -63.2507
   -19.4031 -19.3247 -18.8376 -18.7401 -18.4043 -18.0382 -17.7392 -17.4955
   -17.1593 -16.7379 -16.7378 -16.7359 -16.7062 -16.3304 -16.1682 -15.8967
   -15.8959 -15.8915 -15.8872 -15.8855 -15.8637 -15.7969 -15.7578 -15.7541
   -15.7534 -15.7519 -15.5731 -15.3314 -15.3306 -15.3305 -15.3280 -15.3264
   -15.2190 -15.1223 -15.0941 -14.8603 -14.8468 -14.8307 -14.8297 -14.8267
   -14.7756 -14.7670 -14.7575 -14.7323 -14.7283 -14.7241 -14.6410 -14.5604
   -14.5579 -14.5518 -14.5451 -14.5307 -14.4735 -14.2880 -14.2856 -14.2797
   -14.2797 -14.2740 -14.2402 -14.0602 -14.0319 -14.0116 -13.9955 -13.9537
   -13.9533 -13.8526 -13.8406 -13.7650 -13.7640 -13.7633 -13.7599 -13.7557
   -13.7401 -13.7369 -13.7269 -13.7263 -13.7162 -13.6403 -13.6362 -13.6355
   -13.6322 -13.6282 -13.6272 -13.6255 -13.6223 -13.6205 -13.6199 -13.6187
   -13.5162 -13.4213 -13.4134 -13.3952 -13.3947 -13.2704 -13.2683 -13.2660
   -13.2613 -13.2598 -13.2565 -13.2256 -13.2163 -13.2067 -13.2053 -13.1914
   -13.1861 -13.1852 -13.1791 -13.1763 -13.1719 -13.1703 -13.1666 -13.1491
   -13.1439 -13.1362 -13.1356 -13.1340 -13.1301 -13.1287 -13.1260 -13.1252
   -13.1204 -13.0910 -13.0906 -13.0855 -13.0574 -13.0349 -13.0308 -13.0296
   -13.0287 -13.0220 -13.0214 -13.0181 -13.0179 -13.0158 -13.0104 -13.0061
   -12.9621 -12.9561 -12.9279 -12.8302 -12.8154 -12.7590 -12.7567 -12.7544
   -12.7525 -12.7445 -12.7386 -12.6931 -12.6896 -12.6867 -12.6601 -12.5837
   -12.5833 -12.5720 -12.5637 -12.5590 -12.5424 -12.5328 -12.5243 -12.5220
   -12.5051 -12.4987 -12.4646 -12.4529 -12.3702 -12.3282 -12.3254 -12.3231
   -12.3060 -12.2503 -12.2428 -12.2399 -12.2292 -12.2123 -12.2066 -12.2020
   -12.1996 -12.1950 -12.1640 -12.1187 -12.1181 -12.1100 -12.1013 -12.0960
   -12.0957 -12.0587 -11.9693 -11.9690 -11.8484 -11.8183 -11.8183 -11.7705
   -11.7434 -11.7285 -11.6620 -11.6499 -11.5018 -11.4742 -11.4646 -11.4537
   -11.4203 -11.4126 -11.3973 -11.3968 -11.3144 -11.3063 -11.3053 -11.2955
   -11.2949 -11.2924 -11.2361 -11.2252 -11.2191 -11.2138 -11.1791 -11.1730
   -11.1682 -11.1577 -11.0772 -11.0707 -11.0668 -11.0631 -11.0536 -11.0499
   -10.9813 -10.9767 -10.9676 -10.9598 -10.9546 -10.9520 -10.9477 -10.9473
   -10.9358 -10.9294 -10.9269 -10.9258 -10.8575 -10.8502 -10.8458 -10.8454
   -10.7969 -10.7901 -10.7836 -10.7825 -10.7602 -10.7505 -10.7239 -10.7158
   -10.6592 -10.6567 -10.6117 -10.6061 -10.5400 -10.5307 -10.5270 -10.5203
   -10.5194 -10.5158 -10.5128 -10.5110 -10.4962 -10.4945 -10.4820 -10.4680
   -10.4667 -10.4655 -10.4626 -10.4603 -10.4537 -10.4512 -10.4466 -10.4452
   -10.4355 -10.4292 -10.3892 -10.3861 -10.3856 -10.3832 -10.3819 -10.3796
   -10.3611 -10.3601 -10.3540 -10.3525 -10.3500 -10.3498 -10.3266 -10.3188
   -10.3173 -10.3154 -10.2924 -10.2856 -10.2796 -10.2795 -10.2711 -10.2702
   -10.2683 -10.2653 -10.2593 -10.2553 -10.2252 -10.2223 -10.1733 -10.1655
   -10.1473 -10.1436 -10.1405 -10.1360 -10.1307 -10.1242 -10.0957 -10.0915
   -10.0901 -10.0831 -10.0794 -10.0791 -10.0790 -10.0777 -10.0712 -10.0700
   -10.0659 -10.0651 -10.0644 -10.0643 -10.0629 -10.0563 -10.0117 -10.0108
   -10.0072 -10.0068 -10.0065 -10.0032  -9.9899  -9.9873  -9.9834  -9.9784
    -9.9764  -9.9759  -9.9021  -9.8997  -9.8940  -9.8880  -9.8866  -9.8847
    -9.7192  -9.6945  -9.6848  -9.6767  -9.6115  -9.5955  -9.5225  -9.4670
    -9.4586  -9.4576  -9.4456  -9.3897  -9.3850  -9.3727  -9.3679  -9.3673

     the Fermi energy is   -12.2279 ev

!    total energy              =  -21073.62632826 Ry
     Harris-Foulkes estimate   =  -21073.62633055 Ry
     estimated scf accuracy    <          9.3E-11 Ry

     The total energy is the sum of the following terms:

     one-electron contribution = -738144.59560746 Ry
     hartree contribution      =  368606.15577411 Ry
     xc contribution           =   -2228.85083746 Ry
     ewald contribution        =  355568.46171219 Ry
     Dispersion Correction     =      -1.37593192 Ry
     one-center paw contrib.   =   -4873.42246857 Ry
     smearing contrib. (-TS)   =       0.00103086 Ry

     total magnetization       =   162.66 Bohr mag/cell
     absolute magnetization    =   170.19 Bohr mag/cell

     convergence has been achieved in  29 iterations

     negative rho (up, down):  1.156E-02 1.218E-01

     Forces acting on atoms (cartesian axes, Ry/au):

     atom    1 type  1   force =     0.00013306    0.00009421    0.00928542
     atom    2 type  1   force =     0.00005085   -0.00028693   -0.00745132
     atom    3 type  1   force =    -0.00007819    0.00006808    0.00873538
     atom    4 type  1   force =    -0.00027128   -0.00008766   -0.00800579
     atom    5 type  1   force =     0.00000870    0.00000349    0.00002423
     atom    6 type  1   force =     0.00001277    0.00001980   -0.00000526
     atom    7 type  1   force =     0.00000794    0.00002146    0.00004486
     atom    8 type  1   force =     0.00001255   -0.00000118    0.00003259
     atom    9 type  1   force =     0.00005271    0.00002437    0.00918087
     atom   10 type  1   force =     0.00001272   -0.00003775    0.00909058
     atom   11 type  1   force =     0.00040669   -0.00005829   -0.00865792
     atom   12 type  1   force =     0.00002207    0.00010580   -0.00733128
     atom   13 type  1   force =    -0.00000806   -0.00000536    0.00006356
     atom   14 type  1   force =     0.00002536    0.00001364    0.00003201
     atom   15 type  1   force =    -0.00009437   -0.00001336   -0.00001358
     atom   16 type  1   force =     0.00003451    0.00001240   -0.00000125
     atom   17 type  1   force =     0.00003613   -0.00008754    0.00871892
     atom   18 type  1   force =    -0.00013974   -0.00021761   -0.00795853
     atom   19 type  1   force =    -0.00003137    0.00016505    0.00895270
     atom   20 type  1   force =     0.00032962   -0.00057416   -0.00871105
     atom   21 type  1   force =     0.00002025    0.00000173    0.00002700
     atom   22 type  1   force =     0.00001206    0.00001567    0.00003444
     atom   23 type  1   force =    -0.00002301    0.00001601    0.00001455
     atom   24 type  1   force =    -0.00002062   -0.00000840    0.00008809
     atom   25 type  1   force =     0.00009714    0.00004347    0.00884779
     atom   26 type  1   force =    -0.00019155    0.00021210    0.00947568
     atom   27 type  1   force =    -0.00014382   -0.00019480   -0.00753868
     atom   28 type  1   force =    -0.00026591   -0.00004201   -0.00775901
     atom   29 type  1   force =    -0.00000433   -0.00000286    0.00005284
     atom   30 type  1   force =    -0.00001611    0.00005193    0.00008148
     atom   31 type  1   force =     0.00003332    0.00001507   -0.00002464
     atom   32 type  1   force =     0.00003744    0.00006048    0.00000042
     atom   33 type  1   force =    -0.00008803   -0.00033044    0.00933737
     atom   34 type  1   force =     0.00036016    0.00024746   -0.00815248
     atom   35 type  1   force =     0.00012934    0.00008123    0.00930592
     atom   36 type  1   force =    -0.00034457    0.00026007   -0.00733851
     atom   37 type  1   force =     0.00001114   -0.00001561    0.00003246
     atom   38 type  1   force =    -0.00000967   -0.00000201    0.00001455
     atom   39 type  1   force =     0.00001501   -0.00000485    0.00002397
     atom   40 type  1   force =     0.00002625   -0.00000790   -0.00000875
     atom   41 type  1   force =     0.00001760   -0.00000944    0.00817224
     atom   42 type  1   force =     0.00009957   -0.00021546    0.00944682
     atom   43 type  1   force =    -0.00010820    0.00003937   -0.00794861
     atom   44 type  1   force =    -0.00017889   -0.00024389   -0.00775284
     atom   45 type  1   force =     0.00000127   -0.00000582    0.00004186
     atom   46 type  1   force =     0.00004777   -0.00003648    0.00008709
     atom   47 type  1   force =    -0.00000227   -0.00001874    0.00001036
     atom   48 type  1   force =     0.00006916    0.00001094    0.00002394
     atom   49 type  1   force =     0.00016093   -0.00009541    0.00899510
     atom   50 type  1   force =    -0.00036765    0.00041945   -0.00868217
     atom   51 type  1   force =    -0.00035565    0.00003463    0.00935145
     atom   52 type  1   force =     0.00036086    0.00027340   -0.00820982
     atom   53 type  1   force =     0.00000622   -0.00002429    0.00002470
     atom   54 type  1   force =     0.00000249   -0.00002291    0.00008376
     atom   55 type  1   force =    -0.00000282    0.00000522    0.00002269
     atom   56 type  1   force =     0.00000837   -0.00001380    0.00001899
     atom   57 type  1   force =    -0.00002027    0.00008573    0.00915194
     atom   58 type  1   force =    -0.00003451   -0.00005798    0.00906593
     atom   59 type  1   force =     0.00009625    0.00045319   -0.00857606
     atom   60 type  1   force =     0.00004567   -0.00003751   -0.00851598
     atom   61 type  1   force =    -0.00000779   -0.00001250    0.00006282
     atom   62 type  1   force =    -0.00001392   -0.00001230    0.00002106
     atom   63 type  1   force =    -0.00003899   -0.00008360   -0.00000060
     atom   64 type  1   force =     0.00010622    0.00006235    0.00003813
     atom   65 type  2   force =    -0.00004859   -0.00004896    0.00009389

     Total force =     0.000359     Total SCF correction =     0.000025

     bfgs converged in  20 scf cycles and  17 bfgs steps
     (criteria: energy <  7.3E-07 Ry, force <  3.9E-04 Ry/Bohr)

     End of BFGS Geometry Optimization

     Final energy   =  -21073.6263282552 Ry
Begin final coordinates

ATOMIC_POSITIONS (angstrom)
Fe       1.654912953   1.170200133   0.000000000    0   0   0
Fe       0.000000000   0.000000000   2.026984232    0   0   0
Fe       4.964738858   3.510600399   0.000000000    0   0   0
Fe       3.309825906   2.340400266   2.026984232    0   0   0
Fe       1.651205871   1.169294432   4.034392193
Fe       3.305654984   9.368981470   6.018408592
Fe       4.963284677   3.508713138   4.036691005
Fe       3.301709777   2.340440689   6.013557562
Fe       2.482363858   3.510600399   0.000000000    0   0   0
Fe       4.137287953   1.170200133   0.000000000    0   0   0
Fe       0.827450906   2.340400266   2.026984232    0   0   0
Fe       2.482375000   0.000000000   2.026984232    0   0   0
Fe       2.481442223   3.511677499   4.034936666
Fe       4.134949723   1.168624253   4.033526514
Fe       0.824119027   2.342424870   6.021644547
Fe       2.478263578  -0.002375640   6.024543558
Fe       6.619662953   1.170200133   0.000000000    0   0   0
Fe       4.964750000   0.000000000   2.026984232    0   0   0
Fe       9.929488858   3.510600399   0.000000000    0   0   0
Fe       8.274575906   2.340400266   2.026984232    0   0   0
Fe       6.617451883   1.169215334   4.036790670
Fe       4.961459960  -0.007642521   6.013347199
Fe       9.931866802   3.510918875   4.029880006
Fe       8.275459829   2.343262883   6.021877262
Fe       7.447113858   3.510600399   0.000000000    0   0   0
Fe       9.102037953   1.170200133   0.000000000    0   0   0
Fe       5.792200906   2.340400266   2.026984232    0   0   0
Fe       7.447125000   0.000000000   2.026984232    0   0   0
Fe       7.445494220   3.509240635   4.024713631
Fe       9.097632868   1.173407744   4.038538180
Fe       5.777602696   2.329986294   6.024817370
Fe      10.762091463   9.365035495   6.018891858
Fe       3.309814764   5.851000664   0.000000000    0   0   0
Fe       1.654901811   4.680800531   2.026984232    0   0   0
Fe       6.619640670   8.191400930   0.000000000    0   0   0
Fe       4.964727717   7.021200797   2.026984232    0   0   0
Fe       3.311657910   5.852139054   4.033683992
Fe      11.579877386   4.687199510   6.019572373
Fe       6.617332549   8.188611150   4.034596470
Fe       4.969949994   7.015550149   6.018428757
Fe       4.137265670   8.191400930   0.000000000    0   0   0
Fe       5.792189764   5.851000664   0.000000000    0   0   0
Fe       2.482352717   7.021200797   2.026984232    0   0   0
Fe       4.137276811   4.680800531   2.026984232    0   0   0
Fe       4.136686997   8.191447785   4.034697957
Fe       5.793660962   5.846031880   4.038741667
Fe      12.416570665   7.024930511   6.019851345
Fe       4.142448104   4.685010964   6.018104741
Fe       8.274564764   5.851000664   0.000000000    0   0   0
Fe       6.619651811   4.680800531   2.026984232    0   0   0
Fe      11.584390670   8.191400930   0.000000000    0   0   0
Fe       9.929477717   7.021200797   2.026984232    0   0   0
Fe       8.275642422   5.853092775   4.030072641
Fe       6.622785291   4.680500468   6.022121128
Fe      11.585748056   8.193137181   4.033791760
Fe       9.933541812   7.014862010   6.019899890
Fe       9.102015670   8.191400930   0.000000000    0   0   0
Fe      10.756939764   5.851000664   0.000000000    0   0   0
Fe       7.447102717   7.021200797   2.026984232    0   0   0
Fe       9.102026811   4.680800531   2.026984232    0   0   0
Fe       9.102599967   8.190276363   4.035065674
Fe      10.758441260   5.852159516   4.034189713
Fe       7.447387228   7.017518123   6.022035327
Fe       9.103804892   4.681972315   6.004621258
H        7.868401864   3.808340844   6.942252103
End final coordinates



     Writing output data file Fe_H_paper_480c_ESM_pn5.save/

     init_run     :     78.14s CPU     79.47s WALL (       1 calls)
     electrons    : 208207.68s CPU 210149.82s WALL (      20 calls)
     update_pot   :    240.02s CPU    240.45s WALL (      19 calls)
     forces       :    814.24s CPU    824.19s WALL (      20 calls)

     Called by init_run:
     wfcinit      :     58.01s CPU     59.13s WALL (       1 calls)
     potinit      :      5.91s CPU      5.95s WALL (       1 calls)
     hinit0       :     11.15s CPU     11.21s WALL (       1 calls)

     Called by electrons:
     c_bands      : 188704.81s CPU 190382.11s WALL (     704 calls)
     sum_band     :  11220.43s CPU  11399.37s WALL (     704 calls)
     v_of_rho     :   1149.13s CPU   1155.01s WALL (     707 calls)
     newd         :    197.52s CPU    204.86s WALL (     707 calls)
     PAW_pot      :    316.58s CPU    317.90s WALL (     726 calls)
     mix_rho      :   6313.46s CPU   6376.29s WALL (     704 calls)

     Called by c_bands:
     init_us_2    :    319.77s CPU    323.05s WALL (    4344 calls)
     cegterg      : 116812.10s CPU 117943.36s WALL (    2120 calls)

     Called by sum_band:
     sum_band:bec :     20.45s CPU     20.58s WALL (    2169 calls)
     addusdens    :    237.01s CPU    248.83s WALL (     704 calls)

     Called by *egterg:
     h_psi        :  43925.44s CPU  44309.62s WALL (   10240 calls)
     s_psi        :   9011.37s CPU   9029.82s WALL (   10240 calls)
     g_psi        :    110.95s CPU    111.55s WALL (    8117 calls)
     cdiaghg      :  33109.22s CPU  33257.81s WALL (   10129 calls)

     Called by h_psi:
     h_psi:pot    :  43835.25s CPU  44087.23s WALL (   10240 calls)
     h_psi:calbec :   9125.69s CPU   9144.53s WALL (   10240 calls)
     vloc_psi     :  25695.69s CPU  25908.86s WALL (   10240 calls)
     add_vuspsi   :   9013.73s CPU   9033.77s WALL (   10240 calls)

     General routines
     calbec       :  13421.13s CPU  13450.60s WALL (   12649 calls)
     fft          :    723.31s CPU    728.29s WALL (   17988 calls)
     ffts         :   3231.68s CPU   3253.41s WALL (  386711 calls)
     fftw         :  25442.56s CPU  25658.08s WALL ( 7449736 calls)
     interpolate  :     70.77s CPU     71.26s WALL (    1414 calls)
     davcio       :      3.85s CPU    411.14s WALL (   20227 calls)

     Parallel routines
     fft_scatt_xy :   5167.02s CPU   5197.66s WALL ( 7854435 calls)
     fft_scatt_yz :   7599.98s CPU   7707.26s WALL ( 7854435 calls)

     PWSCF        :   2d10h12m CPU   2d10h45m WALL


   This run was terminated on:   1:52:53  18Jun2022            

=------------------------------------------------------------------------------=
   JOB DONE.
=------------------------------------------------------------------------------=
