     Message from routine get_command_line:
     unexpected argument # 4     :-in

     Program PWSCF v.6.4.1 starts on  6Jun2022 at 17:47: 8 

     This program is part of the open-source Quantum ESPRESSO suite
     for quantum simulation of materials; please cite
         "P. Giannozzi et al., J. Phys.:Condens. Matter 21 395502 (2009);
         "P. Giannozzi et al., J. Phys.:Condens. Matter 29 465901 (2017);
          URL http://www.quantum-espresso.org", 
     in publications or presentations arising from this work. More details at
     http://www.quantum-espresso.org/quote

     Parallel version (MPI), running on    20 processors

     MPI processes distributed on     1 nodes
     K-points division:     npool     =       4
     R & G space division:  proc/nbgrp/npool/nimage =       5
     Waiting for input...
     Reading input from standard input
Warning: card &CELL ignored
Warning: card / ignored

     Current dimensions of program PWSCF are:
     Max number of different atomic species (ntypx) = 10
     Max number of k-points (npk) =  40000
     Max angular momentum in pseudopotentials (lmaxx) =  3

     IMPORTANT: XC functional enforced from input :
     Exchange-correlation      = PBE ( 1  4  3  4 0 0)
     Any further DFT definition will be discarded
     Please, verify this is what you really want


     -------------------------------------------------
     Parameters for Dispersion (Grimme-D2) Correction:
     -------------------------------------------------
       atom      VdW radius       C_6     

        N          2.640         42.670
        H          1.892          4.857

     Subspace diagonalization in iterative solution of the eigenvalue problem:
     a serial algorithm will be used


     Parallelization info
     --------------------
     sticks:   dense  smooth     PW     G-vecs:    dense   smooth      PW
     Min       10910    5456   1406              1917582   677852   88638
     Max       10911    5457   1408              1917585   677855   88639
     Sum       54553   27281   7033              9587919  3389267  443191



     bravais-lattice index     =            0
     lattice parameter (alat)  =      37.7945  a.u.
     unit-cell volume          =   53986.6767 (a.u.)^3
     number of atoms/cell      =            3
     number of atomic types    =            2
     number of electrons       =         7.00
     number of Kohn-Sham states=            8
     kinetic-energy cutoff     =      60.0000  Ry
     charge density cutoff     =     480.0000  Ry
     convergence threshold     =      1.0E-08
     mixing beta               =       0.2000
     number of iterations used =           10  local-TF  mixing
     Exchange-correlation      = PBE ( 1  4  3  4 0 0)
     nstep                     =           50


     celldm(1)=  37.794523  celldm(2)=   0.000000  celldm(3)=   0.000000
     celldm(4)=   0.000000  celldm(5)=   0.000000  celldm(6)=   0.000000

     crystal axes: (cart. coord. in units of alat)
               a(1) = (   1.000000   0.000000   0.000000 )  
               a(2) = (   0.000000   1.000000   0.000000 )  
               a(3) = (   0.000000   0.000000   1.000000 )  

     reciprocal axes: (cart. coord. in units 2 pi/alat)
               b(1) = (  1.000000  0.000000  0.000000 )  
               b(2) = (  0.000000  1.000000  0.000000 )  
               b(3) = (  0.000000  0.000000  1.000000 )  


     PseudoPot. # 1 for N  read from file:
     ../../SSSP/N.pbe-n-radius_5.UPF
     MD5 check sum: 16739722b17309cd8fe442a2ace49922
     Pseudo is Ultrasoft + core correction, Zval =  5.0
     Generated using "atomic" code by A. Dal Corso v.5.1
     Using radial grid of 1085 points,  4 beta functions with: 
                l(1) =   0
                l(2) =   0
                l(3) =   1
                l(4) =   1
     Q(r) pseudized with 0 coefficients 


     PseudoPot. # 2 for H  read from file:
     ../../SSSP/H.pbe-rrkjus_psl.1.0.0.UPF
     MD5 check sum: f52b6d4d1c606e5624b1dc7b2218f220
     Pseudo is Ultrasoft, Zval =  1.0
     Generated using "atomic" code by A. Dal Corso v.5.1
     Using radial grid of  929 points,  2 beta functions with: 
                l(1) =   0
                l(2) =   0
     Q(r) pseudized with 0 coefficients 


     atomic species   valence    mass     pseudopotential
        N              5.00    14.00700     N ( 1.00)
        H              1.00     1.00800     H ( 1.00)

     Starting magnetic structure 
     atomic species   magnetization
        N            0.100
        H            0.100

     No symmetry found



   Cartesian axes

     site n.     atom                  positions (alat units)
         1           N   tau(   1) = (   0.5000000   0.5000000   0.5070845  )
         2           H   tau(   2) = (   0.5000000   0.5403221   0.4752044  )
         3           H   tau(   3) = (   0.5000000   0.4596779   0.4752044  )

     number of k points=    10  Methfessel-Paxton smearing, width (Ry)=  0.0100
                       cart. coord. in units 2pi/alat
        k(    1) = (   0.0000000   0.0000000   0.0000000), wk =   0.0625000
        k(    2) = (   0.0000000   0.2500000   0.0000000), wk =   0.1250000
        k(    3) = (   0.0000000  -0.5000000   0.0000000), wk =   0.0625000
        k(    4) = (   0.2500000   0.0000000   0.0000000), wk =   0.1250000
        k(    5) = (   0.2500000   0.2500000   0.0000000), wk =   0.1250000
        k(    6) = (   0.2500000  -0.5000000   0.0000000), wk =   0.1250000
        k(    7) = (   0.2500000  -0.2500000   0.0000000), wk =   0.1250000
        k(    8) = (  -0.5000000   0.0000000   0.0000000), wk =   0.0625000
        k(    9) = (  -0.5000000   0.2500000   0.0000000), wk =   0.1250000
        k(   10) = (  -0.5000000  -0.5000000   0.0000000), wk =   0.0625000

     Dense  grid:  9587919 G-vectors     FFT dimensions: ( 270, 270, 270)

     Smooth grid:  3389267 G-vectors     FFT dimensions: ( 192, 192, 192)

     Estimated max dynamical RAM per process >       1.71 GB

     Estimated total dynamical RAM >      34.15 GB
     Generating pointlists ...
     new r_m :   0.0212 (alat units)  0.8014 (a.u.) for type    1
     new r_m :   0.0212 (alat units)  0.8014 (a.u.) for type    2

     Initial potential from superposition of free atoms

     starting charge    6.99997, renormalised to    7.00000

     negative rho (up, down):  1.762E-04 3.063E-03
     Starting wfcs are    6 randomized atomic wfcs +    2 random wfcs

     total cpu time spent up to now is       40.5 secs

     Self-consistent Calculation

     iteration #  1     ecut=    60.00 Ry     beta= 0.20
     Davidson diagonalization with overlap
     c_bands:  1 eigenvalues not converged
     c_bands:  1 eigenvalues not converged
     c_bands:  1 eigenvalues not converged
     c_bands:  1 eigenvalues not converged
     c_bands:  1 eigenvalues not converged
     ethr =  1.00E-04,  avg # of iterations = 19.9

     negative rho (up, down):  1.881E-08 3.046E-04

     total cpu time spent up to now is      761.2 secs

     total energy              =     -22.45643114 Ry
     Harris-Foulkes estimate   =     -22.47643907 Ry
     estimated scf accuracy    <       0.32316648 Ry

     total magnetization       =     1.00 Bohr mag/cell
     absolute magnetization    =     1.01 Bohr mag/cell

     iteration #  2     ecut=    60.00 Ry     beta= 0.20
     Davidson diagonalization with overlap
     ethr =  4.62E-03,  avg # of iterations =  1.0

     negative rho (up, down):  4.564E-09 1.524E-06

     total cpu time spent up to now is      898.5 secs

     total energy              =     -22.37115515 Ry
     Harris-Foulkes estimate   =     -22.45781582 Ry
     estimated scf accuracy    <       0.23189690 Ry

     total magnetization       =     1.00 Bohr mag/cell
     absolute magnetization    =     1.01 Bohr mag/cell

     iteration #  3     ecut=    60.00 Ry     beta= 0.20
     Davidson diagonalization with overlap
     ethr =  3.31E-03,  avg # of iterations =  2.0

     negative rho (up, down):  1.281E-04 2.445E-04

     total cpu time spent up to now is     1116.1 secs

     total energy              =     -22.41262352 Ry
     Harris-Foulkes estimate   =     -22.41742580 Ry
     estimated scf accuracy    <       0.02409784 Ry

     total magnetization       =     1.00 Bohr mag/cell
     absolute magnetization    =     1.08 Bohr mag/cell

     iteration #  4     ecut=    60.00 Ry     beta= 0.20
     Davidson diagonalization with overlap
     ethr =  3.44E-04,  avg # of iterations =  2.2

     negative rho (up, down):  2.588E-03 1.369E-03

     total cpu time spent up to now is     1458.1 secs

     total energy              =     -22.41238403 Ry
     Harris-Foulkes estimate   =     -22.41924564 Ry
     estimated scf accuracy    <       0.02664060 Ry

     total magnetization       =     1.07 Bohr mag/cell
     absolute magnetization    =     1.11 Bohr mag/cell

     iteration #  5     ecut=    60.00 Ry     beta= 0.20
     Davidson diagonalization with overlap
     ethr =  3.44E-04,  avg # of iterations =  1.0

     negative rho (up, down):  3.150E-03 2.204E-03

     total cpu time spent up to now is     1743.6 secs

     total energy              =     -22.41104035 Ry
     Harris-Foulkes estimate   =     -22.41270742 Ry
     estimated scf accuracy    <       0.01029651 Ry

     total magnetization       =     1.00 Bohr mag/cell
     absolute magnetization    =     1.07 Bohr mag/cell

     iteration #  6     ecut=    60.00 Ry     beta= 0.20
     Davidson diagonalization with overlap
     ethr =  1.47E-04,  avg # of iterations =  2.7

     negative rho (up, down):  1.175E-02 4.311E-03

     total cpu time spent up to now is     2091.6 secs

     total energy              =     -22.40913160 Ry
     Harris-Foulkes estimate   =     -22.41124220 Ry
     estimated scf accuracy    <       0.00666740 Ry

     total magnetization       =     1.00 Bohr mag/cell
     absolute magnetization    =     1.07 Bohr mag/cell

     iteration #  7     ecut=    60.00 Ry     beta= 0.20
     Davidson diagonalization with overlap
     ethr =  9.52E-05,  avg # of iterations =  7.8

     negative rho (up, down):  3.970E-02 3.379E-03

     total cpu time spent up to now is     2484.4 secs

     total energy              =     -22.40896746 Ry
     Harris-Foulkes estimate   =     -22.40955569 Ry
     estimated scf accuracy    <       0.00233645 Ry

     total magnetization       =     1.00 Bohr mag/cell
     absolute magnetization    =     1.07 Bohr mag/cell

     iteration #  8     ecut=    60.00 Ry     beta= 0.20
     Davidson diagonalization with overlap
     ethr =  3.34E-05,  avg # of iterations =  4.9

     negative rho (up, down):  2.575E-02 5.064E-03

     total cpu time spent up to now is     2891.8 secs

     total energy              =     -22.40943536 Ry
     Harris-Foulkes estimate   =     -22.41010986 Ry
     estimated scf accuracy    <       0.00257121 Ry

     total magnetization       =     1.00 Bohr mag/cell
     absolute magnetization    =     1.06 Bohr mag/cell

     iteration #  9     ecut=    60.00 Ry     beta= 0.20
     Davidson diagonalization with overlap
     ethr =  3.34E-05,  avg # of iterations =  1.9

     negative rho (up, down):  3.588E-02 5.713E-03

     total cpu time spent up to now is     3342.3 secs

     total energy              =     -22.40976356 Ry
     Harris-Foulkes estimate   =     -22.40990386 Ry
     estimated scf accuracy    <       0.00067303 Ry

     total magnetization       =     1.00 Bohr mag/cell
     absolute magnetization    =     1.07 Bohr mag/cell

     iteration # 10     ecut=    60.00 Ry     beta= 0.20
     Davidson diagonalization with overlap
     c_bands:  1 eigenvalues not converged
     ethr =  9.61E-06,  avg # of iterations =  8.5

     negative rho (up, down):  2.965E-02 7.323E-03

     total cpu time spent up to now is     4070.7 secs

     total energy              =     -22.40992669 Ry
     Harris-Foulkes estimate   =     -22.41008029 Ry
     estimated scf accuracy    <       0.00055350 Ry

     total magnetization       =     1.00 Bohr mag/cell
     absolute magnetization    =     1.07 Bohr mag/cell

     iteration # 11     ecut=    60.00 Ry     beta= 0.20
     Davidson diagonalization with overlap
     ethr =  7.91E-06,  avg # of iterations =  6.6

     negative rho (up, down):  1.315E-02 1.092E-02

     total cpu time spent up to now is     4660.8 secs

     total energy              =     -22.40968685 Ry
     Harris-Foulkes estimate   =     -22.40993808 Ry
     estimated scf accuracy    <       0.00030643 Ry

     total magnetization       =     1.00 Bohr mag/cell
     absolute magnetization    =     1.07 Bohr mag/cell

     iteration # 12     ecut=    60.00 Ry     beta= 0.20
     Davidson diagonalization with overlap
     ethr =  4.38E-06,  avg # of iterations = 12.9

     negative rho (up, down):  8.806E-03 1.610E-02

     total cpu time spent up to now is     5672.0 secs

     total energy              =     -22.40973075 Ry
     Harris-Foulkes estimate   =     -22.40973691 Ry
     estimated scf accuracy    <       0.00001053 Ry

     total magnetization       =     1.00 Bohr mag/cell
     absolute magnetization    =     1.07 Bohr mag/cell

     iteration # 13     ecut=    60.00 Ry     beta= 0.20
     Davidson diagonalization with overlap
     ethr =  1.50E-07,  avg # of iterations =  5.7

     negative rho (up, down):  2.622E-03 4.277E-02

     total cpu time spent up to now is     7064.7 secs

     total energy              =     -22.40974439 Ry
     Harris-Foulkes estimate   =     -22.40973225 Ry
     estimated scf accuracy    <       0.00000513 Ry

     total magnetization       =     1.00 Bohr mag/cell
     absolute magnetization    =     1.07 Bohr mag/cell

     iteration # 14     ecut=    60.00 Ry     beta= 0.20
     Davidson diagonalization with overlap
     ethr =  7.33E-08,  avg # of iterations = 11.1

     negative rho (up, down):  1.770E-03 5.786E-02

     total cpu time spent up to now is     7951.9 secs

     total energy              =     -22.40974785 Ry
     Harris-Foulkes estimate   =     -22.40974578 Ry
     estimated scf accuracy    <       0.00000225 Ry

     total magnetization       =     1.00 Bohr mag/cell
     absolute magnetization    =     1.07 Bohr mag/cell

     iteration # 15     ecut=    60.00 Ry     beta= 0.20
     Davidson diagonalization with overlap
     ethr =  3.22E-08,  avg # of iterations =  4.2

     negative rho (up, down):  5.363E-04 1.017E-01

     total cpu time spent up to now is     8846.5 secs

     total energy              =     -22.40975142 Ry
     Harris-Foulkes estimate   =     -22.40974803 Ry
     estimated scf accuracy    <       0.00000069 Ry

     total magnetization       =     1.00 Bohr mag/cell
     absolute magnetization    =     1.07 Bohr mag/cell

     iteration # 16     ecut=    60.00 Ry     beta= 0.20
     Davidson diagonalization with overlap
     ethr =  9.88E-09,  avg # of iterations = 10.0

     negative rho (up, down):  4.750E-04 1.036E-01

     total cpu time spent up to now is     9663.9 secs

     total energy              =     -22.40946190 Ry
     Harris-Foulkes estimate   =     -22.40946174 Ry
     estimated scf accuracy    <       0.00000009 Ry

     total magnetization       =     1.00 Bohr mag/cell
     absolute magnetization    =     1.07 Bohr mag/cell

     iteration # 17     ecut=    60.00 Ry     beta= 0.20
     Davidson diagonalization with overlap
     ethr =  1.31E-09,  avg # of iterations =  1.0

     negative rho (up, down):  3.627E-04 1.044E-01

     total cpu time spent up to now is    11071.8 secs

     total energy              =     -22.40946234 Ry
     Harris-Foulkes estimate   =     -22.40946190 Ry
     estimated scf accuracy    <       0.00000006 Ry

     total magnetization       =     1.00 Bohr mag/cell
     absolute magnetization    =     1.07 Bohr mag/cell

     iteration # 18     ecut=    60.00 Ry     beta= 0.20
     Davidson diagonalization with overlap
     ethr =  9.11E-10,  avg # of iterations =  5.3

     negative rho (up, down):  3.600E-04 1.061E-01

     Magnetic moment per site:
     atom:    1    charge:    1.3217    magn:    0.2623    constr:    0.0000
     atom:    2    charge:    0.4519    magn:   -0.0049    constr:    0.0000
     atom:    3    charge:    0.4519    magn:   -0.0049    constr:    0.0000

     total cpu time spent up to now is    11126.2 secs

     End of self-consistent calculation

 ------ SPIN UP ------------


          k = 0.0000 0.0000 0.0000 (423701 PWs)   bands (ev):

   -21.2915 -11.6455  -7.7605  -7.5339  -0.7926  -0.0902   0.1429   0.1814

          k = 0.0000 0.2500 0.0000 (423725 PWs)   bands (ev):

   -21.2915 -11.6455  -7.7605  -7.5339  -0.7920  -0.0817   0.0690   0.2020

          k = 0.0000-0.5000 0.0000 (423542 PWs)   bands (ev):

   -21.2915 -11.6455  -7.7605  -7.5339  -0.7915  -0.0707   0.0297   0.2434

          k = 0.2500 0.0000 0.0000 (423725 PWs)   bands (ev):

   -21.2915 -11.6455  -7.7605  -7.5339  -0.7921  -0.0773   0.0811   0.1578

          k = 0.2500 0.2500 0.0000 (423766 PWs)   bands (ev):

   -21.2915 -11.6455  -7.7605  -7.5339  -0.7916  -0.0647   0.0553   0.1396

          k = 0.2500-0.5000 0.0000 (423782 PWs)   bands (ev):

   -21.2915 -11.6455  -7.7605  -7.5339  -0.7911  -0.0488   0.0277   0.1405

          k = 0.2500-0.2500 0.0000 (423766 PWs)   bands (ev):

   -21.2915 -11.6455  -7.7605  -7.5339  -0.7916  -0.0647   0.0553   0.1396

          k =-0.5000 0.0000 0.0000 (423542 PWs)   bands (ev):

   -21.2915 -11.6455  -7.7605  -7.5339  -0.7917  -0.0569   0.0255   0.1783

          k =-0.5000 0.2500 0.0000 (423782 PWs)   bands (ev):

   -21.2915 -11.6455  -7.7605  -7.5339  -0.7912  -0.0340   0.0121   0.1539

          k =-0.5000-0.5000 0.0000 (423708 PWs)   bands (ev):

   -21.2915 -11.6455  -7.7605  -7.5339  -0.7907  -0.0017   0.0242   0.0500

 ------ SPIN DOWN ----------


          k = 0.0000 0.0000 0.0000 (423701 PWs)   bands (ev):

   -20.0343 -11.2810  -7.1745  -4.3584  -0.6297  -0.0778   0.1584   0.2143

          k = 0.0000 0.2500 0.0000 (423725 PWs)   bands (ev):

   -20.0343 -11.2810  -7.1745  -4.3584  -0.6285  -0.0720   0.0799   0.2362

          k = 0.0000-0.5000 0.0000 (423542 PWs)   bands (ev):

   -20.0343 -11.2810  -7.1745  -4.3584  -0.6273  -0.0656   0.0437   0.2564

          k = 0.2500 0.0000 0.0000 (423725 PWs)   bands (ev):

   -20.0343 -11.2810  -7.1745  -4.3584  -0.6288  -0.0645   0.0972   0.1744

          k = 0.2500 0.2500 0.0000 (423766 PWs)   bands (ev):

   -20.0343 -11.2810  -7.1745  -4.3584  -0.6277  -0.0546   0.0686   0.1522

          k = 0.2500-0.5000 0.0000 (423782 PWs)   bands (ev):

   -20.0343 -11.2810  -7.1745  -4.3584  -0.6266  -0.0435   0.0446   0.1464

          k = 0.2500-0.2500 0.0000 (423766 PWs)   bands (ev):

   -20.0343 -11.2810  -7.1745  -4.3584  -0.6277  -0.0546   0.0686   0.1522

          k =-0.5000 0.0000 0.0000 (423542 PWs)   bands (ev):

   -20.0343 -11.2810  -7.1744  -4.3584  -0.6280  -0.0449   0.0383   0.1978

          k =-0.5000 0.2500 0.0000 (423782 PWs)   bands (ev):

   -20.0343 -11.2810  -7.1745  -4.3584  -0.6269  -0.0216   0.0217   0.1661

          k =-0.5000-0.5000 0.0000 (423708 PWs)   bands (ev):

   -20.0343 -11.2810  -7.1745  -4.3584  -0.6259   0.0048   0.0441   0.0538

     the Fermi energy is    -4.4729 ev

!    total energy              =     -22.40946237 Ry
     Harris-Foulkes estimate   =     -22.40946236 Ry
     estimated scf accuracy    <          4.4E-09 Ry

     The total energy is the sum of the following terms:

     one-electron contribution =     -47.87127952 Ry
     hartree contribution      =      24.91522247 Ry
     xc contribution           =      -6.72970828 Ry
     ewald contribution        =       7.27610857 Ry
     Dispersion Correction     =      -0.00009550 Ry
     smearing contrib. (-TS)   =       0.00028990 Ry

     total magnetization       =     1.00 Bohr mag/cell
     absolute magnetization    =     1.07 Bohr mag/cell

     convergence has been achieved in  18 iterations

     negative rho (up, down):  3.600E-04 1.061E-01

     Forces acting on atoms (cartesian axes, Ry/au):

     atom    1 type  1   force =     0.00000005   -0.00000004    0.01652530
     atom    2 type  2   force =    -0.00000004    0.00872394   -0.00826262
     atom    3 type  2   force =    -0.00000001   -0.00872390   -0.00826268

     Total force =     0.016993     Total SCF correction =     0.000013

     BFGS Geometry Optimization

     number of scf cycles    =   1
     number of bfgs steps    =   0

     energy   new            =     -22.4094623685 Ry

     new trust radius        =       0.0120157552 bohr
     new conv_thr            =       0.0000000100 Ry


ATOMIC_POSITIONS (angstrom)
N       10.000000000  10.000000000  10.141690000    0   0   0
H        9.999999981  10.811058510   9.499714609
H        9.999999994   9.188941510   9.499714577



     Writing output data file NH2.save/
     NEW-OLD atomic charge density approx. for the potential

     negative rho (up, down):  3.587E-04 5.282E-02

     total cpu time spent up to now is    11172.8 secs

     Self-consistent Calculation

     iteration #  1     ecut=    60.00 Ry     beta= 0.20
     Davidson diagonalization with overlap
     ethr =  1.00E-06,  avg # of iterations =  4.0

     negative rho (up, down):  4.224E-04 1.375E-01

     total cpu time spent up to now is    12454.1 secs

     total energy              =     -22.40965008 Ry
     Harris-Foulkes estimate   =     -22.40965955 Ry
     estimated scf accuracy    <       0.00007936 Ry

     total magnetization       =     1.00 Bohr mag/cell
     absolute magnetization    =     1.07 Bohr mag/cell

     iteration #  2     ecut=    60.00 Ry     beta= 0.20
     Davidson diagonalization with overlap
     ethr =  1.13E-06,  avg # of iterations =  1.0

     negative rho (up, down):  8.149E-04 1.412E-01

     total cpu time spent up to now is    14066.9 secs

     total energy              =     -22.40962526 Ry
     Harris-Foulkes estimate   =     -22.40965065 Ry
     estimated scf accuracy    <       0.00005300 Ry

     total magnetization       =     1.00 Bohr mag/cell
     absolute magnetization    =     1.07 Bohr mag/cell

     iteration #  3     ecut=    60.00 Ry     beta= 0.20
     Davidson diagonalization with overlap
     ethr =  7.57E-07,  avg # of iterations =  2.0

     negative rho (up, down):  7.411E-04 1.299E-01

     total cpu time spent up to now is    15269.1 secs

     total energy              =     -22.40963781 Ry
     Harris-Foulkes estimate   =     -22.40963951 Ry
     estimated scf accuracy    <       0.00000426 Ry

     total magnetization       =     1.00 Bohr mag/cell
     absolute magnetization    =     1.07 Bohr mag/cell

     iteration #  4     ecut=    60.00 Ry     beta= 0.20
     Davidson diagonalization with overlap
     ethr =  6.08E-08,  avg # of iterations =  2.0

     negative rho (up, down):  7.364E-04 1.243E-01

     total cpu time spent up to now is    16311.1 secs

     total energy              =     -22.40963873 Ry
     Harris-Foulkes estimate   =     -22.40963850 Ry
     estimated scf accuracy    <       0.00000157 Ry

     total magnetization       =     1.00 Bohr mag/cell
     absolute magnetization    =     1.07 Bohr mag/cell

     iteration #  5     ecut=    60.00 Ry     beta= 0.20
     Davidson diagonalization with overlap
     ethr =  2.25E-08,  avg # of iterations =  1.0

     negative rho (up, down):  7.073E-04 1.150E-01

     total cpu time spent up to now is    17737.2 secs

     total energy              =     -22.40963690 Ry
     Harris-Foulkes estimate   =     -22.40963875 Ry
     estimated scf accuracy    <       0.00000187 Ry

     total magnetization       =     1.00 Bohr mag/cell
     absolute magnetization    =     1.07 Bohr mag/cell

     iteration #  6     ecut=    60.00 Ry     beta= 0.20
     Davidson diagonalization with overlap
     ethr =  2.25E-08,  avg # of iterations =  3.0

     negative rho (up, down):  7.088E-04 1.122E-01

     total cpu time spent up to now is    19099.0 secs

     total energy              =     -22.40963744 Ry
     Harris-Foulkes estimate   =     -22.40963748 Ry
     estimated scf accuracy    <       0.00000113 Ry

     total magnetization       =     1.00 Bohr mag/cell
     absolute magnetization    =     1.07 Bohr mag/cell

     iteration #  7     ecut=    60.00 Ry     beta= 0.20
     Davidson diagonalization with overlap
     ethr =  1.61E-08,  avg # of iterations =  1.0

     negative rho (up, down):  6.715E-04 1.089E-01

     total cpu time spent up to now is    20212.7 secs

     total energy              =     -22.40963685 Ry
     Harris-Foulkes estimate   =     -22.40963745 Ry
     estimated scf accuracy    <       0.00000098 Ry

     total magnetization       =     1.00 Bohr mag/cell
     absolute magnetization    =     1.07 Bohr mag/cell

     iteration #  8     ecut=    60.00 Ry     beta= 0.20
     Davidson diagonalization with overlap
     ethr =  1.40E-08,  avg # of iterations =  2.0

     negative rho (up, down):  6.131E-04 1.073E-01

     total cpu time spent up to now is    21345.6 secs

     total energy              =     -22.40963701 Ry
     Harris-Foulkes estimate   =     -22.40963703 Ry
     estimated scf accuracy    <       0.00000005 Ry

     total magnetization       =     1.00 Bohr mag/cell
     absolute magnetization    =     1.07 Bohr mag/cell

     iteration #  9     ecut=    60.00 Ry     beta= 0.20
     Davidson diagonalization with overlap
     ethr =  7.09E-10,  avg # of iterations =  3.0

     negative rho (up, down):  4.182E-04 1.062E-01

     total cpu time spent up to now is    21999.2 secs

     total energy              =     -22.40963706 Ry
     Harris-Foulkes estimate   =     -22.40963703 Ry
     estimated scf accuracy    <       0.00000012 Ry

     total magnetization       =     1.00 Bohr mag/cell
     absolute magnetization    =     1.07 Bohr mag/cell

     iteration # 10     ecut=    60.00 Ry     beta= 0.20
     Davidson diagonalization with overlap
     ethr =  7.09E-10,  avg # of iterations =  3.0

     negative rho (up, down):  3.883E-04 1.057E-01

     total cpu time spent up to now is    22693.8 secs

     total energy              =     -22.40963713 Ry
     Harris-Foulkes estimate   =     -22.40963708 Ry
     estimated scf accuracy    <       0.00000001 Ry

     total magnetization       =     1.00 Bohr mag/cell
     absolute magnetization    =     1.07 Bohr mag/cell

     iteration # 11     ecut=    60.00 Ry     beta= 0.20
     Davidson diagonalization with overlap
     ethr =  2.06E-10,  avg # of iterations =  1.0

     negative rho (up, down):  3.568E-04 1.062E-01

     Magnetic moment per site:
     atom:    1    charge:    1.3191    magn:    0.2626    constr:    0.0000
     atom:    2    charge:    0.4516    magn:   -0.0050    constr:    0.0000
     atom:    3    charge:    0.4516    magn:   -0.0050    constr:    0.0000

     total cpu time spent up to now is    22737.6 secs

     End of self-consistent calculation

 ------ SPIN UP ------------


          k = 0.0000 0.0000 0.0000 (423701 PWs)   bands (ev):

   -21.2359 -11.5992  -7.7635  -7.5287  -0.8052  -0.0894   0.1406   0.1810

          k = 0.0000 0.2500 0.0000 (423725 PWs)   bands (ev):

   -21.2359 -11.5992  -7.7635  -7.5287  -0.8047  -0.0808   0.0684   0.2016

          k = 0.0000-0.5000 0.0000 (423542 PWs)   bands (ev):

   -21.2359 -11.5992  -7.7635  -7.5287  -0.8042  -0.0699   0.0293   0.2436

          k = 0.2500 0.0000 0.0000 (423725 PWs)   bands (ev):

   -21.2359 -11.5992  -7.7635  -7.5287  -0.8048  -0.0764   0.0811   0.1552

          k = 0.2500 0.2500 0.0000 (423766 PWs)   bands (ev):

   -21.2359 -11.5992  -7.7635  -7.5287  -0.8043  -0.0641   0.0550   0.1393

          k = 0.2500-0.5000 0.0000 (423782 PWs)   bands (ev):

   -21.2359 -11.5992  -7.7635  -7.5287  -0.8038  -0.0481   0.0276   0.1418

          k = 0.2500-0.2500 0.0000 (423766 PWs)   bands (ev):

   -21.2359 -11.5992  -7.7635  -7.5287  -0.8043  -0.0641   0.0550   0.1393

          k =-0.5000 0.0000 0.0000 (423542 PWs)   bands (ev):

   -21.2359 -11.5992  -7.7635  -7.5287  -0.8044  -0.0556   0.0251   0.1749

          k =-0.5000 0.2500 0.0000 (423782 PWs)   bands (ev):

   -21.2359 -11.5992  -7.7635  -7.5287  -0.8039  -0.0326   0.0117   0.1555

          k =-0.5000-0.5000 0.0000 (423708 PWs)   bands (ev):

   -21.2359 -11.5992  -7.7635  -7.5287  -0.8035  -0.0021   0.0245   0.0526

 ------ SPIN DOWN ----------


          k = 0.0000 0.0000 0.0000 (423701 PWs)   bands (ev):

   -19.9757 -11.2361  -7.1790  -4.3527  -0.6423  -0.0770   0.1564   0.2142

          k = 0.0000 0.2500 0.0000 (423725 PWs)   bands (ev):

   -19.9757 -11.2361  -7.1790  -4.3527  -0.6412  -0.0710   0.0794   0.2361

          k = 0.0000-0.5000 0.0000 (423542 PWs)   bands (ev):

   -19.9757 -11.2361  -7.1790  -4.3527  -0.6400  -0.0647   0.0432   0.2574

          k = 0.2500 0.0000 0.0000 (423725 PWs)   bands (ev):

   -19.9757 -11.2361  -7.1790  -4.3527  -0.6415  -0.0638   0.0972   0.1721

          k = 0.2500 0.2500 0.0000 (423766 PWs)   bands (ev):

   -19.9757 -11.2361  -7.1790  -4.3527  -0.6404  -0.0539   0.0685   0.1521

          k = 0.2500-0.5000 0.0000 (423782 PWs)   bands (ev):

   -19.9757 -11.2361  -7.1791  -4.3527  -0.6394  -0.0426   0.0444   0.1480

          k = 0.2500-0.2500 0.0000 (423766 PWs)   bands (ev):

   -19.9757 -11.2361  -7.1790  -4.3527  -0.6404  -0.0538   0.0684   0.1521

          k =-0.5000 0.0000 0.0000 (423542 PWs)   bands (ev):

   -19.9757 -11.2361  -7.1790  -4.3527  -0.6407  -0.0433   0.0379   0.1945

          k =-0.5000 0.2500 0.0000 (423782 PWs)   bands (ev):

   -19.9757 -11.2361  -7.1791  -4.3527  -0.6397  -0.0200   0.0213   0.1679

          k =-0.5000-0.5000 0.0000 (423708 PWs)   bands (ev):

   -19.9757 -11.2361  -7.1790  -4.3527  -0.6387   0.0045   0.0445   0.0568

     the Fermi energy is    -4.4673 ev

!    total energy              =     -22.40963727 Ry
     Harris-Foulkes estimate   =     -22.40963714 Ry
     estimated scf accuracy    <          8.9E-09 Ry

     The total energy is the sum of the following terms:

     one-electron contribution =     -47.76045817 Ry
     hartree contribution      =      24.86065767 Ry
     xc contribution           =      -6.71941123 Ry
     ewald contribution        =       7.20938538 Ry
     Dispersion Correction     =      -0.00010081 Ry
     smearing contrib. (-TS)   =       0.00028990 Ry

     total magnetization       =     1.00 Bohr mag/cell
     absolute magnetization    =     1.07 Bohr mag/cell

     convergence has been achieved in  11 iterations

     negative rho (up, down):  3.568E-04 1.062E-01

     Forces acting on atoms (cartesian axes, Ry/au):

     atom    1 type  1   force =     0.00000005   -0.00000002    0.00562474
     atom    2 type  2   force =    -0.00000003    0.00093566   -0.00281237
     atom    3 type  2   force =    -0.00000002   -0.00093564   -0.00281236

     Total force =     0.004192     Total SCF correction =     0.000006

     number of scf cycles    =   2
     number of bfgs steps    =   1

     energy   old            =     -22.4094623685 Ry
     energy   new            =     -22.4096372654 Ry

     CASE: energy  _new < energy  _old

     new trust radius        =       0.0040240239 bohr
     new conv_thr            =       0.0000000007 Ry


ATOMIC_POSITIONS (angstrom)
N       10.000000000  10.000000000  10.141690000    0   0   0
H        9.999999961  10.811793378   9.497716008
H        9.999999978   9.188206654   9.497715982



     Writing output data file NH2.save/
     NEW-OLD atomic charge density approx. for the potential

     negative rho (up, down):  3.565E-04 5.360E-02

     total cpu time spent up to now is    22783.7 secs

     Self-consistent Calculation

     iteration #  1     ecut=    60.00 Ry     beta= 0.20
     Davidson diagonalization with overlap
     ethr =  1.00E-06,  avg # of iterations =  2.0

     Threshold (ethr) on eigenvalues was too large:
     Diagonalizing with lowered threshold

     Davidson diagonalization with overlap
     ethr =  7.25E-08,  avg # of iterations =  2.9

     negative rho (up, down):  3.740E-04 7.108E-01

     total cpu time spent up to now is    24068.9 secs

     total energy              =     -22.40964750 Ry
     Harris-Foulkes estimate   =     -22.40965394 Ry
     estimated scf accuracy    <       0.00000656 Ry

     total magnetization       =     1.00 Bohr mag/cell
     absolute magnetization    =     1.07 Bohr mag/cell

     iteration #  2     ecut=    60.00 Ry     beta= 0.20
     Davidson diagonalization with overlap
     ethr =  9.37E-08,  avg # of iterations =  1.0

     negative rho (up, down):  4.691E-04 7.012E-01

     total cpu time spent up to now is    25000.7 secs

     total energy              =     -22.40964590 Ry
     Harris-Foulkes estimate   =     -22.40964756 Ry
     estimated scf accuracy    <       0.00000448 Ry

     total magnetization       =     1.00 Bohr mag/cell
     absolute magnetization    =     1.07 Bohr mag/cell

     iteration #  3     ecut=    60.00 Ry     beta= 0.20
     Davidson diagonalization with overlap
     ethr =  6.39E-08,  avg # of iterations =  2.9

     negative rho (up, down):  4.479E-04 6.318E-01

     total cpu time spent up to now is    26764.0 secs

     total energy              =     -22.40964852 Ry
     Harris-Foulkes estimate   =     -22.40964719 Ry
     estimated scf accuracy    <       0.00000050 Ry

     total magnetization       =     1.00 Bohr mag/cell
     absolute magnetization    =     1.07 Bohr mag/cell

     iteration #  4     ecut=    60.00 Ry     beta= 0.20
     Davidson diagonalization with overlap
     ethr =  7.20E-09,  avg # of iterations =  2.0

     negative rho (up, down):  4.454E-04 5.830E-01

     total cpu time spent up to now is    28232.4 secs

     total energy              =     -22.40964919 Ry
     Harris-Foulkes estimate   =     -22.40964858 Ry
     estimated scf accuracy    <       0.00000013 Ry

     total magnetization       =     1.00 Bohr mag/cell
     absolute magnetization    =     1.07 Bohr mag/cell

     iteration #  5     ecut=    60.00 Ry     beta= 0.20
     Davidson diagonalization with overlap
     ethr =  1.82E-09,  avg # of iterations =  2.7

     negative rho (up, down):  4.466E-04 5.396E-01

     total cpu time spent up to now is    29666.6 secs

     total energy              =     -22.40964967 Ry
     Harris-Foulkes estimate   =     -22.40964922 Ry
     estimated scf accuracy    <       0.00000004 Ry

     total magnetization       =     1.00 Bohr mag/cell
     absolute magnetization    =     1.07 Bohr mag/cell

     iteration #  6     ecut=    60.00 Ry     beta= 0.20
     Davidson diagonalization with overlap
     ethr =  5.82E-10,  avg # of iterations =  1.6

     negative rho (up, down):  4.431E-04 4.776E-01

     total cpu time spent up to now is    30716.1 secs

     total energy              =     -22.40965028 Ry
     Harris-Foulkes estimate   =     -22.40964968 Ry
     estimated scf accuracy    <       0.00000003 Ry

     total magnetization       =     1.00 Bohr mag/cell
     absolute magnetization    =     1.07 Bohr mag/cell

     iteration #  7     ecut=    60.00 Ry     beta= 0.20
     Davidson diagonalization with overlap
     ethr =  4.88E-10,  avg # of iterations =  1.0

     negative rho (up, down):  4.178E-04 3.960E-01

     total cpu time spent up to now is    31798.1 secs

     total energy              =     -22.40965085 Ry
     Harris-Foulkes estimate   =     -22.40965028 Ry
     estimated scf accuracy    <       0.00000003 Ry

     total magnetization       =     1.00 Bohr mag/cell
     absolute magnetization    =     1.07 Bohr mag/cell

     iteration #  8     ecut=    60.00 Ry     beta= 0.20
     Davidson diagonalization with overlap
     ethr =  4.12E-10,  avg # of iterations =  2.0

     negative rho (up, down):  4.105E-04 3.441E-01

     total cpu time spent up to now is    32629.1 secs

     total energy              =     -22.40965116 Ry
     Harris-Foulkes estimate   =     -22.40965086 Ry
     estimated scf accuracy    <          3.0E-09 Ry

     total magnetization       =     1.00 Bohr mag/cell
     absolute magnetization    =     1.07 Bohr mag/cell

     iteration #  9     ecut=    60.00 Ry     beta= 0.20
     Davidson diagonalization with overlap
     ethr =  4.23E-11,  avg # of iterations =  2.0

     negative rho (up, down):  3.736E-04 3.219E-01

     total cpu time spent up to now is    33560.5 secs

     total energy              =     -22.40965127 Ry
     Harris-Foulkes estimate   =     -22.40965116 Ry
     estimated scf accuracy    <          3.2E-09 Ry

     total magnetization       =     1.00 Bohr mag/cell
     absolute magnetization    =     1.07 Bohr mag/cell

     iteration # 10     ecut=    60.00 Ry     beta= 0.20
     Davidson diagonalization with overlap
     ethr =  4.23E-11,  avg # of iterations =  1.0

     negative rho (up, down):  3.634E-04 2.872E-01

     total cpu time spent up to now is    34647.8 secs

     total energy              =     -22.40965146 Ry
     Harris-Foulkes estimate   =     -22.40965127 Ry
     estimated scf accuracy    <          1.2E-09 Ry

     total magnetization       =     1.00 Bohr mag/cell
     absolute magnetization    =     1.07 Bohr mag/cell

     iteration # 11     ecut=    60.00 Ry     beta= 0.20
     Davidson diagonalization with overlap
     ethr =  1.75E-11,  avg # of iterations =  1.2

     negative rho (up, down):  3.559E-04 1.061E-01

     Magnetic moment per site:
     atom:    1    charge:    1.3184    magn:    0.2627    constr:    0.0000
     atom:    2    charge:    0.4514    magn:   -0.0050    constr:    0.0000
     atom:    3    charge:    0.4514    magn:   -0.0050    constr:    0.0000

     total cpu time spent up to now is    34692.3 secs

     End of self-consistent calculation

 ------ SPIN UP ------------


          k = 0.0000 0.0000 0.0000 (423701 PWs)   bands (ev):

   -21.2218 -11.5809  -7.7689  -7.5277  -0.8076  -0.0887   0.1419   0.1826

          k = 0.0000 0.2500 0.0000 (423725 PWs)   bands (ev):

   -21.2218 -11.5809  -7.7689  -7.5277  -0.8071  -0.0799   0.0695   0.2033

          k = 0.0000-0.5000 0.0000 (423542 PWs)   bands (ev):

   -21.2218 -11.5809  -7.7689  -7.5277  -0.8066  -0.0687   0.0299   0.2444

          k = 0.2500 0.0000 0.0000 (423725 PWs)   bands (ev):

   -21.2218 -11.5809  -7.7689  -7.5277  -0.8072  -0.0756   0.0821   0.1565

          k = 0.2500 0.2500 0.0000 (423766 PWs)   bands (ev):

   -21.2218 -11.5809  -7.7689  -7.5277  -0.8067  -0.0633   0.0562   0.1403

          k = 0.2500-0.5000 0.0000 (423782 PWs)   bands (ev):

   -21.2218 -11.5809  -7.7689  -7.5277  -0.8062  -0.0469   0.0286   0.1428

          k = 0.2500-0.2500 0.0000 (423766 PWs)   bands (ev):

   -21.2218 -11.5809  -7.7689  -7.5277  -0.8067  -0.0633   0.0564   0.1401

          k =-0.5000 0.0000 0.0000 (423542 PWs)   bands (ev):

   -21.2218 -11.5809  -7.7689  -7.5277  -0.8068  -0.0544   0.0259   0.1764

          k =-0.5000 0.2500 0.0000 (423782 PWs)   bands (ev):

   -21.2218 -11.5809  -7.7689  -7.5277  -0.8063  -0.0314   0.0127   0.1567

          k =-0.5000-0.5000 0.0000 (423708 PWs)   bands (ev):

   -21.2218 -11.5809  -7.7689  -7.5277  -0.8059  -0.0008   0.0258   0.0535

 ------ SPIN DOWN ----------


          k = 0.0000 0.0000 0.0000 (423701 PWs)   bands (ev):

   -19.9609 -11.2182  -7.1849  -4.3515  -0.6435  -0.0766   0.1578   0.2159

          k = 0.0000 0.2500 0.0000 (423725 PWs)   bands (ev):

   -19.9609 -11.2182  -7.1849  -4.3515  -0.6424  -0.0704   0.0804   0.2380

          k = 0.0000-0.5000 0.0000 (423542 PWs)   bands (ev):

   -19.9609 -11.2182  -7.1849  -4.3515  -0.6413  -0.0636   0.0438   0.2582

          k = 0.2500 0.0000 0.0000 (423725 PWs)   bands (ev):

   -19.9609 -11.2182  -7.1849  -4.3515  -0.6427  -0.0635   0.0983   0.1735

          k = 0.2500 0.2500 0.0000 (423766 PWs)   bands (ev):

   -19.9609 -11.2182  -7.1849  -4.3515  -0.6417  -0.0533   0.0698   0.1527

          k = 0.2500-0.5000 0.0000 (423782 PWs)   bands (ev):

   -19.9609 -11.2182  -7.1849  -4.3515  -0.6407  -0.0416   0.0453   0.1488

          k = 0.2500-0.2500 0.0000 (423766 PWs)   bands (ev):

   -19.9609 -11.2182  -7.1849  -4.3515  -0.6417  -0.0533   0.0698   0.1527

          k =-0.5000 0.0000 0.0000 (423542 PWs)   bands (ev):

   -19.9609 -11.2182  -7.1849  -4.3515  -0.6420  -0.0424   0.0385   0.1962

          k =-0.5000 0.2500 0.0000 (423782 PWs)   bands (ev):

   -19.9609 -11.2182  -7.1849  -4.3515  -0.6410  -0.0190   0.0222   0.1688

          k =-0.5000-0.5000 0.0000 (423708 PWs)   bands (ev):

   -19.9609 -11.2182  -7.1849  -4.3515  -0.6400   0.0058   0.0458   0.0572

     the Fermi energy is    -4.4661 ev

!    total energy              =     -22.40965209 Ry
     Harris-Foulkes estimate   =     -22.40965146 Ry
     estimated scf accuracy    <          4.4E-10 Ry

     The total energy is the sum of the following terms:

     one-electron contribution =     -47.72967129 Ry
     hartree contribution      =      24.84550706 Ry
     xc contribution           =      -6.71653898 Ry
     ewald contribution        =       7.19086292 Ry
     Dispersion Correction     =      -0.00010170 Ry
     smearing contrib. (-TS)   =       0.00028990 Ry

     total magnetization       =     1.00 Bohr mag/cell
     absolute magnetization    =     1.07 Bohr mag/cell

     convergence has been achieved in  11 iterations

     negative rho (up, down):  3.559E-04 1.061E-01

     Forces acting on atoms (cartesian axes, Ry/au):

     atom    1 type  1   force =    -0.00000002    0.00000002    0.00226816
     atom    2 type  2   force =     0.00000002   -0.00098261   -0.00113406
     atom    3 type  2   force =    -0.00000000    0.00098260   -0.00113410

     Total force =     0.002122     Total SCF correction =     0.000008

     number of scf cycles    =   3
     number of bfgs steps    =   2

     energy   old            =     -22.4096372654 Ry
     energy   new            =     -22.4096520932 Ry

     CASE: energy  _new < energy  _old

     new trust radius        =       0.0027112250 bohr
     new conv_thr            =       0.0000000003 Ry


ATOMIC_POSITIONS (angstrom)
N       10.000000000  10.000000000  10.141690000    0   0   0
H        9.999999972  10.811393136   9.496338276
H        9.999999974   9.188606888   9.496338219



     Writing output data file NH2.save/
     NEW-OLD atomic charge density approx. for the potential

     negative rho (up, down):  3.559E-04 5.367E-02

     total cpu time spent up to now is    34738.7 secs

     Self-consistent Calculation

     iteration #  1     ecut=    60.00 Ry     beta= 0.20
     Davidson diagonalization with overlap
     ethr =  1.00E-06,  avg # of iterations =  2.0

     Threshold (ethr) on eigenvalues was too large:
     Diagonalizing with lowered threshold

     Davidson diagonalization with overlap
     ethr =  8.67E-09,  avg # of iterations =  3.0

     negative rho (up, down):  3.622E-04 8.747E-02

     total cpu time spent up to now is    36214.2 secs

     total energy              =     -22.40965804 Ry
     Harris-Foulkes estimate   =     -22.40965811 Ry
     estimated scf accuracy    <       0.00000097 Ry

     total magnetization       =     1.00 Bohr mag/cell
     absolute magnetization    =     1.07 Bohr mag/cell

     iteration #  2     ecut=    60.00 Ry     beta= 0.20
     Davidson diagonalization with overlap
     ethr =  1.38E-08,  avg # of iterations =  1.0

     negative rho (up, down):  3.974E-04 8.947E-02

     total cpu time spent up to now is    37982.3 secs

     total energy              =     -22.40965784 Ry
     Harris-Foulkes estimate   =     -22.40965804 Ry
     estimated scf accuracy    <       0.00000068 Ry

     total magnetization       =     1.00 Bohr mag/cell
     absolute magnetization    =     1.07 Bohr mag/cell

     iteration #  3     ecut=    60.00 Ry     beta= 0.20
     Davidson diagonalization with overlap
     ethr =  9.66E-09,  avg # of iterations =  3.0

     negative rho (up, down):  3.930E-04 9.172E-02

     total cpu time spent up to now is    40347.3 secs

     total energy              =     -22.40965802 Ry
     Harris-Foulkes estimate   =     -22.40965805 Ry
     estimated scf accuracy    <       0.00000012 Ry

     total magnetization       =     1.00 Bohr mag/cell
     absolute magnetization    =     1.07 Bohr mag/cell

     iteration #  4     ecut=    60.00 Ry     beta= 0.20
     Davidson diagonalization with overlap
     ethr =  1.74E-09,  avg # of iterations =  1.0

     negative rho (up, down):  3.898E-04 9.407E-02

     total cpu time spent up to now is    41331.6 secs

     total energy              =     -22.40965800 Ry
     Harris-Foulkes estimate   =     -22.40965803 Ry
     estimated scf accuracy    <       0.00000006 Ry

     total magnetization       =     1.00 Bohr mag/cell
     absolute magnetization    =     1.07 Bohr mag/cell

     iteration #  5     ecut=    60.00 Ry     beta= 0.20
     Davidson diagonalization with overlap
     ethr =  8.92E-10,  avg # of iterations =  2.0

     negative rho (up, down):  3.839E-04 9.596E-02

     total cpu time spent up to now is    44731.2 secs

     total energy              =     -22.40965796 Ry
     Harris-Foulkes estimate   =     -22.40965800 Ry
     estimated scf accuracy    <       0.00000001 Ry

     total magnetization       =     1.00 Bohr mag/cell
     absolute magnetization    =     1.07 Bohr mag/cell

     iteration #  6     ecut=    60.00 Ry     beta= 0.20
     Davidson diagonalization with overlap
     ethr =  2.13E-10,  avg # of iterations =  3.0

     negative rho (up, down):  3.835E-04 9.785E-02

     total cpu time spent up to now is    45684.4 secs

     total energy              =     -22.40965797 Ry
     Harris-Foulkes estimate   =     -22.40965797 Ry
     estimated scf accuracy    <       0.00000001 Ry

     total magnetization       =     1.00 Bohr mag/cell
     absolute magnetization    =     1.07 Bohr mag/cell

     iteration #  7     ecut=    60.00 Ry     beta= 0.20
     Davidson diagonalization with overlap
     ethr =  1.52E-10,  avg # of iterations =  1.0

     negative rho (up, down):  3.791E-04 9.937E-02

     total cpu time spent up to now is    47027.1 secs

     total energy              =     -22.40965797 Ry
     Harris-Foulkes estimate   =     -22.40965797 Ry
     estimated scf accuracy    <          7.4E-09 Ry

     total magnetization       =     1.00 Bohr mag/cell
     absolute magnetization    =     1.07 Bohr mag/cell

     iteration #  8     ecut=    60.00 Ry     beta= 0.20
     Davidson diagonalization with overlap
     ethr =  1.06E-10,  avg # of iterations =  2.0

     negative rho (up, down):  3.774E-04 1.007E-01

     total cpu time spent up to now is    48907.8 secs

     total energy              =     -22.40965797 Ry
     Harris-Foulkes estimate   =     -22.40965797 Ry
     estimated scf accuracy    <          7.2E-10 Ry

     total magnetization       =     1.00 Bohr mag/cell
     absolute magnetization    =     1.07 Bohr mag/cell

     iteration #  9     ecut=    60.00 Ry     beta= 0.20
     Davidson diagonalization with overlap
     ethr =  1.03E-11,  avg # of iterations =  1.9

     negative rho (up, down):  3.620E-04 1.016E-01

     total cpu time spent up to now is    50421.6 secs

     total energy              =     -22.40965797 Ry
     Harris-Foulkes estimate   =     -22.40965797 Ry
     estimated scf accuracy    <          5.4E-10 Ry

     total magnetization       =     1.00 Bohr mag/cell
     absolute magnetization    =     1.07 Bohr mag/cell

     iteration # 10     ecut=    60.00 Ry     beta= 0.20
     Davidson diagonalization with overlap
     ethr =  7.76E-12,  avg # of iterations =  2.0

     negative rho (up, down):  3.556E-04 1.061E-01

     Magnetic moment per site:
     atom:    1    charge:    1.3181    magn:    0.2627    constr:    0.0000
     atom:    2    charge:    0.4514    magn:   -0.0050    constr:    0.0000
     atom:    3    charge:    0.4514    magn:   -0.0050    constr:    0.0000

     total cpu time spent up to now is    50467.7 secs

     End of self-consistent calculation

 ------ SPIN UP ------------


          k = 0.0000 0.0000 0.0000 (423701 PWs)   bands (ev):

   -21.2194 -11.5703  -7.7751  -7.5276  -0.8087  -0.0908   0.1408   0.1812

          k = 0.0000 0.2500 0.0000 (423725 PWs)   bands (ev):

   -21.2194 -11.5703  -7.7751  -7.5276  -0.8082  -0.0820   0.0679   0.2020

          k = 0.0000-0.5000 0.0000 (423542 PWs)   bands (ev):

   -21.2194 -11.5703  -7.7751  -7.5276  -0.8077  -0.0707   0.0283   0.2427

          k = 0.2500 0.0000 0.0000 (423725 PWs)   bands (ev):

   -21.2194 -11.5703  -7.7751  -7.5276  -0.8083  -0.0777   0.0804   0.1554

          k = 0.2500 0.2500 0.0000 (423766 PWs)   bands (ev):

   -21.2194 -11.5703  -7.7751  -7.5276  -0.8078  -0.0654   0.0548   0.1383

          k = 0.2500-0.5000 0.0000 (423782 PWs)   bands (ev):

   -21.2194 -11.5703  -7.7751  -7.5276  -0.8073  -0.0488   0.0270   0.1407

          k = 0.2500-0.2500 0.0000 (423766 PWs)   bands (ev):

   -21.2194 -11.5703  -7.7751  -7.5276  -0.8078  -0.0654   0.0548   0.1383

          k =-0.5000 0.0000 0.0000 (423542 PWs)   bands (ev):

   -21.2194 -11.5703  -7.7751  -7.5276  -0.8079  -0.0564   0.0240   0.1756

          k =-0.5000 0.2500 0.0000 (423782 PWs)   bands (ev):

   -21.2194 -11.5703  -7.7751  -7.5276  -0.8074  -0.0334   0.0110   0.1546

          k =-0.5000-0.5000 0.0000 (423708 PWs)   bands (ev):

   -21.2194 -11.5703  -7.7751  -7.5276  -0.8070  -0.0024   0.0243   0.0509

 ------ SPIN DOWN ----------


          k = 0.0000 0.0000 0.0000 (423701 PWs)   bands (ev):

   -19.9585 -11.2076  -7.1911  -4.3515  -0.6446  -0.0788   0.1565   0.2142

          k = 0.0000 0.2500 0.0000 (423725 PWs)   bands (ev):

   -19.9585 -11.2076  -7.1911  -4.3515  -0.6435  -0.0725   0.0788   0.2363

          k = 0.0000-0.5000 0.0000 (423542 PWs)   bands (ev):

   -19.9585 -11.2076  -7.1911  -4.3515  -0.6424  -0.0656   0.0420   0.2563

          k = 0.2500 0.0000 0.0000 (423725 PWs)   bands (ev):

   -19.9585 -11.2076  -7.1911  -4.3515  -0.6438  -0.0658   0.0964   0.1724

          k = 0.2500 0.2500 0.0000 (423766 PWs)   bands (ev):

   -19.9585 -11.2076  -7.1911  -4.3515  -0.6428  -0.0554   0.0682   0.1507

          k = 0.2500-0.5000 0.0000 (423782 PWs)   bands (ev):

   -19.9585 -11.2076  -7.1911  -4.3515  -0.6417  -0.0435   0.0436   0.1466

          k = 0.2500-0.2500 0.0000 (423766 PWs)   bands (ev):

   -19.9585 -11.2076  -7.1911  -4.3515  -0.6428  -0.0554   0.0682   0.1507

          k =-0.5000 0.0000 0.0000 (423542 PWs)   bands (ev):

   -19.9585 -11.2076  -7.1911  -4.3515  -0.6430  -0.0444   0.0366   0.1954

          k =-0.5000 0.2500 0.0000 (423782 PWs)   bands (ev):

   -19.9585 -11.2076  -7.1911  -4.3515  -0.6420  -0.0210   0.0204   0.1667

          k =-0.5000-0.5000 0.0000 (423708 PWs)   bands (ev):

   -19.9585 -11.2076  -7.1911  -4.3515  -0.6411   0.0041   0.0442   0.0547

     the Fermi energy is    -4.4661 ev

!    total energy              =     -22.40965798 Ry
     Harris-Foulkes estimate   =     -22.40965797 Ry
     estimated scf accuracy    <          7.6E-11 Ry

     The total energy is the sum of the following terms:

     one-electron contribution =     -47.72112485 Ry
     hartree contribution      =      24.84113706 Ry
     xc contribution           =      -6.71569095 Ry
     ewald contribution        =       7.18583209 Ry
     Dispersion Correction     =      -0.00010123 Ry
     smearing contrib. (-TS)   =       0.00028990 Ry

     total magnetization       =     1.00 Bohr mag/cell
     absolute magnetization    =     1.07 Bohr mag/cell

     convergence has been achieved in  10 iterations

     negative rho (up, down):  3.556E-04 1.061E-01

     Forces acting on atoms (cartesian axes, Ry/au):

     atom    1 type  1   force =     0.00000000   -0.00000002    0.00094247
     atom    2 type  2   force =    -0.00000000   -0.00127369   -0.00047124
     atom    3 type  2   force =    -0.00000000    0.00127371   -0.00047122

     Total force =     0.001921     Total SCF correction =     0.000001

     number of scf cycles    =   4
     number of bfgs steps    =   3

     energy   old            =     -22.4096520932 Ry
     energy   new            =     -22.4096579786 Ry

     CASE: energy  _new < energy  _old

     new trust radius        =       0.0029823475 bohr
     new conv_thr            =       0.0000000003 Ry


ATOMIC_POSITIONS (angstrom)
N       10.000000000  10.000000000  10.141690000    0   0   0
H        9.999999972  10.810549313   9.495004627
H        9.999999969   9.189450725   9.495004569



     Writing output data file NH2.save/
     NEW-OLD atomic charge density approx. for the potential

     negative rho (up, down):  3.557E-04 5.360E-02

     total cpu time spent up to now is    50513.9 secs

     Self-consistent Calculation

     iteration #  1     ecut=    60.00 Ry     beta= 0.20
     Davidson diagonalization with overlap
     ethr =  1.00E-06,  avg # of iterations =  2.0

     Threshold (ethr) on eigenvalues was too large:
     Diagonalizing with lowered threshold

     Davidson diagonalization with overlap
     ethr =  4.49E-09,  avg # of iterations =  3.0

     negative rho (up, down):  3.587E-04 8.658E-02

     total cpu time spent up to now is    51802.7 secs

     total energy              =     -22.40966299 Ry
     Harris-Foulkes estimate   =     -22.40966299 Ry
     estimated scf accuracy    <       0.00000043 Ry

     total magnetization       =     1.00 Bohr mag/cell
     absolute magnetization    =     1.07 Bohr mag/cell

     iteration #  2     ecut=    60.00 Ry     beta= 0.20
     Davidson diagonalization with overlap
     ethr =  6.18E-09,  avg # of iterations =  1.0

     negative rho (up, down):  3.755E-04 8.906E-02

     total cpu time spent up to now is    52989.9 secs

     total energy              =     -22.40966300 Ry
     Harris-Foulkes estimate   =     -22.40966299 Ry
     estimated scf accuracy    <       0.00000031 Ry

     total magnetization       =     1.00 Bohr mag/cell
     absolute magnetization    =     1.07 Bohr mag/cell

     iteration #  3     ecut=    60.00 Ry     beta= 0.20
     Davidson diagonalization with overlap
     ethr =  4.41E-09,  avg # of iterations =  2.0

     negative rho (up, down):  3.749E-04 9.170E-02

     total cpu time spent up to now is    54233.5 secs

     total energy              =     -22.40966307 Ry
     Harris-Foulkes estimate   =     -22.40966306 Ry
     estimated scf accuracy    <       0.00000003 Ry

     total magnetization       =     1.00 Bohr mag/cell
     absolute magnetization    =     1.07 Bohr mag/cell

     iteration #  4     ecut=    60.00 Ry     beta= 0.20
     Davidson diagonalization with overlap
     ethr =  4.81E-10,  avg # of iterations =  2.0

     negative rho (up, down):  3.755E-04 9.435E-02

     total cpu time spent up to now is    54967.3 secs

     total energy              =     -22.40966307 Ry
     Harris-Foulkes estimate   =     -22.40966307 Ry
     estimated scf accuracy    <       0.00000003 Ry

     total magnetization       =     1.00 Bohr mag/cell
     absolute magnetization    =     1.07 Bohr mag/cell

     iteration #  5     ecut=    60.00 Ry     beta= 0.20
     Davidson diagonalization with overlap
     ethr =  4.74E-10,  avg # of iterations =  1.0

     negative rho (up, down):  3.677E-04 9.581E-02

     total cpu time spent up to now is    55695.9 secs

     total energy              =     -22.40966304 Ry
     Harris-Foulkes estimate   =     -22.40966307 Ry
     estimated scf accuracy    <       0.00000004 Ry

     total magnetization       =     1.00 Bohr mag/cell
     absolute magnetization    =     1.07 Bohr mag/cell

     iteration #  6     ecut=    60.00 Ry     beta= 0.20
     Davidson diagonalization with overlap
     ethr =  4.74E-10,  avg # of iterations =  3.0

     negative rho (up, down):  3.658E-04 9.768E-02

     total cpu time spent up to now is    56653.3 secs

     total energy              =     -22.40966305 Ry
     Harris-Foulkes estimate   =     -22.40966305 Ry
     estimated scf accuracy    <          5.0E-09 Ry

     total magnetization       =     1.00 Bohr mag/cell
     absolute magnetization    =     1.07 Bohr mag/cell

     iteration #  7     ecut=    60.00 Ry     beta= 0.20
     Davidson diagonalization with overlap
     ethr =  7.11E-11,  avg # of iterations =  2.0

     negative rho (up, down):  3.653E-04 9.924E-02

     total cpu time spent up to now is    57479.6 secs

     total energy              =     -22.40966306 Ry
     Harris-Foulkes estimate   =     -22.40966305 Ry
     estimated scf accuracy    <       0.00000001 Ry

     total magnetization       =     1.00 Bohr mag/cell
     absolute magnetization    =     1.07 Bohr mag/cell

     iteration #  8     ecut=    60.00 Ry     beta= 0.20
     Davidson diagonalization with overlap
     ethr =  7.11E-11,  avg # of iterations =  1.0

     negative rho (up, down):  3.644E-04 1.005E-01

     total cpu time spent up to now is    59676.5 secs

     total energy              =     -22.40966306 Ry
     Harris-Foulkes estimate   =     -22.40966306 Ry
     estimated scf accuracy    <          4.8E-09 Ry

     total magnetization       =     1.00 Bohr mag/cell
     absolute magnetization    =     1.07 Bohr mag/cell

     iteration #  9     ecut=    60.00 Ry     beta= 0.20
     Davidson diagonalization with overlap
     ethr =  6.82E-11,  avg # of iterations =  2.0

     negative rho (up, down):  3.637E-04 1.016E-01

     total cpu time spent up to now is    61505.4 secs

     total energy              =     -22.40966306 Ry
     Harris-Foulkes estimate   =     -22.40966306 Ry
     estimated scf accuracy    <          4.1E-10 Ry

     total magnetization       =     1.00 Bohr mag/cell
     absolute magnetization    =     1.07 Bohr mag/cell

     iteration # 10     ecut=    60.00 Ry     beta= 0.20
     Davidson diagonalization with overlap
     ethr =  5.82E-12,  avg # of iterations =  3.0

     negative rho (up, down):  3.555E-04 1.062E-01

     Magnetic moment per site:
     atom:    1    charge:    1.3180    magn:    0.2627    constr:    0.0000
     atom:    2    charge:    0.4515    magn:   -0.0050    constr:    0.0000
     atom:    3    charge:    0.4515    magn:   -0.0050    constr:    0.0000

     total cpu time spent up to now is    61552.7 secs

     End of self-consistent calculation

 ------ SPIN UP ------------


          k = 0.0000 0.0000 0.0000 (423701 PWs)   bands (ev):

   -21.2208 -11.5610  -7.7825  -7.5279  -0.8092  -0.0909   0.1410   0.1812

          k = 0.0000 0.2500 0.0000 (423725 PWs)   bands (ev):

   -21.2208 -11.5610  -7.7825  -7.5279  -0.8088  -0.0821   0.0680   0.2019

          k = 0.0000-0.5000 0.0000 (423542 PWs)   bands (ev):

   -21.2208 -11.5610  -7.7825  -7.5279  -0.8083  -0.0706   0.0281   0.2429

          k = 0.2500 0.0000 0.0000 (423725 PWs)   bands (ev):

   -21.2208 -11.5610  -7.7825  -7.5279  -0.8089  -0.0778   0.0803   0.1556

          k = 0.2500 0.2500 0.0000 (423766 PWs)   bands (ev):

   -21.2208 -11.5610  -7.7825  -7.5279  -0.8084  -0.0654   0.0549   0.1382

          k = 0.2500-0.5000 0.0000 (423782 PWs)   bands (ev):

   -21.2208 -11.5610  -7.7825  -7.5279  -0.8079  -0.0487   0.0269   0.1407

          k = 0.2500-0.2500 0.0000 (423766 PWs)   bands (ev):

   -21.2208 -11.5610  -7.7825  -7.5279  -0.8084  -0.0654   0.0549   0.1382

          k =-0.5000 0.0000 0.0000 (423542 PWs)   bands (ev):

   -21.2208 -11.5610  -7.7825  -7.5279  -0.8085  -0.0565   0.0239   0.1759

          k =-0.5000 0.2500 0.0000 (423782 PWs)   bands (ev):

   -21.2208 -11.5610  -7.7825  -7.5279  -0.8080  -0.0334   0.0111   0.1545

          k =-0.5000-0.5000 0.0000 (423708 PWs)   bands (ev):

   -21.2208 -11.5610  -7.7825  -7.5279  -0.8076  -0.0023   0.0242   0.0509

 ------ SPIN DOWN ----------


          k = 0.0000 0.0000 0.0000 (423701 PWs)   bands (ev):

   -19.9601 -11.1982  -7.1982  -4.3519  -0.6451  -0.0787   0.1568   0.2144

          k = 0.0000 0.2500 0.0000 (423725 PWs)   bands (ev):

   -19.9601 -11.1982  -7.1982  -4.3519  -0.6440  -0.0724   0.0790   0.2365

          k = 0.0000-0.5000 0.0000 (423542 PWs)   bands (ev):

   -19.9601 -11.1982  -7.1982  -4.3519  -0.6429  -0.0654   0.0420   0.2566

          k = 0.2500 0.0000 0.0000 (423725 PWs)   bands (ev):

   -19.9601 -11.1982  -7.1982  -4.3519  -0.6443  -0.0657   0.0965   0.1727

          k = 0.2500 0.2500 0.0000 (423766 PWs)   bands (ev):

   -19.9601 -11.1982  -7.1982  -4.3519  -0.6433  -0.0554   0.0684   0.1506

          k = 0.2500-0.5000 0.0000 (423782 PWs)   bands (ev):

   -19.9601 -11.1982  -7.1982  -4.3519  -0.6423  -0.0433   0.0436   0.1468

          k = 0.2500-0.2500 0.0000 (423766 PWs)   bands (ev):

   -19.9601 -11.1982  -7.1982  -4.3519  -0.6433  -0.0553   0.0684   0.1506

          k =-0.5000 0.0000 0.0000 (423542 PWs)   bands (ev):

   -19.9601 -11.1982  -7.1982  -4.3519  -0.6436  -0.0443   0.0366   0.1957

          k =-0.5000 0.2500 0.0000 (423782 PWs)   bands (ev):

   -19.9601 -11.1982  -7.1982  -4.3519  -0.6426  -0.0209   0.0206   0.1669

          k =-0.5000-0.5000 0.0000 (423708 PWs)   bands (ev):

   -19.9601 -11.1982  -7.1982  -4.3519  -0.6416   0.0044   0.0444   0.0548

     the Fermi energy is    -4.4665 ev

!    total energy              =     -22.40966306 Ry
     Harris-Foulkes estimate   =     -22.40966306 Ry
     estimated scf accuracy    <          2.2E-10 Ry

     The total energy is the sum of the following terms:

     one-electron contribution =     -47.71926260 Ry
     hartree contribution      =      24.84003515 Ry
     xc contribution           =      -6.71545277 Ry
     ewald contribution        =       7.18482751 Ry
     Dispersion Correction     =      -0.00010025 Ry
     smearing contrib. (-TS)   =       0.00028990 Ry

     total magnetization       =     1.00 Bohr mag/cell
     absolute magnetization    =     1.07 Bohr mag/cell

     convergence has been achieved in  10 iterations

     negative rho (up, down):  3.555E-04 1.062E-01

     Forces acting on atoms (cartesian axes, Ry/au):

     atom    1 type  1   force =     0.00000000   -0.00000001    0.00014828
     atom    2 type  2   force =    -0.00000000   -0.00104619   -0.00007414
     atom    3 type  2   force =    -0.00000000    0.00104619   -0.00007414

     Total force =     0.001483     Total SCF correction =     0.000006

     number of scf cycles    =   5
     number of bfgs steps    =   4

     energy   old            =     -22.4096579786 Ry
     energy   new            =     -22.4096630594 Ry

     CASE: energy  _new < energy  _old

     new trust radius        =       0.0041523279 bohr
     new conv_thr            =       0.0000000003 Ry


ATOMIC_POSITIONS (angstrom)
N       10.000000000  10.000000000  10.141690000    0   0   0
H        9.999999972  10.809069578   9.493380275
H        9.999999961   9.190930472   9.493380206



     Writing output data file NH2.save/
     NEW-OLD atomic charge density approx. for the potential

     negative rho (up, down):  3.557E-04 5.350E-02

     total cpu time spent up to now is    61598.9 secs

     Self-consistent Calculation

     iteration #  1     ecut=    60.00 Ry     beta= 0.20
     Davidson diagonalization with overlap
     ethr =  1.00E-06,  avg # of iterations =  2.0

     Threshold (ethr) on eigenvalues was too large:
     Diagonalizing with lowered threshold

     Davidson diagonalization with overlap
     ethr =  7.17E-09,  avg # of iterations =  2.5

     negative rho (up, down):  3.562E-04 9.902E-02

     total cpu time spent up to now is    62403.3 secs

     total energy              =     -22.40966628 Ry
     Harris-Foulkes estimate   =     -22.40966627 Ry
     estimated scf accuracy    <       0.00000061 Ry

     total magnetization       =     1.00 Bohr mag/cell
     absolute magnetization    =     1.07 Bohr mag/cell

     iteration #  2     ecut=    60.00 Ry     beta= 0.20
     Davidson diagonalization with overlap
     ethr =  8.77E-09,  avg # of iterations =  1.0

     negative rho (up, down):  3.592E-04 1.030E-01

     total cpu time spent up to now is    63383.1 secs

     total energy              =     -22.40966634 Ry
     Harris-Foulkes estimate   =     -22.40966628 Ry
     estimated scf accuracy    <       0.00000045 Ry

     total magnetization       =     1.00 Bohr mag/cell
     absolute magnetization    =     1.07 Bohr mag/cell

     iteration #  3     ecut=    60.00 Ry     beta= 0.20
     Davidson diagonalization with overlap
     ethr =  6.39E-09,  avg # of iterations =  2.0

     negative rho (up, down):  3.581E-04 1.010E-01

     total cpu time spent up to now is    64489.9 secs

     total energy              =     -22.40966640 Ry
     Harris-Foulkes estimate   =     -22.40966638 Ry
     estimated scf accuracy    <       0.00000001 Ry

     total magnetization       =     1.00 Bohr mag/cell
     absolute magnetization    =     1.07 Bohr mag/cell

     iteration #  4     ecut=    60.00 Ry     beta= 0.20
     Davidson diagonalization with overlap
     ethr =  1.60E-10,  avg # of iterations =  2.0

     negative rho (up, down):  3.538E-04 9.895E-02

     total cpu time spent up to now is    65661.5 secs

     total energy              =     -22.40966643 Ry
     Harris-Foulkes estimate   =     -22.40966640 Ry
     estimated scf accuracy    <          8.5E-09 Ry

     total magnetization       =     1.00 Bohr mag/cell
     absolute magnetization    =     1.07 Bohr mag/cell

     iteration #  5     ecut=    60.00 Ry     beta= 0.20
     Davidson diagonalization with overlap
     ethr =  1.21E-10,  avg # of iterations =  1.1

     negative rho (up, down):  3.517E-04 9.933E-02

     total cpu time spent up to now is    66380.0 secs

     total energy              =     -22.40966644 Ry
     Harris-Foulkes estimate   =     -22.40966643 Ry
     estimated scf accuracy    <          1.5E-09 Ry

     total magnetization       =     1.00 Bohr mag/cell
     absolute magnetization    =     1.07 Bohr mag/cell

     iteration #  6     ecut=    60.00 Ry     beta= 0.20
     Davidson diagonalization with overlap
     ethr =  2.18E-11,  avg # of iterations =  2.0

     negative rho (up, down):  3.518E-04 1.002E-01

     total cpu time spent up to now is    68042.1 secs

     total energy              =     -22.40966645 Ry
     Harris-Foulkes estimate   =     -22.40966644 Ry
     estimated scf accuracy    <          3.5E-10 Ry

     total magnetization       =     1.00 Bohr mag/cell
     absolute magnetization    =     1.07 Bohr mag/cell

     iteration #  7     ecut=    60.00 Ry     beta= 0.20
     Davidson diagonalization with overlap
     ethr =  5.03E-12,  avg # of iterations =  1.1

     negative rho (up, down):  3.555E-04 1.061E-01

     Magnetic moment per site:
     atom:    1    charge:    1.3180    magn:    0.2627    constr:    0.0000
     atom:    2    charge:    0.4515    magn:   -0.0050    constr:    0.0000
     atom:    3    charge:    0.4515    magn:   -0.0050    constr:    0.0000

     total cpu time spent up to now is    68086.7 secs

     End of self-consistent calculation

 ------ SPIN UP ------------


          k = 0.0000 0.0000 0.0000 (423701 PWs)   bands (ev):

   -21.2265 -11.5507  -7.7931  -7.5289  -0.8097  -0.0912   0.1410   0.1809

          k = 0.0000 0.2500 0.0000 (423725 PWs)   bands (ev):

   -21.2265 -11.5507  -7.7931  -7.5289  -0.8092  -0.0823   0.0677   0.2016

          k = 0.0000-0.5000 0.0000 (423542 PWs)   bands (ev):

   -21.2265 -11.5507  -7.7931  -7.5289  -0.8087  -0.0708   0.0277   0.2429

          k = 0.2500 0.0000 0.0000 (423725 PWs)   bands (ev):

   -21.2265 -11.5507  -7.7931  -7.5289  -0.8093  -0.0781   0.0800   0.1557

          k = 0.2500 0.2500 0.0000 (423766 PWs)   bands (ev):

   -21.2265 -11.5507  -7.7931  -7.5289  -0.8088  -0.0656   0.0547   0.1378

          k = 0.2500-0.5000 0.0000 (423782 PWs)   bands (ev):

   -21.2265 -11.5507  -7.7931  -7.5289  -0.8083  -0.0489   0.0265   0.1406

          k = 0.2500-0.2500 0.0000 (423766 PWs)   bands (ev):

   -21.2265 -11.5507  -7.7931  -7.5289  -0.8088  -0.0656   0.0547   0.1379

          k =-0.5000 0.0000 0.0000 (423542 PWs)   bands (ev):

   -21.2265 -11.5507  -7.7931  -7.5289  -0.8089  -0.0567   0.0236   0.1761

          k =-0.5000 0.2500 0.0000 (423782 PWs)   bands (ev):

   -21.2265 -11.5507  -7.7931  -7.5289  -0.8084  -0.0337   0.0109   0.1542

          k =-0.5000-0.5000 0.0000 (423708 PWs)   bands (ev):

   -21.2265 -11.5507  -7.7931  -7.5289  -0.8080  -0.0023   0.0239   0.0507

 ------ SPIN DOWN ----------


          k = 0.0000 0.0000 0.0000 (423701 PWs)   bands (ev):

   -19.9663 -11.1877  -7.2084  -4.3531  -0.6457  -0.0793   0.1566   0.2138

          k = 0.0000 0.2500 0.0000 (423725 PWs)   bands (ev):

   -19.9663 -11.1877  -7.2084  -4.3531  -0.6446  -0.0729   0.0785   0.2359

          k = 0.0000-0.5000 0.0000 (423542 PWs)   bands (ev):

   -19.9663 -11.1877  -7.2084  -4.3531  -0.6435  -0.0657   0.0413   0.2564

          k = 0.2500 0.0000 0.0000 (423725 PWs)   bands (ev):

   -19.9663 -11.1877  -7.2084  -4.3531  -0.6449  -0.0663   0.0960   0.1725

          k = 0.2500 0.2500 0.0000 (423766 PWs)   bands (ev):

   -19.9663 -11.1877  -7.2084  -4.3531  -0.6439  -0.0559   0.0680   0.1500

          k = 0.2500-0.5000 0.0000 (423782 PWs)   bands (ev):

   -19.9663 -11.1877  -7.2084  -4.3531  -0.6429  -0.0436   0.0429   0.1464

          k = 0.2500-0.2500 0.0000 (423766 PWs)   bands (ev):

   -19.9663 -11.1877  -7.2084  -4.3531  -0.6439  -0.0558   0.0680   0.1501

          k =-0.5000 0.0000 0.0000 (423542 PWs)   bands (ev):

   -19.9663 -11.1877  -7.2084  -4.3531  -0.6441  -0.0449   0.0362   0.1957

          k =-0.5000 0.2500 0.0000 (423782 PWs)   bands (ev):

   -19.9663 -11.1877  -7.2084  -4.3531  -0.6432  -0.0215   0.0203   0.1662

          k =-0.5000-0.5000 0.0000 (423708 PWs)   bands (ev):

   -19.9663 -11.1877  -7.2084  -4.3531  -0.6422   0.0042   0.0436   0.0543

     the Fermi energy is    -4.4676 ev

!    total energy              =     -22.40966647 Ry
     Harris-Foulkes estimate   =     -22.40966645 Ry
     estimated scf accuracy    <          2.5E-10 Ry

     The total energy is the sum of the following terms:

     one-electron contribution =     -47.72338299 Ry
     hartree contribution      =      24.84187116 Ry
     xc contribution           =      -6.71575539 Ry
     ewald contribution        =       7.18740940 Ry
     Dispersion Correction     =      -0.00009854 Ry
     smearing contrib. (-TS)   =       0.00028990 Ry

     total magnetization       =     1.00 Bohr mag/cell
     absolute magnetization    =     1.07 Bohr mag/cell

     convergence has been achieved in   7 iterations

     negative rho (up, down):  3.555E-04 1.061E-01

     Forces acting on atoms (cartesian axes, Ry/au):

     atom    1 type  1   force =     0.00000000   -0.00000000   -0.00033602
     atom    2 type  2   force =    -0.00000000   -0.00026937    0.00016801
     atom    3 type  2   force =    -0.00000000    0.00026937    0.00016801

     Total force =     0.000449     Total SCF correction =     0.000003

     number of scf cycles    =   6
     number of bfgs steps    =   5

     energy   old            =     -22.4096630594 Ry
     energy   new            =     -22.4096664671 Ry

     CASE: energy  _new < energy  _old

     new trust radius        =       0.0003273297 bohr
     new conv_thr            =            1.0E-10 Ry


ATOMIC_POSITIONS (angstrom)
N       10.000000000  10.000000000  10.141690000    0   0   0
H        9.999999972  10.808898787   9.493409146
H        9.999999960   9.191101264   9.493409077



     Writing output data file NH2.save/
     NEW-OLD atomic charge density approx. for the potential

     negative rho (up, down):  3.556E-04 5.366E-02

     total cpu time spent up to now is    68132.9 secs

     Self-consistent Calculation

     iteration #  1     ecut=    60.00 Ry     beta= 0.20
     Davidson diagonalization with overlap
     ethr =  1.00E-06,  avg # of iterations =  2.0

     Threshold (ethr) on eigenvalues was too large:
     Diagonalizing with lowered threshold

     Davidson diagonalization with overlap
     ethr =  6.00E-10,  avg # of iterations =  2.0

     negative rho (up, down):  3.542E-04 8.485E-02

     total cpu time spent up to now is    70055.6 secs

     total energy              =     -22.40966659 Ry
     Harris-Foulkes estimate   =     -22.40966661 Ry
     estimated scf accuracy    <       0.00000004 Ry

     total magnetization       =     1.00 Bohr mag/cell
     absolute magnetization    =     1.07 Bohr mag/cell

     iteration #  2     ecut=    60.00 Ry     beta= 0.20
     Davidson diagonalization with overlap
     ethr =  5.90E-10,  avg # of iterations =  1.0

     negative rho (up, down):  3.461E-04 8.779E-02

     total cpu time spent up to now is    71612.9 secs

     total energy              =     -22.40966655 Ry
     Harris-Foulkes estimate   =     -22.40966659 Ry
     estimated scf accuracy    <       0.00000003 Ry

     total magnetization       =     1.00 Bohr mag/cell
     absolute magnetization    =     1.07 Bohr mag/cell

     iteration #  3     ecut=    60.00 Ry     beta= 0.20
     Davidson diagonalization with overlap
     ethr =  4.38E-10,  avg # of iterations =  3.0

     negative rho (up, down):  3.476E-04 8.976E-02

     total cpu time spent up to now is    72728.6 secs

     total energy              =     -22.40966657 Ry
     Harris-Foulkes estimate   =     -22.40966656 Ry
     estimated scf accuracy    <          8.3E-09 Ry

     total magnetization       =     1.00 Bohr mag/cell
     absolute magnetization    =     1.07 Bohr mag/cell

     iteration #  4     ecut=    60.00 Ry     beta= 0.20
     Davidson diagonalization with overlap
     ethr =  1.18E-10,  avg # of iterations =  1.0

     negative rho (up, down):  3.485E-04 9.257E-02

     total cpu time spent up to now is    74027.7 secs

     total energy              =     -22.40966658 Ry
     Harris-Foulkes estimate   =     -22.40966657 Ry
     estimated scf accuracy    <          2.6E-09 Ry

     total magnetization       =     1.00 Bohr mag/cell
     absolute magnetization    =     1.07 Bohr mag/cell

     iteration #  5     ecut=    60.00 Ry     beta= 0.20
     Davidson diagonalization with overlap
     ethr =  3.71E-11,  avg # of iterations =  2.0

     negative rho (up, down):  3.489E-04 9.520E-02

     total cpu time spent up to now is    75115.5 secs

     total energy              =     -22.40966659 Ry
     Harris-Foulkes estimate   =     -22.40966658 Ry
     estimated scf accuracy    <          3.5E-10 Ry

     total magnetization       =     1.00 Bohr mag/cell
     absolute magnetization    =     1.07 Bohr mag/cell

     iteration #  6     ecut=    60.00 Ry     beta= 0.20
     Davidson diagonalization with overlap
     ethr =  5.06E-12,  avg # of iterations =  3.0

     negative rho (up, down):  3.493E-04 9.717E-02

     total cpu time spent up to now is    76068.8 secs

     total energy              =     -22.40966659 Ry
     Harris-Foulkes estimate   =     -22.40966659 Ry
     estimated scf accuracy    <          8.4E-10 Ry

     total magnetization       =     1.00 Bohr mag/cell
     absolute magnetization    =     1.07 Bohr mag/cell

     iteration #  7     ecut=    60.00 Ry     beta= 0.20
     Davidson diagonalization with overlap
     ethr =  5.06E-12,  avg # of iterations =  1.0

     negative rho (up, down):  3.501E-04 9.892E-02

     total cpu time spent up to now is    77214.9 secs

     total energy              =     -22.40966659 Ry
     Harris-Foulkes estimate   =     -22.40966659 Ry
     estimated scf accuracy    <          1.0E-09 Ry

     total magnetization       =     1.00 Bohr mag/cell
     absolute magnetization    =     1.07 Bohr mag/cell

     iteration #  8     ecut=    60.00 Ry     beta= 0.20
     Davidson diagonalization with overlap
     ethr =  5.06E-12,  avg # of iterations =  3.0

     negative rho (up, down):  3.556E-04 1.061E-01

     Magnetic moment per site:
     atom:    1    charge:    1.3181    magn:    0.2627    constr:    0.0000
     atom:    2    charge:    0.4515    magn:   -0.0050    constr:    0.0000
     atom:    3    charge:    0.4515    magn:   -0.0050    constr:    0.0000

     total cpu time spent up to now is    77265.6 secs

     End of self-consistent calculation

 ------ SPIN UP ------------


          k = 0.0000 0.0000 0.0000 (423701 PWs)   bands (ev):

   -21.2280 -11.5513  -7.7935  -7.5291  -0.8092  -0.0913   0.1410   0.1808

          k = 0.0000 0.2500 0.0000 (423725 PWs)   bands (ev):

   -21.2280 -11.5513  -7.7935  -7.5291  -0.8087  -0.0825   0.0677   0.2016

          k = 0.0000-0.5000 0.0000 (423542 PWs)   bands (ev):

   -21.2280 -11.5513  -7.7935  -7.5291  -0.8083  -0.0710   0.0277   0.2428

          k = 0.2500 0.0000 0.0000 (423725 PWs)   bands (ev):

   -21.2280 -11.5513  -7.7935  -7.5291  -0.8089  -0.0782   0.0799   0.1557

          k = 0.2500 0.2500 0.0000 (423766 PWs)   bands (ev):

   -21.2280 -11.5513  -7.7935  -7.5291  -0.8084  -0.0658   0.0546   0.1378

          k = 0.2500-0.5000 0.0000 (423782 PWs)   bands (ev):

   -21.2280 -11.5513  -7.7935  -7.5291  -0.8079  -0.0491   0.0265   0.1404

          k = 0.2500-0.2500 0.0000 (423766 PWs)   bands (ev):

   -21.2280 -11.5513  -7.7935  -7.5291  -0.8084  -0.0658   0.0546   0.1378

          k =-0.5000 0.0000 0.0000 (423542 PWs)   bands (ev):

   -21.2280 -11.5513  -7.7935  -7.5291  -0.8085  -0.0569   0.0235   0.1761

          k =-0.5000 0.2500 0.0000 (423782 PWs)   bands (ev):

   -21.2280 -11.5513  -7.7935  -7.5291  -0.8080  -0.0338   0.0107   0.1541

          k =-0.5000-0.5000 0.0000 (423708 PWs)   bands (ev):

   -21.2280 -11.5513  -7.7935  -7.5291  -0.8075  -0.0025   0.0239   0.0504

 ------ SPIN DOWN ----------


          k = 0.0000 0.0000 0.0000 (423701 PWs)   bands (ev):

   -19.9680 -11.1883  -7.2087  -4.3533  -0.6452  -0.0793   0.1567   0.2139

          k = 0.0000 0.2500 0.0000 (423725 PWs)   bands (ev):

   -19.9680 -11.1883  -7.2087  -4.3533  -0.6441  -0.0730   0.0786   0.2360

          k = 0.0000-0.5000 0.0000 (423542 PWs)   bands (ev):

   -19.9680 -11.1883  -7.2087  -4.3533  -0.6430  -0.0659   0.0414   0.2563

          k = 0.2500 0.0000 0.0000 (423725 PWs)   bands (ev):

   -19.9680 -11.1883  -7.2087  -4.3533  -0.6444  -0.0663   0.0959   0.1726

          k = 0.2500 0.2500 0.0000 (423766 PWs)   bands (ev):

   -19.9680 -11.1883  -7.2087  -4.3533  -0.6434  -0.0559   0.0680   0.1501

          k = 0.2500-0.5000 0.0000 (423782 PWs)   bands (ev):

   -19.9680 -11.1883  -7.2087  -4.3533  -0.6424  -0.0438   0.0431   0.1463

          k = 0.2500-0.2500 0.0000 (423766 PWs)   bands (ev):

   -19.9680 -11.1883  -7.2087  -4.3533  -0.6434  -0.0559   0.0680   0.1500

          k =-0.5000 0.0000 0.0000 (423542 PWs)   bands (ev):

   -19.9680 -11.1883  -7.2087  -4.3533  -0.6436  -0.0449   0.0361   0.1959

          k =-0.5000 0.2500 0.0000 (423782 PWs)   bands (ev):

   -19.9680 -11.1883  -7.2087  -4.3533  -0.6427  -0.0215   0.0202   0.1663

          k =-0.5000-0.5000 0.0000 (423708 PWs)   bands (ev):

   -19.9680 -11.1883  -7.2087  -4.3533  -0.6417   0.0041   0.0438   0.0542

     the Fermi energy is    -4.4678 ev

!    total energy              =     -22.40966659 Ry
     Harris-Foulkes estimate   =     -22.40966659 Ry
     estimated scf accuracy    <          6.1E-11 Ry

     The total energy is the sum of the following terms:

     one-electron contribution =     -47.72612914 Ry
     hartree contribution      =      24.84324794 Ry
     xc contribution           =      -6.71601349 Ry
     ewald contribution        =       7.18903655 Ry
     Dispersion Correction     =      -0.00009835 Ry
     smearing contrib. (-TS)   =       0.00028990 Ry

     total magnetization       =     1.00 Bohr mag/cell
     absolute magnetization    =     1.07 Bohr mag/cell

     convergence has been achieved in   8 iterations

     negative rho (up, down):  3.556E-04 1.061E-01

     Forces acting on atoms (cartesian axes, Ry/au):

     atom    1 type  1   force =     0.00000000   -0.00000000   -0.00011712
     atom    2 type  2   force =    -0.00000000   -0.00006512    0.00005856
     atom    3 type  2   force =    -0.00000000    0.00006513    0.00005856

     Total force =     0.000124     Total SCF correction =     0.000003

     bfgs converged in   7 scf cycles and   6 bfgs steps
     (criteria: energy <  7.3E-07 Ry, force <  3.9E-04 Ry/Bohr)

     End of BFGS Geometry Optimization

     Final energy   =     -22.4096665884 Ry
Begin final coordinates

ATOMIC_POSITIONS (angstrom)
N       10.000000000  10.000000000  10.141690000    0   0   0
H        9.999999972  10.808898787   9.493409146
H        9.999999960   9.191101264   9.493409077
End final coordinates



     Writing output data file NH2.save/

     init_run     :     38.38s CPU     40.01s WALL (       1 calls)
     electrons    :  76459.67s CPU  76955.34s WALL (       7 calls)
     update_pot   :    107.27s CPU    112.44s WALL (       6 calls)
     forces       :    141.27s CPU    148.71s WALL (       7 calls)

     Called by init_run:
     wfcinit      :      8.19s CPU      8.36s WALL (       1 calls)
     potinit      :     16.70s CPU     17.61s WALL (       1 calls)
     hinit0       :      3.54s CPU      3.71s WALL (       1 calls)

     Called by electrons:
     c_bands      :   1723.48s CPU   1760.58s WALL (      80 calls)
     sum_band     :    744.93s CPU    769.50s WALL (      80 calls)
     v_of_rho     :   1114.68s CPU   1173.29s WALL (      82 calls)
     newd         :    135.49s CPU    151.86s WALL (      82 calls)
     mix_rho      :  71417.94s CPU  71765.73s WALL (      80 calls)

     Called by c_bands:
     init_us_2    :     20.14s CPU     20.49s WALL (     840 calls)
     cegterg      :   1664.44s CPU   1690.01s WALL (     400 calls)

     Called by sum_band:
     sum_band:bec :      0.01s CPU      0.01s WALL (     400 calls)
     addusdens    :    201.90s CPU    217.80s WALL (      80 calls)

     Called by *egterg:
     h_psi        :   1573.34s CPU   1590.55s WALL (    1547 calls)
     s_psi        :     12.34s CPU     12.44s WALL (    1547 calls)
     g_psi        :      4.69s CPU      4.72s WALL (    1142 calls)
     cdiaghg      :      0.52s CPU      0.55s WALL (    1487 calls)

     Called by h_psi:
     h_psi:pot    :   1565.60s CPU   1578.04s WALL (    1547 calls)
     h_psi:calbec :     14.72s CPU     14.86s WALL (    1547 calls)
     vloc_psi     :   1538.61s CPU   1550.79s WALL (    1547 calls)
     add_vuspsi   :     12.24s CPU     12.38s WALL (    1547 calls)

     General routines
     calbec       :     22.51s CPU     22.70s WALL (    2087 calls)
     fft          :   1077.42s CPU   1128.94s WALL (    2157 calls)
     ffts         :  39976.94s CPU  40139.46s WALL (  230784 calls)
     fftw         :   1610.87s CPU   1622.16s WALL (   19864 calls)
     interpolate  :    111.26s CPU    119.02s WALL (     164 calls)
     davcio       :      0.32s CPU     44.39s WALL (    2129 calls)

     Parallel routines
     fft_scatt_xy :   5676.96s CPU   5698.00s WALL (  252805 calls)
     fft_scatt_yz :  21132.64s CPU  21240.78s WALL (  252805 calls)

     PWSCF        :     21h19m CPU     21h28m WALL


   This run was terminated on:  15:15:18   7Jun2022            

=------------------------------------------------------------------------------=
   JOB DONE.
=------------------------------------------------------------------------------=
