
     Program PWSCF v.6.4.1 starts on 15Jun2022 at 15: 7:35 

     This program is part of the open-source Quantum ESPRESSO suite
     for quantum simulation of materials; please cite
         "P. Giannozzi et al., J. Phys.:Condens. Matter 21 395502 (2009);
         "P. Giannozzi et al., J. Phys.:Condens. Matter 29 465901 (2017);
          URL http://www.quantum-espresso.org", 
     in publications or presentations arising from this work. More details at
     http://www.quantum-espresso.org/quote

     Parallel version (MPI), running on   160 processors

     MPI processes distributed on     8 nodes
     K-points division:     npool     =       8
     R & G space division:  proc/nbgrp/npool/nimage =      20
     Waiting for input...
     Reading input from standard input
Warning: card &CELL ignored
Warning: card / ignored

     Current dimensions of program PWSCF are:
     Max number of different atomic species (ntypx) = 10
     Max number of k-points (npk) =  40000
     Max angular momentum in pseudopotentials (lmaxx) =  3

     IMPORTANT: XC functional enforced from input :
     Exchange-correlation      = PBE ( 1  4  3  4 0 0)
     Any further DFT definition will be discarded
     Please, verify this is what you really want

               file Fe.pbe-spn-kjpaw_psl.0.2.1.UPF: wavefunction(s)  3D renormalized

     -------------------------------------------------
     Parameters for Dispersion (Grimme-D2) Correction:
     -------------------------------------------------
       atom      VdW radius       C_6     

        Fe         2.952        374.666
        N          2.640         42.670
        H          1.892          4.857

     Subspace diagonalization in iterative solution of the eigenvalue problem:
     one sub-group per band group will be used
     scalapack distributed-memory algorithm (size of sub-group:  3*  3 procs)


     Parallelization info
     --------------------
     sticks:   dense  smooth     PW     G-vecs:    dense   smooth      PW
     Min         634     317     83               145278    51361    6989
     Max         635     318     84               145287    51370    7000
     Sum       12685    6351   1677              2905599  1027285  139897



     bravais-lattice index     =            0
     lattice parameter (alat)  =      18.7640  a.u.
     unit-cell volume          =   16360.3163 (a.u.)^3
     number of atoms/cell      =           68
     number of atomic types    =            3
     number of electrons       =      1032.00
     number of Kohn-Sham states=          619
     kinetic-energy cutoff     =      60.0000  Ry
     charge density cutoff     =     480.0000  Ry
     convergence threshold     =      1.0E-08
     mixing beta               =       0.2000
     number of iterations used =           10  local-TF  mixing
     Exchange-correlation      = PBE ( 1  4  3  4 0 0)
     nstep                     =           50


     Effective Screening Medium Method
     =================================
     Boundary Conditions: Metal-Slab-Metal
     field strength                   =    -0.02 Ry/a.u.
     grid points for fit at edges     =        4 


     celldm(1)=  18.764036  celldm(2)=   0.000000  celldm(3)=   0.000000
     celldm(4)=   0.000000  celldm(5)=   0.000000  celldm(6)=   0.000000

     crystal axes: (cart. coord. in units of alat)
               a(1) = (   1.000000   0.000000   0.000000 )  
               a(2) = (   0.333330   0.942807   0.000000 )  
               a(3) = (   0.000000   0.000000   2.626577 )  

     reciprocal axes: (cart. coord. in units 2 pi/alat)
               b(1) = (  1.000000 -0.353551  0.000000 )  
               b(2) = (  0.000000  1.060663  0.000000 )  
               b(3) = (  0.000000  0.000000  0.380724 )  


     PseudoPot. # 1 for Fe read from file:
     ../../SSSP/Fe.pbe-spn-kjpaw_psl.0.2.1.UPF
     MD5 check sum: e86618425769142926afa95317d90200
     Pseudo is Projector augmented-wave + core cor, Zval = 16.0
     Generated using "atomic" code by A. Dal Corso v.5.0.99 svn rev. 10869
     Shape of augmentation charge: PSQ
     Using radial grid of 1191 points,  6 beta functions with: 
                l(1) =   0
                l(2) =   0
                l(3) =   1
                l(4) =   1
                l(5) =   2
                l(6) =   2
     Q(r) pseudized with 0 coefficients 


     PseudoPot. # 2 for N  read from file:
     ../../SSSP/N.pbe-n-radius_5.UPF
     MD5 check sum: 16739722b17309cd8fe442a2ace49922
     Pseudo is Ultrasoft + core correction, Zval =  5.0
     Generated using "atomic" code by A. Dal Corso v.5.1
     Using radial grid of 1085 points,  4 beta functions with: 
                l(1) =   0
                l(2) =   0
                l(3) =   1
                l(4) =   1
     Q(r) pseudized with 0 coefficients 


     PseudoPot. # 3 for H  read from file:
     ../../SSSP/H.pbe-rrkjus_psl.1.0.0.UPF
     MD5 check sum: f52b6d4d1c606e5624b1dc7b2218f220
     Pseudo is Ultrasoft, Zval =  1.0
     Generated using "atomic" code by A. Dal Corso v.5.1
     Using radial grid of  929 points,  2 beta functions with: 
                l(1) =   0
                l(2) =   0
     Q(r) pseudized with 0 coefficients 


     atomic species   valence    mass     pseudopotential
        Fe            16.00    55.84500     Fe( 1.00)
        N              5.00    14.00700     N ( 1.00)
        H              1.00     1.00800     H ( 1.00)

     Starting magnetic structure 
     atomic species   magnetization
        Fe           0.100
        N            0.100
        H            0.100

     No symmetry found



   Cartesian axes

     site n.     atom                  positions (alat units)
         1           Fe  tau(   1) = (   0.1666663   0.1178509   0.0000000  )
         2           Fe  tau(   2) = (   0.0000000   0.0000000   0.2041376  )
         3           Fe  tau(   3) = (   0.4999989   0.3535526   0.0000000  )
         4           Fe  tau(   4) = (   0.3333326   0.2357017   0.2041376  )
         5           Fe  tau(   5) = (   0.1661858   0.1176809   0.4050825  )
         6           Fe  tau(   6) = (   0.3331490   0.9440172   0.6055477  )
         7           Fe  tau(   7) = (   0.4997133   0.3541973   0.4041387  )
         8           Fe  tau(   8) = (   0.3332716   0.2346919   0.6040914  )
         9           Fe  tau(   9) = (   0.2499989   0.3535526   0.0000000  )
        10           Fe  tau(  10) = (   0.4166663   0.1178509   0.0000000  )
        11           Fe  tau(  11) = (   0.0833326   0.2357017   0.2041376  )
        12           Fe  tau(  12) = (   0.2500000   0.0000000   0.2041376  )
        13           Fe  tau(  13) = (   0.2500270   0.3534562   0.4056552  )
        14           Fe  tau(  14) = (   0.4160382   0.1174167   0.4047641  )
        15           Fe  tau(  15) = (   0.0822905   0.2361031   0.6033394  )
        16           Fe  tau(  16) = (   0.2498857  -0.0000716   0.6044957  )
        17           Fe  tau(  17) = (   0.6666663   0.1178509   0.0000000  )
        18           Fe  tau(  18) = (   0.5000000   0.0000000   0.2041376  )
        19           Fe  tau(  19) = (   0.9999989   0.3535526   0.0000000  )
        20           Fe  tau(  20) = (   0.8333326   0.2357017   0.2041376  )
        21           Fe  tau(  21) = (   0.6671839   0.1173630   0.4041374  )
        22           Fe  tau(  22) = (   0.4990299   0.0002799   0.6040386  )
        23           Fe  tau(  23) = (   1.0002631   0.3527942   0.4039660  )
        24           Fe  tau(  24) = (   0.8341795   0.2345333   0.6132676  )
        25           Fe  tau(  25) = (   0.7499989   0.3535526   0.0000000  )
        26           Fe  tau(  26) = (   0.9166663   0.1178509   0.0000000  )
        27           Fe  tau(  27) = (   0.5833326   0.2357017   0.2041376  )
        28           Fe  tau(  28) = (   0.7500000   0.0000000   0.2041376  )
        29           Fe  tau(  29) = (   0.7499771   0.3535160   0.4073037  )
        30           Fe  tau(  30) = (   0.9158741   0.1187739   0.4083241  )
        31           Fe  tau(  31) = (   0.5792775   0.2328300   0.5974008  )
        32           Fe  tau(  32) = (   1.0838684   0.9442409   0.6033182  )
        33           Fe  tau(  33) = (   0.3333315   0.5892543   0.0000000  )
        34           Fe  tau(  34) = (   0.1666652   0.4714034   0.2041376  )
        35           Fe  tau(  35) = (   0.6666640   0.8249560   0.0000000  )
        36           Fe  tau(  36) = (   0.4999978   0.7071052   0.2041376  )
        37           Fe  tau(  37) = (   0.3338635   0.5895038   0.4055621  )
        38           Fe  tau(  38) = (   1.1668133   0.4715240   0.6035207  )
        39           Fe  tau(  39) = (   0.6663351   0.8245919   0.4050747  )
        40           Fe  tau(  40) = (   0.5010598   0.7065788   0.6055205  )
        41           Fe  tau(  41) = (   0.4166640   0.8249560   0.0000000  )
        42           Fe  tau(  42) = (   0.5833315   0.5892543   0.0000000  )
        43           Fe  tau(  43) = (   0.2499978   0.7071052   0.2041376  )
        44           Fe  tau(  44) = (   0.4166652   0.4714034   0.2041376  )
        45           Fe  tau(  45) = (   0.4164874   0.8248740   0.4053169  )
        46           Fe  tau(  46) = (   0.5839274   0.5882228   0.4083075  )
        47           Fe  tau(  47) = (   1.2489553   0.7063733   0.6056608  )
        48           Fe  tau(  48) = (   0.4181887   0.4714441   0.6033253  )
        49           Fe  tau(  49) = (   0.8333315   0.5892543   0.0000000  )
        50           Fe  tau(  50) = (   0.6666652   0.4714034   0.2041376  )
        51           Fe  tau(  51) = (   1.1666640   0.8249560   0.0000000  )
        52           Fe  tau(  52) = (   0.9999978   0.7071052   0.2041376  )
        53           Fe  tau(  53) = (   0.8327152   0.5897474   0.4039630  )
        54           Fe  tau(  54) = (   0.6658720   0.4725219   0.6132366  )
        55           Fe  tau(  55) = (   1.1670623   0.8254012   0.4055725  )
        56           Fe  tau(  56) = (   1.0001813   0.7072001   0.6035878  )
        57           Fe  tau(  57) = (   0.9166640   0.8249560   0.0000000  )
        58           Fe  tau(  58) = (   1.0833315   0.5892543   0.0000000  )
        59           Fe  tau(  59) = (   0.7499978   0.7071052   0.2041376  )
        60           Fe  tau(  60) = (   0.9166652   0.4714034   0.2041376  )
        61           Fe  tau(  61) = (   0.9166011   0.8250195   0.4056626  )
        62           Fe  tau(  62) = (   1.0839218   0.5896779   0.4045371  )
        63           Fe  tau(  63) = (   0.7500297   0.7059832   0.6033430  )
        64           Fe  tau(  64) = (   0.9208697   0.4743691   0.5973551  )
        65           N   tau(  65) = (   0.7500242   0.3535505   0.7526563  )
        66           H   tau(  66) = (   0.8164331   0.4005998   0.8170145  )
        67           H   tau(  67) = (   0.6836738   0.3065801   0.8171320  )
        68           H   tau(  68) = (   0.4576562   0.8539696   0.6985733  )

     number of k points=    10  Methfessel-Paxton smearing, width (Ry)=  0.0100
                       cart. coord. in units 2pi/alat
        k(    1) = (   0.0000000   0.0000000   0.0000000), wk =   0.0625000
        k(    2) = (   0.0000000   0.2651656   0.0000000), wk =   0.1250000
        k(    3) = (   0.0000000  -0.5303313   0.0000000), wk =   0.0625000
        k(    4) = (   0.2500000  -0.0883878   0.0000000), wk =   0.1250000
        k(    5) = (   0.2500000   0.1767779   0.0000000), wk =   0.1250000
        k(    6) = (   0.2500000  -0.6187190   0.0000000), wk =   0.1250000
        k(    7) = (   0.2500000  -0.3535534   0.0000000), wk =   0.1250000
        k(    8) = (  -0.5000000   0.1767755   0.0000000), wk =   0.0625000
        k(    9) = (  -0.5000000   0.4419412   0.0000000), wk =   0.1250000
        k(   10) = (  -0.5000000  -0.3535558   0.0000000), wk =   0.0625000

     Dense  grid:  2905599 G-vectors     FFT dimensions: ( 135, 135, 360)

     Smooth grid:  1027285 G-vectors     FFT dimensions: (  96,  96, 243)

     Estimated max dynamical RAM per process >       1.01 GB

     Estimated total dynamical RAM >     162.10 GB
     Generating pointlists ...
     new r_m :   0.0741 (alat units)  1.3903 (a.u.) for type    1
     new r_m :   0.0428 (alat units)  0.8031 (a.u.) for type    2
     new r_m :   0.0428 (alat units)  0.8031 (a.u.) for type    3

     Check: negative core charge=   -0.000039

     Initial potential from superposition of free atoms

     starting charge 1031.97191, renormalised to 1032.00000

     negative rho (up, down):  2.435E-02 2.535E-03
     Starting wfcs are  839 randomized atomic wfcs
     Checking if some PAW data can be deallocated... 

     total cpu time spent up to now is       91.0 secs

     Self-consistent Calculation

     iteration #  1     ecut=    60.00 Ry     beta= 0.20
     Davidson diagonalization with overlap
     ethr =  1.00E-04,  avg # of iterations = 18.0

     negative rho (up, down):  1.500E-02 3.162E-03

     total cpu time spent up to now is     1080.3 secs

     total energy              =  -21080.91170739 Ry
     Harris-Foulkes estimate   =  -21102.97967014 Ry
     estimated scf accuracy    <    1149.19412081 Ry

     total magnetization       =    68.97 Bohr mag/cell
     absolute magnetization    =    70.86 Bohr mag/cell

     iteration #  2     ecut=    60.00 Ry     beta= 0.20
     Davidson diagonalization with overlap
     ethr =  1.00E-02,  avg # of iterations =  1.0

     negative rho (up, down):  1.260E-02 2.864E-02

     total cpu time spent up to now is     1209.4 secs

     total energy              =  -21093.27738921 Ry
     Harris-Foulkes estimate   =  -21100.23949840 Ry
     estimated scf accuracy    <     365.48820463 Ry

     total magnetization       =    81.67 Bohr mag/cell
     absolute magnetization    =    83.76 Bohr mag/cell

     iteration #  3     ecut=    60.00 Ry     beta= 0.20
     Davidson diagonalization with overlap
     ethr =  1.00E-02,  avg # of iterations =  1.0

     negative rho (up, down):  9.842E-03 5.953E-02

     total cpu time spent up to now is     1346.2 secs

     total energy              =  -21096.12171199 Ry
     Harris-Foulkes estimate   =  -21096.37209927 Ry
     estimated scf accuracy    <      16.32713005 Ry

     total magnetization       =   120.68 Bohr mag/cell
     absolute magnetization    =   121.31 Bohr mag/cell

     iteration #  4     ecut=    60.00 Ry     beta= 0.20
     Davidson diagonalization with overlap
     ethr =  1.58E-03,  avg # of iterations =  1.0

     negative rho (up, down):  7.567E-03 7.457E-02

     total cpu time spent up to now is     1478.4 secs

     total energy              =  -21096.20876001 Ry
     Harris-Foulkes estimate   =  -21096.25677625 Ry
     estimated scf accuracy    <      19.54367016 Ry

     total magnetization       =   127.88 Bohr mag/cell
     absolute magnetization    =   128.45 Bohr mag/cell

     iteration #  5     ecut=    60.00 Ry     beta= 0.20
     Davidson diagonalization with overlap
     ethr =  1.58E-03,  avg # of iterations =  1.0

     negative rho (up, down):  2.157E-02 2.271E-01

     total cpu time spent up to now is     1611.7 secs

     total energy              =  -21094.48122139 Ry
     Harris-Foulkes estimate   =  -21096.24522670 Ry
     estimated scf accuracy    <      21.95016510 Ry

     total magnetization       =   131.68 Bohr mag/cell
     absolute magnetization    =   132.27 Bohr mag/cell

     iteration #  6     ecut=    60.00 Ry     beta= 0.20
     Davidson diagonalization with overlap
     ethr =  1.58E-03,  avg # of iterations =  3.2

     negative rho (up, down):  1.678E-02 2.061E-01

     total cpu time spent up to now is     1771.8 secs

     total energy              =  -21095.09400823 Ry
     Harris-Foulkes estimate   =  -21095.41363493 Ry
     estimated scf accuracy    <       8.64405578 Ry

     total magnetization       =   154.12 Bohr mag/cell
     absolute magnetization    =   155.45 Bohr mag/cell

     iteration #  7     ecut=    60.00 Ry     beta= 0.20
     Davidson diagonalization with overlap
     ethr =  8.38E-04,  avg # of iterations =  5.6

     negative rho (up, down):  6.134E-03 1.081E-01

     total cpu time spent up to now is     1963.5 secs

     total energy              =  -21095.26698859 Ry
     Harris-Foulkes estimate   =  -21095.33549308 Ry
     estimated scf accuracy    <       3.11515723 Ry

     total magnetization       =   154.94 Bohr mag/cell
     absolute magnetization    =   156.74 Bohr mag/cell

     iteration #  8     ecut=    60.00 Ry     beta= 0.20
     Davidson diagonalization with overlap
     ethr =  3.02E-04,  avg # of iterations = 13.1

     negative rho (up, down):  7.158E-04 4.397E-02

     total cpu time spent up to now is     2638.6 secs

     total energy              =  -21095.85303079 Ry
     Harris-Foulkes estimate   =  -21096.58798804 Ry
     estimated scf accuracy    <       6.34301065 Ry

     total magnetization       =   153.45 Bohr mag/cell
     absolute magnetization    =   158.86 Bohr mag/cell

     iteration #  9     ecut=    60.00 Ry     beta= 0.20
     Davidson diagonalization with overlap
     ethr =  3.02E-04,  avg # of iterations =  2.8

     negative rho (up, down):  4.565E-04 2.273E-02

     total cpu time spent up to now is     2803.3 secs

     total energy              =  -21096.14222138 Ry
     Harris-Foulkes estimate   =  -21096.16148516 Ry
     estimated scf accuracy    <       0.72587850 Ry

     total magnetization       =   147.96 Bohr mag/cell
     absolute magnetization    =   152.76 Bohr mag/cell

     iteration # 10     ecut=    60.00 Ry     beta= 0.20
     Davidson diagonalization with overlap
     ethr =  7.03E-05,  avg # of iterations =  7.3

     negative rho (up, down):  3.335E-04 1.780E-02

     total cpu time spent up to now is     3049.3 secs

     total energy              =  -21096.23689908 Ry
     Harris-Foulkes estimate   =  -21096.23614325 Ry
     estimated scf accuracy    <       0.73882311 Ry

     total magnetization       =   147.82 Bohr mag/cell
     absolute magnetization    =   152.24 Bohr mag/cell

     iteration # 11     ecut=    60.00 Ry     beta= 0.20
     Davidson diagonalization with overlap
     ethr =  7.03E-05,  avg # of iterations =  1.1

     negative rho (up, down):  5.759E-04 3.967E-02

     total cpu time spent up to now is     3184.9 secs

     total energy              =  -21096.23680953 Ry
     Harris-Foulkes estimate   =  -21096.27298572 Ry
     estimated scf accuracy    <       0.38098285 Ry

     total magnetization       =   152.11 Bohr mag/cell
     absolute magnetization    =   156.46 Bohr mag/cell

     iteration # 12     ecut=    60.00 Ry     beta= 0.20
     Davidson diagonalization with overlap
     ethr =  3.69E-05,  avg # of iterations =  6.0

     negative rho (up, down):  8.798E-04 3.924E-02

     total cpu time spent up to now is     3372.9 secs

     total energy              =  -21096.26074015 Ry
     Harris-Foulkes estimate   =  -21096.27661601 Ry
     estimated scf accuracy    <       0.31621370 Ry

     total magnetization       =   156.20 Bohr mag/cell
     absolute magnetization    =   160.67 Bohr mag/cell

     iteration # 13     ecut=    60.00 Ry     beta= 0.20
     Davidson diagonalization with overlap
     c_bands:  1 eigenvalues not converged
     ethr =  3.06E-05,  avg # of iterations =  7.0

     negative rho (up, down):  1.674E-03 3.935E-02

     total cpu time spent up to now is     3679.6 secs

     total energy              =  -21096.29479402 Ry
     Harris-Foulkes estimate   =  -21096.29412701 Ry
     estimated scf accuracy    <       0.37949159 Ry

     total magnetization       =   159.85 Bohr mag/cell
     absolute magnetization    =   164.57 Bohr mag/cell

     iteration # 14     ecut=    60.00 Ry     beta= 0.20
     Davidson diagonalization with overlap
     ethr =  3.06E-05,  avg # of iterations =  4.2

     negative rho (up, down):  1.606E-02 3.762E-02

     total cpu time spent up to now is     3849.2 secs

     total energy              =  -21096.30191059 Ry
     Harris-Foulkes estimate   =  -21096.30833838 Ry
     estimated scf accuracy    <       0.53611860 Ry

     total magnetization       =   161.37 Bohr mag/cell
     absolute magnetization    =   166.17 Bohr mag/cell

     iteration # 15     ecut=    60.00 Ry     beta= 0.20
     Davidson diagonalization with overlap
     ethr =  3.06E-05,  avg # of iterations =  4.5

     negative rho (up, down):  5.849E-02 4.107E-02

     total cpu time spent up to now is     4016.5 secs

     total energy              =  -21096.28799557 Ry
     Harris-Foulkes estimate   =  -21096.31521598 Ry
     estimated scf accuracy    <       0.38331919 Ry

     total magnetization       =   162.15 Bohr mag/cell
     absolute magnetization    =   166.99 Bohr mag/cell

     iteration # 16     ecut=    60.00 Ry     beta= 0.20
     Davidson diagonalization with overlap
     ethr =  3.06E-05,  avg # of iterations =  4.3

     negative rho (up, down):  4.236E-02 3.482E-02

     total cpu time spent up to now is     4181.5 secs

     total energy              =  -21096.28325046 Ry
     Harris-Foulkes estimate   =  -21096.29863881 Ry
     estimated scf accuracy    <       0.24556658 Ry

     total magnetization       =   162.67 Bohr mag/cell
     absolute magnetization    =   167.57 Bohr mag/cell

     iteration # 17     ecut=    60.00 Ry     beta= 0.20
     Davidson diagonalization with overlap
     ethr =  2.38E-05,  avg # of iterations =  2.5

     negative rho (up, down):  3.542E-02 2.469E-02

     total cpu time spent up to now is     4343.2 secs

     total energy              =  -21096.26198450 Ry
     Harris-Foulkes estimate   =  -21096.28972452 Ry
     estimated scf accuracy    <       0.19341993 Ry

     total magnetization       =   162.17 Bohr mag/cell
     absolute magnetization    =   167.15 Bohr mag/cell

     iteration # 18     ecut=    60.00 Ry     beta= 0.20
     Davidson diagonalization with overlap
     ethr =  1.87E-05,  avg # of iterations = 39.8

     negative rho (up, down):  2.197E-03 2.366E-02

     total cpu time spent up to now is     6513.2 secs

     total energy              =  -21096.33988976 Ry
     Harris-Foulkes estimate   =  -21096.35802553 Ry
     estimated scf accuracy    <       0.47836470 Ry

     total magnetization       =   160.75 Bohr mag/cell
     absolute magnetization    =   169.34 Bohr mag/cell

     iteration # 19     ecut=    60.00 Ry     beta= 0.20
     Davidson diagonalization with overlap
     ethr =  1.87E-05,  avg # of iterations =  4.7

     negative rho (up, down):  1.729E-03 4.981E-02

     total cpu time spent up to now is     6781.5 secs

     total energy              =  -21096.34695447 Ry
     Harris-Foulkes estimate   =  -21096.34387944 Ry
     estimated scf accuracy    <       0.33949843 Ry

     total magnetization       =   160.16 Bohr mag/cell
     absolute magnetization    =   168.57 Bohr mag/cell

     iteration # 20     ecut=    60.00 Ry     beta= 0.20
     Davidson diagonalization with overlap
     ethr =  1.87E-05,  avg # of iterations =  1.0

     negative rho (up, down):  3.409E-03 1.796E-01

     total cpu time spent up to now is     6911.4 secs

     total energy              =  -21096.31576817 Ry
     Harris-Foulkes estimate   =  -21096.34925775 Ry
     estimated scf accuracy    <       0.38634231 Ry

     total magnetization       =   160.10 Bohr mag/cell
     absolute magnetization    =   168.74 Bohr mag/cell

     iteration # 21     ecut=    60.00 Ry     beta= 0.20
     Davidson diagonalization with overlap
     ethr =  1.87E-05,  avg # of iterations =  1.8

     negative rho (up, down):  9.617E-03 2.000E-01

     total cpu time spent up to now is     7070.0 secs

     total energy              =  -21096.30327106 Ry
     Harris-Foulkes estimate   =  -21096.32361415 Ry
     estimated scf accuracy    <       0.11045396 Ry

     total magnetization       =   160.47 Bohr mag/cell
     absolute magnetization    =   168.22 Bohr mag/cell

     iteration # 22     ecut=    60.00 Ry     beta= 0.20
     Davidson diagonalization with overlap
     ethr =  1.07E-05,  avg # of iterations =  3.6

     negative rho (up, down):  2.495E-02 2.104E-01

     total cpu time spent up to now is     7263.4 secs

     total energy              =  -21096.29820332 Ry
     Harris-Foulkes estimate   =  -21096.30810062 Ry
     estimated scf accuracy    <       0.03006120 Ry

     total magnetization       =   160.79 Bohr mag/cell
     absolute magnetization    =   168.08 Bohr mag/cell

     iteration # 23     ecut=    60.00 Ry     beta= 0.20
     Davidson diagonalization with overlap
     c_bands:  1 eigenvalues not converged
     ethr =  2.91E-06,  avg # of iterations = 24.5

     negative rho (up, down):  1.551E-02 1.964E-01

     total cpu time spent up to now is     8624.8 secs

     total energy              =  -21096.32701020 Ry
     Harris-Foulkes estimate   =  -21096.32196530 Ry
     estimated scf accuracy    <       0.02289466 Ry

     total magnetization       =   161.27 Bohr mag/cell
     absolute magnetization    =   168.43 Bohr mag/cell

     iteration # 24     ecut=    60.00 Ry     beta= 0.20
     Davidson diagonalization with overlap
     c_bands:  2 eigenvalues not converged
     ethr =  2.22E-06,  avg # of iterations = 11.4

     negative rho (up, down):  1.749E-02 1.866E-01

     total cpu time spent up to now is     9080.0 secs

     total energy              =  -21096.33368434 Ry
     Harris-Foulkes estimate   =  -21096.33018531 Ry
     estimated scf accuracy    <       0.02604505 Ry

     total magnetization       =   161.04 Bohr mag/cell
     absolute magnetization    =   169.00 Bohr mag/cell

     iteration # 25     ecut=    60.00 Ry     beta= 0.20
     Davidson diagonalization with overlap
     c_bands:  5 eigenvalues not converged
     ethr =  2.22E-06,  avg # of iterations =  7.5

     negative rho (up, down):  5.490E-02 2.054E-01

     total cpu time spent up to now is     9327.4 secs

     total energy              =  -21096.31972043 Ry
     Harris-Foulkes estimate   =  -21096.33438238 Ry
     estimated scf accuracy    <       0.02219924 Ry

     total magnetization       =   160.95 Bohr mag/cell
     absolute magnetization    =   168.93 Bohr mag/cell

     iteration # 26     ecut=    60.00 Ry     beta= 0.20
     Davidson diagonalization with overlap
     c_bands:  2 eigenvalues not converged
     ethr =  2.15E-06,  avg # of iterations = 12.8

     negative rho (up, down):  5.362E-02 1.815E-01

     total cpu time spent up to now is     9672.9 secs

     total energy              =  -21096.35058450 Ry
     Harris-Foulkes estimate   =  -21096.34765114 Ry
     estimated scf accuracy    <       0.16177505 Ry

     total magnetization       =   161.57 Bohr mag/cell
     absolute magnetization    =   168.20 Bohr mag/cell

     iteration # 27     ecut=    60.00 Ry     beta= 0.20
     Davidson diagonalization with overlap
     c_bands:  2 eigenvalues not converged
     ethr =  2.15E-06,  avg # of iterations =  9.1

     negative rho (up, down):  3.473E-02 1.176E-01

     total cpu time spent up to now is     9900.9 secs

     total energy              =  -21096.34414309 Ry
     Harris-Foulkes estimate   =  -21096.35101953 Ry
     estimated scf accuracy    <       0.15254490 Ry

     total magnetization       =   161.76 Bohr mag/cell
     absolute magnetization    =   168.40 Bohr mag/cell

     iteration # 28     ecut=    60.00 Ry     beta= 0.20
     Davidson diagonalization with overlap
     c_bands:  1 eigenvalues not converged
     ethr =  2.15E-06,  avg # of iterations =  6.1

     negative rho (up, down):  2.979E-02 9.080E-02

     total cpu time spent up to now is    10127.3 secs

     total energy              =  -21096.34402006 Ry
     Harris-Foulkes estimate   =  -21096.34455330 Ry
     estimated scf accuracy    <       0.10808602 Ry

     total magnetization       =   161.87 Bohr mag/cell
     absolute magnetization    =   168.59 Bohr mag/cell

     iteration # 29     ecut=    60.00 Ry     beta= 0.20
     Davidson diagonalization with overlap
     ethr =  2.15E-06,  avg # of iterations =  5.0

     negative rho (up, down):  2.707E-02 6.170E-02

     total cpu time spent up to now is    10364.4 secs

     total energy              =  -21096.34827783 Ry
     Harris-Foulkes estimate   =  -21096.34444487 Ry
     estimated scf accuracy    <       0.06475676 Ry

     total magnetization       =   161.73 Bohr mag/cell
     absolute magnetization    =   168.68 Bohr mag/cell

     iteration # 30     ecut=    60.00 Ry     beta= 0.20
     Davidson diagonalization with overlap
     ethr =  2.15E-06,  avg # of iterations =  2.9

     negative rho (up, down):  2.676E-02 6.265E-02

     total cpu time spent up to now is    10583.0 secs

     total energy              =  -21096.34939511 Ry
     Harris-Foulkes estimate   =  -21096.34849789 Ry
     estimated scf accuracy    <       0.08603622 Ry

     total magnetization       =   161.69 Bohr mag/cell
     absolute magnetization    =   168.50 Bohr mag/cell

     iteration # 31     ecut=    60.00 Ry     beta= 0.20
     Davidson diagonalization with overlap
     ethr =  2.15E-06,  avg # of iterations =  1.0

     negative rho (up, down):  2.955E-02 5.105E-02

     total cpu time spent up to now is    10715.5 secs

     total energy              =  -21096.34317699 Ry
     Harris-Foulkes estimate   =  -21096.34951268 Ry
     estimated scf accuracy    <       0.09879027 Ry

     total magnetization       =   161.69 Bohr mag/cell
     absolute magnetization    =   168.43 Bohr mag/cell

     iteration # 32     ecut=    60.00 Ry     beta= 0.20
     Davidson diagonalization with overlap
     ethr =  2.15E-06,  avg # of iterations =  1.7

     negative rho (up, down):  2.797E-02 8.588E-02

     total cpu time spent up to now is    10875.1 secs

     total energy              =  -21096.33572985 Ry
     Harris-Foulkes estimate   =  -21096.34476146 Ry
     estimated scf accuracy    <       0.02175552 Ry

     total magnetization       =   161.25 Bohr mag/cell
     absolute magnetization    =   168.57 Bohr mag/cell

     iteration # 33     ecut=    60.00 Ry     beta= 0.20
     Davidson diagonalization with overlap
     ethr =  2.11E-06,  avg # of iterations =  3.6

     negative rho (up, down):  2.549E-02 7.491E-02

     total cpu time spent up to now is    11079.7 secs

     total energy              =  -21096.33826055 Ry
     Harris-Foulkes estimate   =  -21096.33742698 Ry
     estimated scf accuracy    <       0.00129947 Ry

     total magnetization       =   160.82 Bohr mag/cell
     absolute magnetization    =   168.65 Bohr mag/cell

     iteration # 34     ecut=    60.00 Ry     beta= 0.20
     Davidson diagonalization with overlap
     c_bands:  3 eigenvalues not converged
     ethr =  1.26E-07,  avg # of iterations = 14.0

     negative rho (up, down):  2.483E-02 8.155E-02

     total cpu time spent up to now is    12218.0 secs

     total energy              =  -21096.33816766 Ry
     Harris-Foulkes estimate   =  -21096.33900918 Ry
     estimated scf accuracy    <       0.00117075 Ry

     total magnetization       =   160.87 Bohr mag/cell
     absolute magnetization    =   168.68 Bohr mag/cell

     iteration # 35     ecut=    60.00 Ry     beta= 0.20
     Davidson diagonalization with overlap
     c_bands:  1 eigenvalues not converged
     ethr =  1.13E-07,  avg # of iterations =  5.2

     negative rho (up, down):  2.458E-02 1.026E-01

     total cpu time spent up to now is    12500.8 secs

     total energy              =  -21096.33378424 Ry
     Harris-Foulkes estimate   =  -21096.33853125 Ry
     estimated scf accuracy    <       0.00416645 Ry

     total magnetization       =   161.00 Bohr mag/cell
     absolute magnetization    =   168.57 Bohr mag/cell

     iteration # 36     ecut=    60.00 Ry     beta= 0.20
     Davidson diagonalization with overlap
     ethr =  1.13E-07,  avg # of iterations =  7.3

     negative rho (up, down):  2.032E-02 9.516E-02

     total cpu time spent up to now is    12710.7 secs

     total energy              =  -21096.33402969 Ry
     Harris-Foulkes estimate   =  -21096.33473120 Ry
     estimated scf accuracy    <       0.00834735 Ry

     total magnetization       =   160.69 Bohr mag/cell
     absolute magnetization    =   168.73 Bohr mag/cell

     iteration # 37     ecut=    60.00 Ry     beta= 0.20
     Davidson diagonalization with overlap
     ethr =  1.13E-07,  avg # of iterations =  3.9

     negative rho (up, down):  2.077E-02 7.453E-02

     total cpu time spent up to now is    12887.7 secs

     total energy              =  -21096.33250472 Ry
     Harris-Foulkes estimate   =  -21096.33476593 Ry
     estimated scf accuracy    <       0.00138237 Ry

     total magnetization       =   160.93 Bohr mag/cell
     absolute magnetization    =   168.57 Bohr mag/cell

     iteration # 38     ecut=    60.00 Ry     beta= 0.20
     Davidson diagonalization with overlap
     ethr =  1.13E-07,  avg # of iterations =  8.3

     negative rho (up, down):  1.862E-02 8.935E-02

     total cpu time spent up to now is    13232.4 secs

     total energy              =  -21096.33096318 Ry
     Harris-Foulkes estimate   =  -21096.33383617 Ry
     estimated scf accuracy    <       0.02326321 Ry

     total magnetization       =   160.65 Bohr mag/cell
     absolute magnetization    =   168.89 Bohr mag/cell

     iteration # 39     ecut=    60.00 Ry     beta= 0.20
     Davidson diagonalization with overlap
     ethr =  1.13E-07,  avg # of iterations =  3.8

     negative rho (up, down):  1.484E-02 1.122E-01

     total cpu time spent up to now is    13437.5 secs

     total energy              =  -21096.32923111 Ry
     Harris-Foulkes estimate   =  -21096.33205244 Ry
     estimated scf accuracy    <       0.00022056 Ry

     total magnetization       =   160.92 Bohr mag/cell
     absolute magnetization    =   168.64 Bohr mag/cell

     iteration # 40     ecut=    60.00 Ry     beta= 0.20
     Davidson diagonalization with overlap
     ethr =  2.14E-08,  avg # of iterations = 10.6

     negative rho (up, down):  1.655E-02 9.958E-02

     total cpu time spent up to now is    13856.2 secs

     total energy              =  -21096.33061643 Ry
     Harris-Foulkes estimate   =  -21096.32960432 Ry
     estimated scf accuracy    <       0.00646705 Ry

     total magnetization       =   160.77 Bohr mag/cell
     absolute magnetization    =   168.78 Bohr mag/cell

     iteration # 41     ecut=    60.00 Ry     beta= 0.20
     Davidson diagonalization with overlap
     ethr =  2.14E-08,  avg # of iterations =  5.5

     negative rho (up, down):  1.512E-02 1.118E-01

     total cpu time spent up to now is    14104.5 secs

     total energy              =  -21096.32798743 Ry
     Harris-Foulkes estimate   =  -21096.33069260 Ry
     estimated scf accuracy    <       0.01563878 Ry

     total magnetization       =   160.70 Bohr mag/cell
     absolute magnetization    =   168.86 Bohr mag/cell

     iteration # 42     ecut=    60.00 Ry     beta= 0.20
     Davidson diagonalization with overlap
     ethr =  2.14E-08,  avg # of iterations =  8.3

     negative rho (up, down):  1.411E-02 1.145E-01

     total cpu time spent up to now is    14366.5 secs

     total energy              =  -21096.32666863 Ry
     Harris-Foulkes estimate   =  -21096.32806020 Ry
     estimated scf accuracy    <       0.00669228 Ry

     total magnetization       =   160.80 Bohr mag/cell
     absolute magnetization    =   168.82 Bohr mag/cell

     iteration # 43     ecut=    60.00 Ry     beta= 0.20
     Davidson diagonalization with overlap
     ethr =  2.14E-08,  avg # of iterations =  3.4

     negative rho (up, down):  1.353E-02 1.146E-01

     total cpu time spent up to now is    14551.0 secs

     total energy              =  -21096.32559731 Ry
     Harris-Foulkes estimate   =  -21096.32680702 Ry
     estimated scf accuracy    <       0.00064092 Ry

     total magnetization       =   160.88 Bohr mag/cell
     absolute magnetization    =   168.71 Bohr mag/cell

     iteration # 44     ecut=    60.00 Ry     beta= 0.20
     Davidson diagonalization with overlap
     ethr =  2.14E-08,  avg # of iterations =  3.7

     negative rho (up, down):  1.320E-02 1.131E-01

     total cpu time spent up to now is    14741.2 secs

     total energy              =  -21096.32584121 Ry
     Harris-Foulkes estimate   =  -21096.32560540 Ry
     estimated scf accuracy    <       0.00047393 Ry

     total magnetization       =   160.86 Bohr mag/cell
     absolute magnetization    =   168.68 Bohr mag/cell

     iteration # 45     ecut=    60.00 Ry     beta= 0.20
     Davidson diagonalization with overlap
     ethr =  2.14E-08,  avg # of iterations =  1.9

     negative rho (up, down):  1.344E-02 1.167E-01

     total cpu time spent up to now is    14916.9 secs

     total energy              =  -21096.32565100 Ry
     Harris-Foulkes estimate   =  -21096.32585071 Ry
     estimated scf accuracy    <       0.00010377 Ry

     total magnetization       =   160.88 Bohr mag/cell
     absolute magnetization    =   168.66 Bohr mag/cell

     iteration # 46     ecut=    60.00 Ry     beta= 0.20
     Davidson diagonalization with overlap
     ethr =  1.01E-08,  avg # of iterations =  5.2

     negative rho (up, down):  1.242E-02 1.250E-01

     total cpu time spent up to now is    15105.8 secs

     total energy              =  -21096.32538035 Ry
     Harris-Foulkes estimate   =  -21096.32565456 Ry
     estimated scf accuracy    <       0.00013749 Ry

     total magnetization       =   160.87 Bohr mag/cell
     absolute magnetization    =   168.65 Bohr mag/cell

     iteration # 47     ecut=    60.00 Ry     beta= 0.20
     Davidson diagonalization with overlap
     ethr =  1.01E-08,  avg # of iterations =  1.9

     negative rho (up, down):  1.171E-02 1.269E-01

     total cpu time spent up to now is    15246.6 secs

     total energy              =  -21096.32507152 Ry
     Harris-Foulkes estimate   =  -21096.32539556 Ry
     estimated scf accuracy    <       0.00003494 Ry

     total magnetization       =   160.89 Bohr mag/cell
     absolute magnetization    =   168.62 Bohr mag/cell

     iteration # 48     ecut=    60.00 Ry     beta= 0.20
     Davidson diagonalization with overlap
     ethr =  3.39E-09,  avg # of iterations = 10.3

     negative rho (up, down):  1.195E-02 1.258E-01

     total cpu time spent up to now is    15817.3 secs

     total energy              =  -21096.32529041 Ry
     Harris-Foulkes estimate   =  -21096.32509604 Ry
     estimated scf accuracy    <       0.00001753 Ry

     total magnetization       =   160.88 Bohr mag/cell
     absolute magnetization    =   168.61 Bohr mag/cell

     iteration # 49     ecut=    60.00 Ry     beta= 0.20
     Davidson diagonalization with overlap
     ethr =  1.70E-09,  avg # of iterations =  4.3

     negative rho (up, down):  1.150E-02 1.268E-01

     total cpu time spent up to now is    16118.6 secs

     total energy              =  -21096.32512726 Ry
     Harris-Foulkes estimate   =  -21096.32529300 Ry
     estimated scf accuracy    <       0.00001165 Ry

     total magnetization       =   160.88 Bohr mag/cell
     absolute magnetization    =   168.62 Bohr mag/cell

     iteration # 50     ecut=    60.00 Ry     beta= 0.20
     Davidson diagonalization with overlap
     ethr =  1.13E-09,  avg # of iterations =  3.4

     negative rho (up, down):  1.150E-02 1.271E-01

     total cpu time spent up to now is    16307.4 secs

     total energy              =  -21096.32506671 Ry
     Harris-Foulkes estimate   =  -21096.32512779 Ry
     estimated scf accuracy    <       0.00002568 Ry

     total magnetization       =   160.88 Bohr mag/cell
     absolute magnetization    =   168.61 Bohr mag/cell

     iteration # 51     ecut=    60.00 Ry     beta= 0.20
     Davidson diagonalization with overlap
     ethr =  1.13E-09,  avg # of iterations =  1.0

     negative rho (up, down):  1.152E-02 1.284E-01

     total cpu time spent up to now is    16433.9 secs

     total energy              =  -21096.32493480 Ry
     Harris-Foulkes estimate   =  -21096.32506692 Ry
     estimated scf accuracy    <       0.00002644 Ry

     total magnetization       =   160.88 Bohr mag/cell
     absolute magnetization    =   168.61 Bohr mag/cell

     iteration # 52     ecut=    60.00 Ry     beta= 0.20
     Davidson diagonalization with overlap
     ethr =  1.13E-09,  avg # of iterations =  2.2

     negative rho (up, down):  1.152E-02 1.279E-01

     total cpu time spent up to now is    16586.7 secs

     total energy              =  -21096.32497039 Ry
     Harris-Foulkes estimate   =  -21096.32493503 Ry
     estimated scf accuracy    <       0.00002353 Ry

     total magnetization       =   160.89 Bohr mag/cell
     absolute magnetization    =   168.62 Bohr mag/cell

     iteration # 53     ecut=    60.00 Ry     beta= 0.20
     Davidson diagonalization with overlap
     ethr =  1.13E-09,  avg # of iterations =  1.4

     negative rho (up, down):  1.182E-02 1.271E-01

     total cpu time spent up to now is    16724.9 secs

     total energy              =  -21096.32485908 Ry
     Harris-Foulkes estimate   =  -21096.32497052 Ry
     estimated scf accuracy    <       0.00002152 Ry

     total magnetization       =   160.88 Bohr mag/cell
     absolute magnetization    =   168.62 Bohr mag/cell

     iteration # 54     ecut=    60.00 Ry     beta= 0.20
     Davidson diagonalization with overlap
     ethr =  1.13E-09,  avg # of iterations =  1.4

     negative rho (up, down):  1.200E-02 1.275E-01

     total cpu time spent up to now is    16861.2 secs

     total energy              =  -21096.32489583 Ry
     Harris-Foulkes estimate   =  -21096.32485942 Ry
     estimated scf accuracy    <       0.00000956 Ry

     total magnetization       =   160.88 Bohr mag/cell
     absolute magnetization    =   168.62 Bohr mag/cell

     iteration # 55     ecut=    60.00 Ry     beta= 0.20
     Davidson diagonalization with overlap
     ethr =  9.26E-10,  avg # of iterations =  1.4

     negative rho (up, down):  1.190E-02 1.269E-01

     total cpu time spent up to now is    16998.7 secs

     total energy              =  -21096.32517313 Ry
     Harris-Foulkes estimate   =  -21096.32489598 Ry
     estimated scf accuracy    <       0.00000854 Ry

     total magnetization       =   160.88 Bohr mag/cell
     absolute magnetization    =   168.62 Bohr mag/cell

     iteration # 56     ecut=    60.00 Ry     beta= 0.20
     Davidson diagonalization with overlap
     ethr =  8.28E-10,  avg # of iterations =  1.4

     negative rho (up, down):  1.203E-02 1.251E-01

     total cpu time spent up to now is    17133.3 secs

     total energy              =  -21096.32520775 Ry
     Harris-Foulkes estimate   =  -21096.32517326 Ry
     estimated scf accuracy    <       0.00000713 Ry

     total magnetization       =   160.88 Bohr mag/cell
     absolute magnetization    =   168.62 Bohr mag/cell

     iteration # 57     ecut=    60.00 Ry     beta= 0.20
     Davidson diagonalization with overlap
     ethr =  6.91E-10,  avg # of iterations =  3.3

     negative rho (up, down):  1.222E-02 1.236E-01

     total cpu time spent up to now is    17300.8 secs

     total energy              =  -21096.32531125 Ry
     Harris-Foulkes estimate   =  -21096.32520791 Ry
     estimated scf accuracy    <       0.00000413 Ry

     total magnetization       =   160.88 Bohr mag/cell
     absolute magnetization    =   168.63 Bohr mag/cell

     iteration # 58     ecut=    60.00 Ry     beta= 0.20
     Davidson diagonalization with overlap
     ethr =  4.00E-10,  avg # of iterations =  6.3

     negative rho (up, down):  1.232E-02 1.204E-01

     total cpu time spent up to now is    17792.0 secs

     total energy              =  -21096.32553462 Ry
     Harris-Foulkes estimate   =  -21096.32531168 Ry
     estimated scf accuracy    <       0.00000287 Ry

     total magnetization       =   160.89 Bohr mag/cell
     absolute magnetization    =   168.63 Bohr mag/cell

     iteration # 59     ecut=    60.00 Ry     beta= 0.20
     Davidson diagonalization with overlap
     c_bands:  1 eigenvalues not converged
     ethr =  2.78E-10,  avg # of iterations = 11.8

     negative rho (up, down):  1.157E-02 1.218E-01

     total cpu time spent up to now is    18387.2 secs

     total energy              =  -21096.32526708 Ry
     Harris-Foulkes estimate   =  -21096.32553551 Ry
     estimated scf accuracy    <       0.00000244 Ry

     total magnetization       =   160.88 Bohr mag/cell
     absolute magnetization    =   168.63 Bohr mag/cell

     iteration # 60     ecut=    60.00 Ry     beta= 0.20
     Davidson diagonalization with overlap
     ethr =  2.36E-10,  avg # of iterations =  8.9

     negative rho (up, down):  1.119E-02 1.214E-01

     total cpu time spent up to now is    18639.3 secs

     total energy              =  -21096.32539987 Ry
     Harris-Foulkes estimate   =  -21096.32526739 Ry
     estimated scf accuracy    <       0.00000082 Ry

     total magnetization       =   160.88 Bohr mag/cell
     absolute magnetization    =   168.63 Bohr mag/cell

     iteration # 61     ecut=    60.00 Ry     beta= 0.20
     Davidson diagonalization with overlap
     ethr =  7.90E-11,  avg # of iterations = 11.3

     negative rho (up, down):  1.123E-02 1.215E-01

     total cpu time spent up to now is    19474.0 secs

     total energy              =  -21096.32542982 Ry
     Harris-Foulkes estimate   =  -21096.32540042 Ry
     estimated scf accuracy    <       0.00000055 Ry

     total magnetization       =   160.87 Bohr mag/cell
     absolute magnetization    =   168.62 Bohr mag/cell

     iteration # 62     ecut=    60.00 Ry     beta= 0.20
     Davidson diagonalization with overlap
     ethr =  5.32E-11,  avg # of iterations =  3.2

     negative rho (up, down):  1.115E-02 1.224E-01

     total cpu time spent up to now is    19633.3 secs

     total energy              =  -21096.32540333 Ry
     Harris-Foulkes estimate   =  -21096.32542984 Ry
     estimated scf accuracy    <       0.00000051 Ry

     total magnetization       =   160.87 Bohr mag/cell
     absolute magnetization    =   168.62 Bohr mag/cell

     iteration # 63     ecut=    60.00 Ry     beta= 0.20
     Davidson diagonalization with overlap
     ethr =  4.92E-11,  avg # of iterations =  6.3

     negative rho (up, down):  1.110E-02 1.229E-01

     total cpu time spent up to now is    19856.6 secs

     total energy              =  -21096.32538250 Ry
     Harris-Foulkes estimate   =  -21096.32540335 Ry
     estimated scf accuracy    <       0.00000015 Ry

     total magnetization       =   160.87 Bohr mag/cell
     absolute magnetization    =   168.61 Bohr mag/cell

     iteration # 64     ecut=    60.00 Ry     beta= 0.20
     Davidson diagonalization with overlap
     ethr =  1.48E-11,  avg # of iterations = 12.7

     negative rho (up, down):  1.103E-02 1.230E-01

     total cpu time spent up to now is    20397.7 secs

     total energy              =  -21096.32535958 Ry
     Harris-Foulkes estimate   =  -21096.32538256 Ry
     estimated scf accuracy    <       0.00000008 Ry

     total magnetization       =   160.87 Bohr mag/cell
     absolute magnetization    =   168.61 Bohr mag/cell

     iteration # 65     ecut=    60.00 Ry     beta= 0.20
     Davidson diagonalization with overlap
     ethr =  7.98E-12,  avg # of iterations = 10.1

     negative rho (up, down):  1.102E-02 1.231E-01

     total cpu time spent up to now is    21081.7 secs

     total energy              =  -21096.32536599 Ry
     Harris-Foulkes estimate   =  -21096.32535960 Ry
     estimated scf accuracy    <       0.00000007 Ry

     total magnetization       =   160.87 Bohr mag/cell
     absolute magnetization    =   168.61 Bohr mag/cell

     iteration # 66     ecut=    60.00 Ry     beta= 0.20
     Davidson diagonalization with overlap
     ethr =  6.82E-12,  avg # of iterations =  6.1

     negative rho (up, down):  1.101E-02 1.230E-01

     total cpu time spent up to now is    21294.8 secs

     total energy              =  -21096.32538669 Ry
     Harris-Foulkes estimate   =  -21096.32536598 Ry
     estimated scf accuracy    <       0.00000005 Ry

     total magnetization       =   160.87 Bohr mag/cell
     absolute magnetization    =   168.61 Bohr mag/cell

     iteration # 67     ecut=    60.00 Ry     beta= 0.20
     Davidson diagonalization with overlap
     ethr =  4.49E-12,  avg # of iterations = 12.6

     negative rho (up, down):  1.098E-02 1.230E-01

     total cpu time spent up to now is    22037.9 secs

     total energy              =  -21096.32537566 Ry
     Harris-Foulkes estimate   =  -21096.32538672 Ry
     estimated scf accuracy    <       0.00000002 Ry

     total magnetization       =   160.87 Bohr mag/cell
     absolute magnetization    =   168.61 Bohr mag/cell

     iteration # 68     ecut=    60.00 Ry     beta= 0.20
     Davidson diagonalization with overlap
     ethr =  1.54E-12,  avg # of iterations = 12.1

     negative rho (up, down):  1.098E-02 1.230E-01

     Magnetic moment per site:
     atom:    1    charge:   12.6192    magn:    2.3568    constr:    0.0000
     atom:    2    charge:   12.6078    magn:    2.2140    constr:    0.0000
     atom:    3    charge:   12.6194    magn:    2.3605    constr:    0.0000
     atom:    4    charge:   12.6088    magn:    2.1837    constr:    0.0000
     atom:    5    charge:   12.6106    magn:    2.1844    constr:    0.0000
     atom:    6    charge:   12.6227    magn:    2.2384    constr:    0.0000
     atom:    7    charge:   12.6137    magn:    2.1282    constr:    0.0000
     atom:    8    charge:   12.6223    magn:    2.3677    constr:    0.0000
     atom:    9    charge:   12.6195    magn:    2.3517    constr:    0.0000
     atom:   10    charge:   12.6192    magn:    2.3586    constr:    0.0000
     atom:   11    charge:   12.6092    magn:    2.1847    constr:    0.0000
     atom:   12    charge:   12.6090    magn:    2.1852    constr:    0.0000
     atom:   13    charge:   12.6112    magn:    2.1742    constr:    0.0000
     atom:   14    charge:   12.6094    magn:    2.1451    constr:    0.0000
     atom:   15    charge:   12.6218    magn:    2.3758    constr:    0.0000
     atom:   16    charge:   12.6214    magn:    2.2778    constr:    0.0000
     atom:   17    charge:   12.6192    magn:    2.3605    constr:    0.0000
     atom:   18    charge:   12.6087    magn:    2.1838    constr:    0.0000
     atom:   19    charge:   12.6193    magn:    2.3611    constr:    0.0000
     atom:   20    charge:   12.6084    magn:    2.2335    constr:    0.0000
     atom:   21    charge:   12.6137    magn:    2.1280    constr:    0.0000
     atom:   22    charge:   12.6222    magn:    2.3673    constr:    0.0000
     atom:   23    charge:   12.6137    magn:    2.1289    constr:    0.0000
     atom:   24    charge:   12.6107    magn:    2.0574    constr:    0.0000
     atom:   25    charge:   12.6197    magn:    2.3723    constr:    0.0000
     atom:   26    charge:   12.6198    magn:    2.3582    constr:    0.0000
     atom:   27    charge:   12.6090    magn:    2.1866    constr:    0.0000
     atom:   28    charge:   12.6090    magn:    2.1827    constr:    0.0000
     atom:   29    charge:   12.6068    magn:    2.2855    constr:    0.0000
     atom:   30    charge:   12.6048    magn:    2.1121    constr:    0.0000
     atom:   31    charge:   12.6333    magn:    2.3248    constr:    0.0000
     atom:   32    charge:   12.6215    magn:    2.3722    constr:    0.0000
     atom:   33    charge:   12.6192    magn:    2.3570    constr:    0.0000
     atom:   34    charge:   12.6087    magn:    2.1800    constr:    0.0000
     atom:   35    charge:   12.6191    magn:    2.3568    constr:    0.0000
     atom:   36    charge:   12.6082    magn:    2.2141    constr:    0.0000
     atom:   37    charge:   12.6108    magn:    2.1729    constr:    0.0000
     atom:   38    charge:   12.6235    magn:    2.3523    constr:    0.0000
     atom:   39    charge:   12.6107    magn:    2.1846    constr:    0.0000
     atom:   40    charge:   12.6227    magn:    2.2384    constr:    0.0000
     atom:   41    charge:   12.6191    magn:    2.3748    constr:    0.0000
     atom:   42    charge:   12.6203    magn:    2.3583    constr:    0.0000
     atom:   43    charge:   12.6085    magn:    2.1879    constr:    0.0000
     atom:   44    charge:   12.6089    magn:    2.1827    constr:    0.0000
     atom:   45    charge:   12.6123    magn:    2.1820    constr:    0.0000
     atom:   46    charge:   12.6052    magn:    2.1124    constr:    0.0000
     atom:   47    charge:   12.6253    magn:    2.4005    constr:    0.0000
     atom:   48    charge:   12.6215    magn:    2.3725    constr:    0.0000
     atom:   49    charge:   12.6195    magn:    2.3612    constr:    0.0000
     atom:   50    charge:   12.6090    magn:    2.2337    constr:    0.0000
     atom:   51    charge:   12.6193    magn:    2.3570    constr:    0.0000
     atom:   52    charge:   12.6087    magn:    2.1799    constr:    0.0000
     atom:   53    charge:   12.6137    magn:    2.1290    constr:    0.0000
     atom:   54    charge:   12.6105    magn:    2.0573    constr:    0.0000
     atom:   55    charge:   12.6108    magn:    2.1726    constr:    0.0000
     atom:   56    charge:   12.6236    magn:    2.3528    constr:    0.0000
     atom:   57    charge:   12.6195    magn:    2.3517    constr:    0.0000
     atom:   58    charge:   12.6191    magn:    2.3593    constr:    0.0000
     atom:   59    charge:   12.6092    magn:    2.1847    constr:    0.0000
     atom:   60    charge:   12.6091    magn:    2.1869    constr:    0.0000
     atom:   61    charge:   12.6111    magn:    2.1743    constr:    0.0000
     atom:   62    charge:   12.6096    magn:    2.1524    constr:    0.0000
     atom:   63    charge:   12.6217    magn:    2.3762    constr:    0.0000
     atom:   64    charge:   12.6327    magn:    2.3332    constr:    0.0000
     atom:   65    charge:    1.3553    magn:   -0.0027    constr:    0.0000
     atom:   66    charge:    0.4322    magn:    0.0082    constr:    0.0000
     atom:   67    charge:    0.4322    magn:    0.0082    constr:    0.0000
     atom:   68    charge:    0.3547    magn:   -0.0206    constr:    0.0000

     total cpu time spent up to now is    22747.4 secs

     End of self-consistent calculation

 ------ SPIN UP ------------


          k = 0.0000 0.0000 0.0000 (128403 PWs)   bands (ev):

  -100.2922-100.2836-100.2814-100.2756-100.2733-100.2673-100.2635-100.2602
  -100.2495-100.2460-100.2437-100.2425-100.2416-100.2396-100.2347-100.2345
  -100.2289-100.2287-100.2286-100.2284-100.2251-100.2226-100.2217-100.2188
  -100.2186-100.2160-100.2151-100.2130-100.2124-100.2110-100.2024-100.1980
  -100.1854-100.1354-100.1233-100.1189-100.1094-100.1094-100.1079-100.1071
  -100.0999-100.0976-100.0963-100.0903-100.0879-100.0853-100.0851-100.0837
  -100.0828-100.0803-100.0798-100.0783-100.0778-100.0762-100.0740-100.0722
  -100.0682-100.0639-100.0604-100.0546-100.0416-100.0405-100.0392-100.0315
   -66.4968 -66.4867 -66.4753 -66.4739 -66.4697 -66.4684 -66.4616 -66.4559
   -66.4532 -66.4504 -66.4411 -66.4359 -66.4335 -66.4300 -66.4272 -66.4265
   -66.4228 -66.4213 -66.4212 -66.4194 -66.4177 -66.4117 -66.4106 -66.4082
   -66.4065 -66.4054 -66.4046 -66.4015 -66.3993 -66.3979 -66.3978 -66.3962
   -66.3877 -66.3845 -66.3840 -66.3828 -66.3808 -66.3733 -66.3733 -66.3718
   -66.3634 -66.3587 -66.3492 -66.3482 -66.3466 -66.3449 -66.3214 -66.3059
   -66.3050 -66.3022 -66.2989 -66.2974 -66.2917 -66.2912 -66.2881 -66.2822
   -66.2821 -66.2801 -66.2783 -66.2771 -66.2724 -66.2701 -66.2693 -66.2689
   -66.2673 -66.2655 -66.2647 -66.2599 -66.2582 -66.2570 -66.2551 -66.2551
   -66.2510 -66.2488 -66.2462 -66.2398 -66.2374 -66.2240 -66.2227 -66.2222
   -66.2221 -66.2158 -66.2155 -66.2136 -66.2125 -66.2110 -66.2073 -66.2067
   -66.2061 -66.2058 -66.2039 -66.1997 -66.1995 -66.1986 -66.1968 -66.1943
   -66.1914 -66.1894 -66.1885 -66.1826 -66.1790 -66.1751 -66.1693 -66.1670
   -66.1663 -66.1651 -66.1633 -66.1581 -66.1575 -66.1567 -66.1531 -66.1516
   -66.1509 -66.1505 -66.1494 -66.1439 -66.1435 -66.1424 -66.1397 -66.1365
   -66.1355 -66.1348 -66.1324 -66.1302 -66.1289 -66.1287 -66.1252 -66.1250
   -66.1223 -66.1204 -66.1196 -66.1195 -66.1157 -66.1122 -66.1111 -66.1091
   -66.1080 -66.1038 -66.1013 -66.1011 -66.0960 -66.0956 -66.0914 -66.0895
   -66.0888 -66.0849 -66.0840 -66.0834 -66.0765 -66.0755 -66.0743 -66.0686
   -66.0659 -66.0645 -66.0580 -66.0558 -66.0544 -66.0534 -66.0521 -66.0507
   -66.0498 -66.0432 -66.0420 -66.0379 -66.0370 -66.0349 -66.0308 -66.0301
   -66.0285 -66.0280 -66.0255 -66.0161 -66.0128 -66.0110 -66.0086 -66.0027
   -66.0003 -65.9924 -65.9895 -65.9891 -65.9887 -65.9879 -65.9879 -65.9864
   -65.9857 -65.9848 -65.9813 -65.9810 -65.9799 -65.9744 -65.9741 -65.9730
   -29.1217 -20.2434 -20.0898 -19.1518 -18.9022 -18.3920 -18.3738 -18.3605
   -18.3388 -18.1138 -17.8860 -17.7987 -17.4417 -17.3702 -17.3633 -17.2729
   -17.1003 -16.9478 -16.9328 -16.8193 -16.7668 -16.7390 -16.7307 -16.7034
   -16.6886 -16.6330 -16.6000 -16.5991 -16.5511 -16.5069 -16.2964 -16.2960
   -16.2512 -16.2377 -16.1936 -16.1877 -16.1726 -16.1700 -16.1681 -16.1625
   -16.1556 -16.1547 -16.1439 -16.1409 -16.1347 -16.1296 -16.1291 -16.1171
   -16.1041 -16.0910 -16.0809 -16.0756 -16.0741 -16.0601 -16.0546 -16.0518
   -16.0211 -15.9571 -15.9507 -15.9435 -15.9061 -15.8997 -15.8787 -15.8754
   -15.8560 -15.8369 -15.7743 -15.5944 -15.5683 -15.5659 -15.5639 -15.5613
   -15.5491 -15.4594 -15.4440 -15.4146 -15.3983 -15.3849 -15.3818 -15.3805
   -15.3798 -15.3777 -15.3666 -15.3633 -15.3568 -15.3446 -15.3401 -15.3373
   -15.3290 -15.3270 -15.3235 -15.3094 -15.3073 -15.3017 -15.3009 -15.2916
   -15.2798 -15.2713 -15.2709 -15.2479 -15.2472 -15.2457 -15.2399 -15.2300
   -15.2295 -15.2152 -15.2044 -15.2004 -15.1842 -15.1826 -15.1764 -15.1494
   -15.1146 -15.1086 -15.0378 -15.0103 -15.0096 -14.9998 -14.9890 -14.9850
   -14.9617 -14.9162 -14.8623 -14.8097 -14.8082 -14.8072 -14.7956 -14.7945
   -14.7925 -14.7872 -14.7701 -14.7597 -14.7424 -14.7281 -14.7235 -14.7195
   -14.7118 -14.6860 -14.6749 -14.6744 -14.6722 -14.6697 -14.6640 -14.6634
   -14.6496 -14.6480 -14.6244 -14.5964 -14.5339 -14.5302 -14.5222 -14.4999
   -14.4998 -14.4993 -14.4967 -14.4911 -14.4871 -14.4614 -14.4508 -14.4230
   -14.4108 -14.4006 -14.3712 -14.3668 -14.3645 -14.3615 -14.3356 -14.3342
   -14.3253 -14.3172 -14.2904 -14.2894 -14.2745 -14.2702 -14.2683 -14.2592
   -14.2467 -14.2455 -14.2408 -14.2222 -14.2215 -14.2187 -14.2158 -14.2065
   -14.2003 -14.1822 -14.1363 -14.0894 -14.0844 -14.0518 -13.9931 -13.9815
   -13.8830 -13.8353 -13.7381 -13.7134 -13.7099 -13.7062 -13.6938 -13.6911
   -13.6840 -13.6815 -13.6744 -13.6724 -13.6471 -13.6335 -13.6112 -13.6085
   -13.6018 -13.5822 -13.5812 -13.5643 -13.5497 -13.5414 -13.5281 -13.5241
   -13.5112 -13.5093 -13.4995 -13.4884 -13.4870 -13.4831 -13.4557 -13.4495
   -13.4454 -13.4309 -13.4183 -13.3925 -13.3905 -13.3882 -13.3822 -13.3778
   -13.3691 -13.3656 -13.3538 -13.3524 -13.3493 -13.3446 -13.3434 -13.3350
   -13.3159 -13.3058 -13.2988 -13.2969 -13.2929 -13.2838 -13.2746 -13.2730
   -13.2712 -13.2701 -13.2647 -13.2635 -13.2604 -13.2602 -13.2513 -13.2466
   -13.2435 -13.2384 -13.2351 -13.2291 -13.2276 -13.2211 -13.2161 -13.2127
   -13.2074 -13.2033 -13.1935 -13.1901 -13.1893 -13.1830 -13.1693 -13.1615
   -13.1569 -13.1546 -13.1524 -13.1484 -13.1426 -13.1357 -13.1353 -13.1291
   -13.1238 -13.1039 -13.0978 -13.0972 -13.0837 -13.0573 -13.0423 -13.0375
   -13.0303 -13.0263 -13.0035 -12.9959 -12.9946 -12.9816 -12.9346 -12.9150
   -12.8905 -12.8818 -12.8735 -12.8714 -12.8646 -12.8597 -12.8568 -12.8509
   -12.8429 -12.8426 -12.8417 -12.8232 -12.8210 -12.8192 -12.8064 -12.8054
   -12.7974 -12.7844 -12.7764 -12.6877 -12.6833 -12.6770 -12.5319 -12.3949
   -12.3875 -12.3707 -12.3551 -12.3331 -12.3097 -12.2622 -12.2609 -12.2526
   -12.2216 -12.1955 -12.1633 -12.1324 -12.1217 -12.1211 -12.1101 -12.0817
   -12.0571 -12.0239 -12.0207 -12.0134 -12.0018 -11.9062 -11.8794 -11.8099
   -11.8027 -11.7053 -11.7017 -11.6867 -11.4030 -11.3244 -11.0930 -11.0796
   -11.0769 -11.0746 -10.9683 -10.9627 -10.8290 -10.3935 -10.1923 -10.1886
   -10.1620 -10.1554 -10.1433

          k = 0.0000 0.2652 0.0000 (128375 PWs)   bands (ev):

  -100.2916-100.2840-100.2820-100.2753-100.2732-100.2672-100.2622-100.2604
  -100.2530-100.2462-100.2423-100.2413-100.2397-100.2396-100.2378-100.2333
  -100.2301-100.2290-100.2286-100.2282-100.2222-100.2217-100.2216-100.2205
  -100.2187-100.2160-100.2154-100.2147-100.2122-100.2088-100.2032-100.1981
  -100.1854-100.1344-100.1254-100.1169-100.1129-100.1096-100.1090-100.1031
  -100.0993-100.0968-100.0951-100.0905-100.0889-100.0872-100.0859-100.0840
  -100.0831-100.0809-100.0792-100.0791-100.0760-100.0749-100.0739-100.0721
  -100.0683-100.0651-100.0593-100.0549-100.0422-100.0408-100.0376-100.0323
   -66.4951 -66.4873 -66.4780 -66.4728 -66.4698 -66.4677 -66.4610 -66.4557
   -66.4533 -66.4491 -66.4411 -66.4381 -66.4357 -66.4313 -66.4265 -66.4249
   -66.4220 -66.4203 -66.4195 -66.4180 -66.4165 -66.4142 -66.4101 -66.4082
   -66.4055 -66.4041 -66.4013 -66.4010 -66.4005 -66.3965 -66.3952 -66.3936
   -66.3882 -66.3835 -66.3822 -66.3795 -66.3774 -66.3736 -66.3700 -66.3631
   -66.3621 -66.3553 -66.3528 -66.3480 -66.3429 -66.3338 -66.3281 -66.3184
   -66.3162 -66.3065 -66.3008 -66.2991 -66.2972 -66.2960 -66.2949 -66.2902
   -66.2867 -66.2848 -66.2788 -66.2759 -66.2742 -66.2710 -66.2694 -66.2669
   -66.2654 -66.2639 -66.2636 -66.2628 -66.2621 -66.2574 -66.2551 -66.2532
   -66.2519 -66.2485 -66.2458 -66.2434 -66.2390 -66.2377 -66.2339 -66.2317
   -66.2274 -66.2243 -66.2189 -66.2165 -66.2152 -66.2140 -66.2105 -66.2089
   -66.2013 -66.1996 -66.1972 -66.1952 -66.1934 -66.1920 -66.1912 -66.1877
   -66.1868 -66.1829 -66.1820 -66.1777 -66.1764 -66.1744 -66.1726 -66.1694
   -66.1665 -66.1655 -66.1618 -66.1610 -66.1590 -66.1574 -66.1562 -66.1548
   -66.1532 -66.1519 -66.1497 -66.1490 -66.1459 -66.1437 -66.1409 -66.1390
   -66.1364 -66.1322 -66.1315 -66.1297 -66.1272 -66.1245 -66.1231 -66.1209
   -66.1197 -66.1181 -66.1167 -66.1121 -66.1117 -66.1090 -66.1065 -66.1064
   -66.1035 -66.1013 -66.0987 -66.0964 -66.0939 -66.0930 -66.0902 -66.0859
   -66.0855 -66.0829 -66.0814 -66.0793 -66.0762 -66.0740 -66.0738 -66.0705
   -66.0644 -66.0624 -66.0608 -66.0579 -66.0552 -66.0536 -66.0522 -66.0511
   -66.0480 -66.0445 -66.0410 -66.0377 -66.0373 -66.0338 -66.0318 -66.0278
   -66.0268 -66.0214 -66.0197 -66.0162 -66.0114 -66.0085 -66.0079 -66.0045
   -66.0007 -65.9953 -65.9947 -65.9941 -65.9919 -65.9917 -65.9905 -65.9899
   -65.9875 -65.9865 -65.9857 -65.9836 -65.9815 -65.9786 -65.9756 -65.9743
   -29.1216 -20.2449 -19.9756 -19.1750 -19.0710 -18.7633 -18.4489 -18.3356
   -18.1002 -18.0236 -17.7590 -17.6310 -17.4136 -17.3962 -17.2484 -17.1260
   -17.0651 -17.0144 -16.9647 -16.8266 -16.7808 -16.7551 -16.6833 -16.6675
   -16.6473 -16.6213 -16.5934 -16.5742 -16.5541 -16.5034 -16.4314 -16.3526
   -16.3142 -16.3066 -16.2993 -16.2712 -16.2685 -16.2542 -16.2502 -16.2399
   -16.2131 -16.2031 -16.1871 -16.1688 -16.1612 -16.1500 -16.1390 -16.1257
   -16.1013 -16.0901 -16.0759 -16.0655 -16.0530 -16.0162 -16.0056 -15.9922
   -15.9885 -15.9801 -15.9744 -15.9408 -15.9109 -15.8464 -15.8395 -15.8070
   -15.8033 -15.7858 -15.7605 -15.7309 -15.6660 -15.6182 -15.5923 -15.5490
   -15.5191 -15.5084 -15.5021 -15.4609 -15.4127 -15.4027 -15.3979 -15.3921
   -15.3692 -15.3620 -15.3497 -15.3431 -15.3421 -15.3386 -15.3331 -15.3255
   -15.3164 -15.3108 -15.3048 -15.2932 -15.2859 -15.2739 -15.2625 -15.2587
   -15.2549 -15.2477 -15.2418 -15.2412 -15.2364 -15.2325 -15.2186 -15.2006
   -15.1964 -15.1659 -15.1458 -15.1422 -15.1391 -15.1320 -15.1121 -15.1068
   -15.1014 -15.0915 -15.0746 -15.0663 -15.0440 -14.9989 -14.9690 -14.9585
   -14.9396 -14.9037 -14.8900 -14.8835 -14.8636 -14.8602 -14.8094 -14.7993
   -14.7922 -14.7815 -14.7759 -14.7656 -14.7561 -14.7542 -14.7441 -14.7368
   -14.7319 -14.7192 -14.7032 -14.6942 -14.6907 -14.6700 -14.6518 -14.6475
   -14.6361 -14.6315 -14.5981 -14.5708 -14.5589 -14.5488 -14.5438 -14.5245
   -14.5176 -14.5000 -14.4976 -14.4842 -14.4795 -14.4765 -14.4684 -14.4618
   -14.4491 -14.4465 -14.4399 -14.4280 -14.4129 -14.3916 -14.3772 -14.3596
   -14.3280 -14.3179 -14.3091 -14.2979 -14.2880 -14.2648 -14.2588 -14.2550
   -14.2390 -14.2181 -14.2078 -14.1992 -14.1842 -14.1433 -14.1338 -14.1255
   -14.0951 -14.0771 -14.0453 -14.0263 -14.0139 -13.9913 -13.9351 -13.8723
   -13.8276 -13.8213 -13.7877 -13.7778 -13.7632 -13.7545 -13.7309 -13.7158
   -13.6967 -13.6925 -13.6779 -13.6600 -13.6549 -13.6490 -13.6433 -13.6361
   -13.6224 -13.6120 -13.5986 -13.5760 -13.5709 -13.5485 -13.5393 -13.5223
   -13.5155 -13.5033 -13.4880 -13.4848 -13.4703 -13.4692 -13.4620 -13.4591
   -13.4544 -13.4428 -13.4377 -13.4254 -13.4149 -13.4038 -13.3966 -13.3715
   -13.3680 -13.3593 -13.3560 -13.3471 -13.3411 -13.3309 -13.3277 -13.3250
   -13.3171 -13.3115 -13.3078 -13.3016 -13.2979 -13.2840 -13.2812 -13.2755
   -13.2703 -13.2621 -13.2566 -13.2482 -13.2458 -13.2316 -13.2293 -13.2242
   -13.2227 -13.2179 -13.2142 -13.2107 -13.2067 -13.2016 -13.1953 -13.1897
   -13.1797 -13.1778 -13.1716 -13.1664 -13.1595 -13.1547 -13.1502 -13.1437
   -13.1413 -13.1346 -13.1297 -13.1190 -13.1168 -13.1094 -13.0953 -13.0907
   -13.0882 -13.0726 -13.0581 -13.0459 -13.0233 -13.0096 -13.0032 -12.9937
   -12.9869 -12.9835 -12.9818 -12.9675 -12.9596 -12.9527 -12.9502 -12.9464
   -12.9256 -12.9092 -12.8889 -12.8822 -12.8730 -12.8684 -12.8617 -12.8529
   -12.8411 -12.8351 -12.8281 -12.8216 -12.8136 -12.8037 -12.7824 -12.7465
   -12.7218 -12.7040 -12.6709 -12.6510 -12.6398 -12.4742 -12.4512 -12.4303
   -12.4267 -12.4025 -12.3981 -12.3779 -12.3552 -12.3345 -12.3038 -12.2872
   -12.2725 -12.2602 -12.2532 -12.2412 -12.2250 -12.2170 -12.2055 -12.1870
   -12.1595 -12.1509 -12.1329 -12.0940 -12.0661 -12.0558 -12.0365 -11.9685
   -11.8867 -11.6620 -11.6320 -11.4886 -11.4063 -11.2539 -11.2175 -11.1908
   -11.0476 -10.9914 -10.9170 -10.8509 -10.7532 -10.7004 -10.6552 -10.5811
   -10.4813 -10.2849 -10.2364

          k = 0.0000-0.5303 0.0000 (128388 PWs)   bands (ev):

  -100.2908-100.2848-100.2823-100.2753-100.2732-100.2671-100.2606-100.2590
  -100.2578-100.2446-100.2430-100.2410-100.2396-100.2388-100.2381-100.2328
  -100.2325-100.2292-100.2279-100.2260-100.2244-100.2218-100.2191-100.2190
  -100.2184-100.2174-100.2167-100.2158-100.2121-100.2057-100.2055-100.1981
  -100.1854-100.1329-100.1278-100.1144-100.1137-100.1116-100.1108-100.0996
  -100.0991-100.0953-100.0935-100.0915-100.0906-100.0886-100.0867-100.0848
  -100.0823-100.0817-100.0796-100.0786-100.0755-100.0747-100.0732-100.0709
  -100.0682-100.0668-100.0585-100.0552-100.0427-100.0409-100.0358-100.0335
   -66.4921 -66.4891 -66.4801 -66.4723 -66.4689 -66.4677 -66.4609 -66.4544
   -66.4539 -66.4454 -66.4439 -66.4410 -66.4356 -66.4306 -66.4292 -66.4211
   -66.4206 -66.4198 -66.4190 -66.4179 -66.4157 -66.4138 -66.4124 -66.4067
   -66.4050 -66.4036 -66.4021 -66.4016 -66.3950 -66.3915 -66.3908 -66.3903
   -66.3888 -66.3879 -66.3838 -66.3799 -66.3654 -66.3648 -66.3627 -66.3616
   -66.3612 -66.3577 -66.3472 -66.3440 -66.3360 -66.3358 -66.3314 -66.3270
   -66.3227 -66.3225 -66.3099 -66.3048 -66.3045 -66.3024 -66.3017 -66.2986
   -66.2907 -66.2860 -66.2803 -66.2781 -66.2772 -66.2715 -66.2671 -66.2660
   -66.2638 -66.2627 -66.2608 -66.2594 -66.2580 -66.2563 -66.2522 -66.2502
   -66.2481 -66.2467 -66.2457 -66.2438 -66.2406 -66.2393 -66.2354 -66.2337
   -66.2321 -66.2307 -66.2263 -66.2243 -66.2219 -66.2208 -66.2181 -66.2163
   -66.2142 -66.2088 -66.2020 -66.1969 -66.1922 -66.1892 -66.1870 -66.1864
   -66.1836 -66.1814 -66.1778 -66.1746 -66.1713 -66.1683 -66.1666 -66.1624
   -66.1615 -66.1604 -66.1588 -66.1566 -66.1549 -66.1534 -66.1531 -66.1502
   -66.1494 -66.1491 -66.1482 -66.1475 -66.1447 -66.1428 -66.1413 -66.1372
   -66.1359 -66.1354 -66.1325 -66.1321 -66.1301 -66.1292 -66.1273 -66.1244
   -66.1213 -66.1165 -66.1123 -66.1106 -66.1100 -66.1086 -66.1070 -66.1041
   -66.1019 -66.0997 -66.0977 -66.0913 -66.0907 -66.0883 -66.0862 -66.0843
   -66.0827 -66.0797 -66.0781 -66.0767 -66.0750 -66.0735 -66.0726 -66.0712
   -66.0678 -66.0643 -66.0633 -66.0603 -66.0549 -66.0531 -66.0529 -66.0485
   -66.0443 -66.0421 -66.0384 -66.0374 -66.0366 -66.0296 -66.0231 -66.0195
   -66.0189 -66.0161 -66.0158 -66.0136 -66.0093 -66.0090 -66.0076 -66.0056
   -66.0051 -66.0045 -66.0032 -66.0002 -65.9987 -65.9980 -65.9964 -65.9941
   -65.9919 -65.9908 -65.9869 -65.9859 -65.9821 -65.9806 -65.9762 -65.9751
   -29.1216 -20.2459 -19.6562 -19.6374 -18.9998 -18.8264 -18.4487 -18.4381
   -18.1596 -17.9423 -17.5717 -17.5577 -17.3619 -17.3130 -17.0811 -17.0571
   -16.9628 -16.9484 -16.9332 -16.8920 -16.8054 -16.7788 -16.7485 -16.7266
   -16.6154 -16.5915 -16.5538 -16.5210 -16.5058 -16.4979 -16.4908 -16.4809
   -16.4609 -16.4579 -16.4361 -16.4270 -16.4063 -16.3579 -16.3505 -16.2859
   -16.2280 -16.1794 -16.1628 -16.1373 -16.1343 -16.1338 -16.1279 -16.0633
   -16.0554 -16.0475 -16.0425 -16.0312 -16.0260 -16.0128 -16.0074 -16.0013
   -15.9931 -15.9488 -15.9212 -15.8861 -15.8782 -15.8688 -15.8642 -15.8555
   -15.7968 -15.7929 -15.7625 -15.7387 -15.7256 -15.6913 -15.6718 -15.6464
   -15.6313 -15.5390 -15.5278 -15.4495 -15.4234 -15.3877 -15.3862 -15.3762
   -15.3681 -15.3579 -15.3473 -15.3351 -15.3295 -15.3186 -15.3169 -15.3131
   -15.3098 -15.2963 -15.2907 -15.2879 -15.2830 -15.2708 -15.2692 -15.2652
   -15.2539 -15.2274 -15.2187 -15.1788 -15.1574 -15.1543 -15.1498 -15.1366
   -15.1269 -15.1106 -15.1050 -15.1023 -15.0990 -15.0921 -15.0876 -15.0801
   -15.0750 -15.0701 -15.0664 -15.0601 -15.0526 -15.0270 -15.0177 -15.0058
   -14.9878 -14.9729 -14.9362 -14.8785 -14.8511 -14.8206 -14.8074 -14.7737
   -14.7716 -14.7655 -14.7610 -14.7546 -14.7534 -14.7415 -14.7378 -14.7318
   -14.7277 -14.7173 -14.7114 -14.7065 -14.7032 -14.7012 -14.6963 -14.6799
   -14.6774 -14.6607 -14.6445 -14.6417 -14.6381 -14.6048 -14.5987 -14.5961
   -14.5847 -14.5727 -14.5628 -14.5419 -14.5379 -14.5339 -14.5162 -14.4963
   -14.4690 -14.4628 -14.4563 -14.4245 -14.4073 -14.4053 -14.4011 -14.3362
   -14.2978 -14.2917 -14.2553 -14.2530 -14.2514 -14.2485 -14.2293 -14.2248
   -14.2106 -14.1999 -14.1718 -14.1589 -14.1134 -14.0247 -13.9754 -13.9643
   -13.9515 -13.9408 -13.9147 -13.9095 -13.9047 -13.8951 -13.8730 -13.8611
   -13.8369 -13.8013 -13.7964 -13.7957 -13.7803 -13.7781 -13.7728 -13.7663
   -13.7520 -13.7461 -13.7319 -13.7304 -13.7178 -13.7088 -13.6953 -13.6420
   -13.6255 -13.6224 -13.6167 -13.5858 -13.5849 -13.5808 -13.5716 -13.5652
   -13.5410 -13.5275 -13.4924 -13.4774 -13.4749 -13.4683 -13.4655 -13.4586
   -13.4556 -13.4522 -13.4421 -13.4370 -13.4310 -13.4249 -13.4213 -13.4179
   -13.4117 -13.4095 -13.4030 -13.3958 -13.3929 -13.3777 -13.3387 -13.3356
   -13.3197 -13.3098 -13.2862 -13.2808 -13.2787 -13.2753 -13.2705 -13.2673
   -13.2625 -13.2520 -13.2495 -13.2455 -13.2383 -13.2341 -13.2301 -13.2283
   -13.2198 -13.2157 -13.2134 -13.2058 -13.1974 -13.1861 -13.1777 -13.1620
   -13.1611 -13.1535 -13.1467 -13.1379 -13.1114 -13.1090 -13.1000 -13.0936
   -13.0914 -13.0871 -13.0662 -13.0628 -13.0530 -13.0497 -13.0439 -13.0106
   -13.0066 -13.0021 -13.0003 -12.9974 -12.9943 -12.9902 -12.9881 -12.9862
   -12.9814 -12.9783 -12.9735 -12.9672 -12.9628 -12.9584 -12.9551 -12.9509
   -12.9486 -12.9373 -12.9002 -12.8965 -12.8850 -12.8572 -12.8243 -12.8180
   -12.7684 -12.7615 -12.7401 -12.7082 -12.7047 -12.7015 -12.6911 -12.6319
   -12.5837 -12.5754 -12.5659 -12.5544 -12.5492 -12.5412 -12.5314 -12.4859
   -12.4776 -12.4693 -12.4671 -12.4368 -12.4205 -12.4181 -12.4095 -12.3941
   -12.3354 -12.3203 -12.3117 -12.2898 -12.2768 -12.2596 -12.2477 -12.2252
   -12.2154 -12.2030 -12.1813 -12.1777 -12.1716 -12.1672 -12.1492 -12.1378
   -12.0158 -11.9010 -11.8229 -11.7585 -11.6846 -11.4376 -11.1612 -11.1213
   -11.0954 -10.8970 -10.8957 -10.8950 -10.5760 -10.4895 -10.4339 -10.3899
   -10.3767 -10.3268 -10.3019

          k = 0.2500-0.0884 0.0000 (128371 PWs)   bands (ev):

  -100.2916-100.2841-100.2818-100.2754-100.2732-100.2672-100.2622-100.2604
  -100.2530-100.2462-100.2423-100.2412-100.2398-100.2396-100.2378-100.2333
  -100.2301-100.2290-100.2286-100.2282-100.2222-100.2217-100.2216-100.2205
  -100.2188-100.2160-100.2154-100.2147-100.2123-100.2088-100.2032-100.1981
  -100.1854-100.1344-100.1254-100.1169-100.1129-100.1096-100.1090-100.1031
  -100.0993-100.0968-100.0951-100.0905-100.0889-100.0872-100.0859-100.0840
  -100.0831-100.0809-100.0792-100.0791-100.0760-100.0748-100.0739-100.0721
  -100.0683-100.0651-100.0593-100.0549-100.0423-100.0407-100.0376-100.0323
   -66.4951 -66.4873 -66.4780 -66.4729 -66.4698 -66.4676 -66.4610 -66.4557
   -66.4532 -66.4491 -66.4410 -66.4381 -66.4357 -66.4313 -66.4265 -66.4249
   -66.4220 -66.4203 -66.4195 -66.4181 -66.4164 -66.4142 -66.4101 -66.4083
   -66.4055 -66.4041 -66.4013 -66.4010 -66.4005 -66.3965 -66.3952 -66.3936
   -66.3882 -66.3835 -66.3822 -66.3795 -66.3774 -66.3736 -66.3700 -66.3631
   -66.3621 -66.3553 -66.3528 -66.3480 -66.3429 -66.3338 -66.3281 -66.3184
   -66.3162 -66.3065 -66.3008 -66.2991 -66.2973 -66.2960 -66.2949 -66.2902
   -66.2867 -66.2847 -66.2788 -66.2759 -66.2742 -66.2710 -66.2694 -66.2669
   -66.2654 -66.2639 -66.2636 -66.2628 -66.2621 -66.2574 -66.2551 -66.2532
   -66.2519 -66.2486 -66.2458 -66.2434 -66.2390 -66.2377 -66.2339 -66.2317
   -66.2274 -66.2243 -66.2189 -66.2165 -66.2152 -66.2140 -66.2105 -66.2089
   -66.2013 -66.1996 -66.1972 -66.1952 -66.1934 -66.1920 -66.1912 -66.1878
   -66.1868 -66.1829 -66.1820 -66.1777 -66.1764 -66.1744 -66.1726 -66.1694
   -66.1665 -66.1655 -66.1618 -66.1610 -66.1590 -66.1574 -66.1562 -66.1548
   -66.1532 -66.1519 -66.1497 -66.1490 -66.1459 -66.1437 -66.1408 -66.1390
   -66.1364 -66.1322 -66.1315 -66.1297 -66.1272 -66.1245 -66.1231 -66.1209
   -66.1197 -66.1181 -66.1167 -66.1121 -66.1117 -66.1090 -66.1065 -66.1064
   -66.1036 -66.1013 -66.0987 -66.0964 -66.0939 -66.0930 -66.0902 -66.0859
   -66.0855 -66.0829 -66.0814 -66.0793 -66.0762 -66.0740 -66.0738 -66.0705
   -66.0644 -66.0624 -66.0608 -66.0579 -66.0552 -66.0536 -66.0522 -66.0511
   -66.0480 -66.0445 -66.0410 -66.0377 -66.0372 -66.0337 -66.0318 -66.0278
   -66.0269 -66.0214 -66.0197 -66.0162 -66.0114 -66.0085 -66.0079 -66.0045
   -66.0007 -65.9953 -65.9947 -65.9941 -65.9919 -65.9917 -65.9905 -65.9899
   -65.9875 -65.9865 -65.9857 -65.9836 -65.9815 -65.9786 -65.9756 -65.9743
   -29.1216 -20.2449 -19.9756 -19.1750 -19.0710 -18.7633 -18.4489 -18.3356
   -18.1002 -18.0235 -17.7591 -17.6310 -17.4137 -17.3961 -17.2484 -17.1259
   -17.0651 -17.0144 -16.9649 -16.8266 -16.7808 -16.7552 -16.6833 -16.6675
   -16.6473 -16.6213 -16.5934 -16.5743 -16.5541 -16.5034 -16.4314 -16.3526
   -16.3142 -16.3066 -16.2993 -16.2713 -16.2685 -16.2542 -16.2502 -16.2399
   -16.2131 -16.2031 -16.1871 -16.1688 -16.1611 -16.1500 -16.1390 -16.1257
   -16.1013 -16.0901 -16.0759 -16.0654 -16.0530 -16.0162 -16.0056 -15.9922
   -15.9886 -15.9801 -15.9745 -15.9408 -15.9109 -15.8464 -15.8395 -15.8071
   -15.8033 -15.7858 -15.7606 -15.7309 -15.6660 -15.6183 -15.5923 -15.5490
   -15.5191 -15.5084 -15.5021 -15.4609 -15.4126 -15.4027 -15.3979 -15.3921
   -15.3692 -15.3620 -15.3497 -15.3431 -15.3421 -15.3386 -15.3331 -15.3255
   -15.3164 -15.3109 -15.3048 -15.2932 -15.2860 -15.2739 -15.2625 -15.2587
   -15.2549 -15.2477 -15.2418 -15.2412 -15.2363 -15.2325 -15.2185 -15.2005
   -15.1963 -15.1659 -15.1459 -15.1422 -15.1392 -15.1321 -15.1121 -15.1068
   -15.1014 -15.0915 -15.0746 -15.0663 -15.0440 -14.9989 -14.9690 -14.9585
   -14.9397 -14.9037 -14.8900 -14.8835 -14.8636 -14.8602 -14.8094 -14.7993
   -14.7922 -14.7815 -14.7759 -14.7656 -14.7561 -14.7541 -14.7441 -14.7369
   -14.7319 -14.7193 -14.7032 -14.6942 -14.6907 -14.6700 -14.6518 -14.6475
   -14.6361 -14.6315 -14.5981 -14.5708 -14.5589 -14.5488 -14.5438 -14.5245
   -14.5176 -14.5000 -14.4976 -14.4842 -14.4796 -14.4765 -14.4684 -14.4618
   -14.4491 -14.4465 -14.4399 -14.4280 -14.4129 -14.3916 -14.3772 -14.3596
   -14.3280 -14.3179 -14.3091 -14.2978 -14.2879 -14.2649 -14.2588 -14.2549
   -14.2391 -14.2181 -14.2078 -14.1992 -14.1841 -14.1433 -14.1338 -14.1255
   -14.0951 -14.0771 -14.0453 -14.0263 -14.0139 -13.9913 -13.9351 -13.8723
   -13.8275 -13.8213 -13.7877 -13.7778 -13.7632 -13.7544 -13.7309 -13.7158
   -13.6967 -13.6926 -13.6779 -13.6600 -13.6549 -13.6490 -13.6433 -13.6361
   -13.6224 -13.6120 -13.5986 -13.5760 -13.5709 -13.5485 -13.5392 -13.5223
   -13.5155 -13.5032 -13.4881 -13.4848 -13.4703 -13.4692 -13.4620 -13.4590
   -13.4544 -13.4428 -13.4377 -13.4254 -13.4149 -13.4038 -13.3966 -13.3715
   -13.3680 -13.3593 -13.3560 -13.3471 -13.3412 -13.3309 -13.3277 -13.3250
   -13.3170 -13.3115 -13.3078 -13.3017 -13.2979 -13.2840 -13.2812 -13.2755
   -13.2703 -13.2620 -13.2566 -13.2482 -13.2458 -13.2316 -13.2293 -13.2242
   -13.2227 -13.2180 -13.2142 -13.2107 -13.2067 -13.2016 -13.1953 -13.1897
   -13.1797 -13.1778 -13.1716 -13.1664 -13.1596 -13.1547 -13.1502 -13.1437
   -13.1413 -13.1346 -13.1297 -13.1190 -13.1168 -13.1094 -13.0953 -13.0907
   -13.0881 -13.0726 -13.0581 -13.0459 -13.0233 -13.0096 -13.0032 -12.9937
   -12.9869 -12.9835 -12.9818 -12.9675 -12.9596 -12.9526 -12.9502 -12.9464
   -12.9256 -12.9092 -12.8889 -12.8822 -12.8730 -12.8684 -12.8617 -12.8530
   -12.8411 -12.8350 -12.8281 -12.8216 -12.8137 -12.8037 -12.7824 -12.7465
   -12.7217 -12.7039 -12.6709 -12.6509 -12.6399 -12.4742 -12.4512 -12.4303
   -12.4267 -12.4025 -12.3981 -12.3779 -12.3552 -12.3345 -12.3038 -12.2872
   -12.2726 -12.2603 -12.2531 -12.2412 -12.2249 -12.2170 -12.2055 -12.1870
   -12.1595 -12.1509 -12.1329 -12.0940 -12.0661 -12.0558 -12.0365 -11.9685
   -11.8867 -11.6621 -11.6320 -11.4886 -11.4063 -11.2539 -11.2176 -11.1908
   -11.0476 -10.9914 -10.9170 -10.8510 -10.7532 -10.7004 -10.6552 -10.5811
   -10.4813 -10.2848 -10.2368

          k = 0.2500 0.1768 0.0000 (128340 PWs)   bands (ev):

  -100.2912-100.2837-100.2825-100.2751-100.2739-100.2674-100.2613-100.2601
  -100.2526-100.2476-100.2452-100.2407-100.2404-100.2401-100.2366-100.2290
  -100.2287-100.2286-100.2282-100.2281-100.2251-100.2240-100.2216-100.2189
  -100.2189-100.2185-100.2155-100.2125-100.2121-100.2074-100.2046-100.1981
  -100.1854-100.1337-100.1244-100.1200-100.1148-100.1083-100.1060-100.1050
  -100.0990-100.0969-100.0924-100.0904-100.0899-100.0869-100.0853-100.0840
  -100.0832-100.0817-100.0786-100.0786-100.0782-100.0751-100.0738-100.0729
  -100.0691-100.0635-100.0588-100.0550-100.0431-100.0390-100.0381-100.0327
   -66.4945 -66.4867 -66.4764 -66.4762 -66.4698 -66.4666 -66.4610 -66.4545
   -66.4536 -66.4484 -66.4408 -66.4363 -66.4357 -66.4320 -66.4308 -66.4254
   -66.4214 -66.4197 -66.4185 -66.4173 -66.4160 -66.4118 -66.4113 -66.4081
   -66.4068 -66.4042 -66.4040 -66.3976 -66.3974 -66.3956 -66.3919 -66.3911
   -66.3895 -66.3813 -66.3769 -66.3764 -66.3713 -66.3691 -66.3644 -66.3628
   -66.3589 -66.3548 -66.3429 -66.3414 -66.3401 -66.3383 -66.3327 -66.3203
   -66.3201 -66.3162 -66.3101 -66.3063 -66.3026 -66.3023 -66.3012 -66.2961
   -66.2883 -66.2878 -66.2849 -66.2833 -66.2826 -66.2758 -66.2754 -66.2681
   -66.2674 -66.2626 -66.2622 -66.2606 -66.2603 -66.2601 -66.2549 -66.2535
   -66.2497 -66.2482 -66.2464 -66.2449 -66.2419 -66.2404 -66.2330 -66.2308
   -66.2279 -66.2240 -66.2173 -66.2167 -66.2149 -66.2146 -66.2109 -66.2076
   -66.2072 -66.2038 -66.1966 -66.1957 -66.1948 -66.1931 -66.1925 -66.1846
   -66.1814 -66.1774 -66.1770 -66.1744 -66.1743 -66.1716 -66.1712 -66.1689
   -66.1672 -66.1669 -66.1661 -66.1649 -66.1635 -66.1583 -66.1582 -66.1563
   -66.1556 -66.1518 -66.1506 -66.1476 -66.1453 -66.1371 -66.1354 -66.1348
   -66.1333 -66.1319 -66.1303 -66.1276 -66.1275 -66.1250 -66.1226 -66.1223
   -66.1196 -66.1186 -66.1143 -66.1131 -66.1106 -66.1082 -66.1016 -66.1005
[...]
   -10.6072 -10.6058 -10.5943 -10.5835 -10.5800 -10.5647 -10.5502 -10.5446
   -10.5296 -10.5096 -10.5010 -10.4963 -10.4793 -10.4780 -10.4602 -10.4588
   -10.4407 -10.4287 -10.4119 -10.3986 -10.3916 -10.3862 -10.3751 -10.3702
   -10.3681 -10.3534 -10.3447 -10.3366 -10.3315 -10.3223 -10.3117 -10.2998
   -10.2967 -10.2893 -10.2747 -10.2741 -10.2660 -10.2519 -10.2445 -10.2387
   -10.2297 -10.2133 -10.1917 -10.1823 -10.1720 -10.1690 -10.1597 -10.1520
   -10.1440 -10.1389 -10.1369 -10.1331 -10.1280 -10.1182 -10.1139 -10.1001
   -10.0948 -10.0823 -10.0766 -10.0732 -10.0569 -10.0497 -10.0390 -10.0351
   -10.0287 -10.0235 -10.0156 -10.0107 -10.0102 -10.0089 -10.0029  -9.9889
    -9.9751  -9.9747  -9.9693  -9.9557  -9.9375  -9.9356  -9.9312  -9.9264
    -9.9149  -9.9040  -9.8980  -9.8756  -9.8556  -9.8513  -9.8415  -9.8206
    -9.8085  -9.8037  -9.7952  -9.7899  -9.7863  -9.7823  -9.7675  -9.7535
    -9.7307  -9.7157  -9.7096  -9.6951  -9.6860  -9.6735  -9.6659  -9.6521
    -9.6182  -9.5846  -9.4943  -9.4563  -9.4273  -9.4124  -9.3734  -9.3322
    -9.2633  -9.1932  -9.1726

          k =-0.5000-0.3536 0.0000 (128560 PWs)   bands (ev):

   -97.5262 -97.5229 -97.3138 -97.3123 -97.2766 -97.2689 -97.2689 -97.2602
   -97.2451 -97.2447 -97.2364 -97.2362 -97.2293 -97.2276 -97.2222 -97.2207
   -97.2173 -97.2141 -97.2135 -97.2123 -97.2087 -97.2054 -97.2040 -97.1999
   -97.1996 -97.1989 -97.1981 -97.1978 -97.1951 -97.1932 -97.1898 -97.1895
   -97.1889 -97.1790 -97.1751 -97.1743 -97.1698 -97.1626 -97.1569 -97.1557
   -97.1548 -97.1532 -97.1514 -97.1502 -97.1496 -97.1473 -97.1460 -97.1345
   -97.1321 -97.1303 -97.1299 -97.1296 -97.1276 -97.1275 -97.1270 -97.1227
   -97.1218 -97.1199 -97.1183 -97.1115 -97.1086 -97.1054 -97.1035 -97.1002
   -63.8512 -63.8340 -63.6442 -63.6357 -63.5721 -63.5542 -63.5461 -63.5415
   -63.5293 -63.5278 -63.5159 -63.5152 -63.5147 -63.5106 -63.5059 -63.5037
   -63.5026 -63.5009 -63.5007 -63.4994 -63.4959 -63.4926 -63.4881 -63.4858
   -63.4849 -63.4835 -63.4806 -63.4794 -63.4759 -63.4717 -63.4670 -63.4623
   -63.4618 -63.4557 -63.4529 -63.4512 -63.4492 -63.4444 -63.4417 -63.4402
   -63.4383 -63.4316 -63.4283 -63.4270 -63.4268 -63.4258 -63.4254 -63.4211
   -63.4173 -63.4140 -63.4128 -63.4089 -63.4065 -63.4059 -63.4047 -63.4010
   -63.3994 -63.3988 -63.3987 -63.3969 -63.3950 -63.3927 -63.3917 -63.3893
   -63.3803 -63.3753 -63.3675 -63.3669 -63.3662 -63.3618 -63.3587 -63.3568
   -63.3507 -63.3468 -63.3444 -63.3395 -63.3361 -63.3311 -63.3308 -63.3231
   -63.3214 -63.3158 -63.3130 -63.3092 -63.3087 -63.3066 -63.3062 -63.3052
   -63.3035 -63.3015 -63.2968 -63.2962 -63.2938 -63.2927 -63.2907 -63.2847
   -63.2838 -63.2799 -63.2798 -63.2755 -63.2755 -63.2729 -63.2712 -63.2690
   -63.2605 -63.2596 -63.2570 -63.2557 -63.2540 -63.2533 -63.2514 -63.2474
   -63.2453 -63.2441 -63.2419 -63.2411 -63.2391 -63.2366 -63.2344 -63.2319
   -63.2317 -63.2308 -63.2308 -63.2280 -63.2270 -63.2265 -63.2213 -63.2196
   -63.2179 -63.2171 -63.2152 -63.2140 -63.2097 -63.2072 -63.2045 -63.1995
   -63.1992 -63.1970 -63.1954 -63.1930 -63.1928 -63.1922 -63.1915 -63.1908
   -63.1886 -63.1880 -63.1874 -63.1859 -63.1856 -63.1856 -63.1846 -63.1826
   -63.1793 -63.1786 -63.1759 -63.1719 -63.1710 -63.1694 -63.1692 -63.1684
   -63.1656 -63.1651 -63.1630 -63.1624 -63.1621 -63.1608 -63.1607 -63.1598
   -63.1587 -63.1583 -63.1563 -63.1548 -63.1545 -63.1536 -63.1509 -63.1499
   -63.1483 -63.1468 -63.1466 -63.1438 -63.1413 -63.1409 -63.1395 -63.1380
   -63.1360 -63.1358 -63.1351 -63.1338 -63.1334 -63.1313 -63.1280 -63.1265
   -29.0590 -19.9617 -19.3400 -19.2009 -18.8568 -18.6253 -18.5768 -18.1952
   -17.8993 -17.4156 -17.4036 -17.0231 -16.6654 -16.6194 -16.6132 -16.5572
   -16.1970 -16.1756 -15.9373 -15.7747 -15.7684 -15.7653 -15.7470 -15.7248
   -15.6989 -15.6468 -15.6412 -15.6360 -15.6329 -15.5211 -15.3980 -15.2223
   -15.2168 -15.2074 -15.1998 -15.1500 -15.0974 -14.9976 -14.9269 -14.7453
   -14.7304 -14.7115 -14.6975 -14.6946 -14.6459 -14.6432 -14.6161 -14.6085
   -14.5917 -14.5684 -14.5227 -14.4459 -14.4452 -14.4289 -14.4262 -14.3930
   -14.3420 -14.1818 -14.1682 -14.1662 -14.1619 -14.1514 -14.1106 -13.9392
   -13.8982 -13.8863 -13.8536 -13.8380 -13.8344 -13.7501 -13.7275 -13.6642
   -13.6510 -13.6495 -13.6338 -13.6335 -13.6300 -13.6208 -13.6191 -13.6172
   -13.5991 -13.5573 -13.5365 -13.5361 -13.5206 -13.5163 -13.5152 -13.5143
   -13.5106 -13.4943 -13.4929 -13.4369 -13.4012 -13.3171 -13.2993 -13.2782
   -13.2768 -13.1822 -13.1716 -13.1692 -13.1577 -13.1405 -13.1294 -13.1254
   -13.1176 -13.1163 -13.1007 -13.0955 -13.0886 -13.0819 -13.0811 -13.0744
   -13.0613 -13.0597 -13.0558 -13.0435 -13.0337 -13.0293 -13.0254 -13.0221
   -13.0146 -13.0115 -13.0069 -13.0036 -12.9898 -12.9725 -12.9665 -12.9605
   -12.9341 -12.9296 -12.9212 -12.9175 -12.9149 -12.9053 -12.9025 -12.9020
   -12.8986 -12.8976 -12.8894 -12.8799 -12.8508 -12.8354 -12.8090 -12.7279
   -12.6998 -12.6564 -12.6548 -12.6516 -12.6422 -12.6330 -12.6019 -12.5978
   -12.5706 -12.5706 -12.5367 -12.4829 -12.4701 -12.4693 -12.4547 -12.4478
   -12.4337 -12.4229 -12.4117 -12.4098 -12.4020 -12.3851 -12.3578 -12.3236
   -12.2385 -12.2169 -12.2092 -12.2024 -12.1500 -12.1473 -12.1251 -12.1230
   -12.1143 -12.1082 -12.1073 -12.1014 -12.0421 -12.0413 -12.0186 -12.0089
   -11.9997 -11.9944 -11.9930 -11.9704 -11.9559 -11.8595 -11.8578 -11.7685
   -11.7013 -11.6942 -11.6617 -11.6144 -11.6090 -11.5385 -11.4826 -11.3754
   -11.3686 -11.3453 -11.3409 -11.3049 -11.2872 -11.2860 -11.2836 -11.2687
   -11.2324 -11.2046 -11.1783 -11.1675 -11.1662 -11.1566 -11.1451 -11.1032
   -11.0878 -11.0756 -11.0580 -11.0506 -11.0431 -10.9977 -10.9947 -10.9701
   -10.9384 -10.9107 -10.9066 -10.8761 -10.8729 -10.8706 -10.8516 -10.8478
   -10.8373 -10.8309 -10.8204 -10.8140 -10.8108 -10.8037 -10.7965 -10.7867
   -10.7450 -10.7403 -10.7345 -10.7035 -10.6766 -10.6721 -10.6618 -10.6219
   -10.6121 -10.6048 -10.5811 -10.5567 -10.5466 -10.5131 -10.5037 -10.4949
   -10.4512 -10.4459 -10.4261 -10.4127 -10.4034 -10.4011 -10.3954 -10.3947
   -10.3879 -10.3790 -10.3762 -10.3715 -10.3521 -10.3504 -10.3459 -10.3442
   -10.3316 -10.3258 -10.3227 -10.3225 -10.3117 -10.2820 -10.2795 -10.2762
   -10.2631 -10.2611 -10.2586 -10.2540 -10.2446 -10.2417 -10.2388 -10.2221
   -10.2187 -10.2158 -10.2048 -10.2019 -10.1947 -10.1860 -10.1732 -10.1643
   -10.1612 -10.1545 -10.1495 -10.1491 -10.1484 -10.1460 -10.1167 -10.1089
   -10.1087 -10.1010 -10.0574 -10.0342 -10.0311 -10.0299 -10.0249 -10.0082
    -9.9972  -9.9963  -9.9804  -9.9783  -9.9714  -9.9694  -9.9656  -9.9643
    -9.9609  -9.9589  -9.9566  -9.9528  -9.9500  -9.9490  -9.9345  -9.9289
    -9.9201  -9.9042  -9.9033  -9.8977  -9.8969  -9.8903  -9.8852  -9.8829
    -9.8720  -9.8684  -9.8558  -9.8516  -9.8508  -9.7958  -9.7830  -9.7807
    -9.7745  -9.7722  -9.7649  -9.7475  -9.5900  -9.5788  -9.5527  -9.5519
    -9.4926  -9.4854  -9.4107  -9.3684  -9.3405  -9.3396  -9.3152  -9.2834
    -9.2664  -9.2639  -9.2426

     the Fermi energy is   -12.0940 ev

!    total energy              =  -21096.32630470 Ry
     Harris-Foulkes estimate   =  -21096.32630579 Ry
     estimated scf accuracy    <          6.8E-11 Ry

     The total energy is the sum of the following terms:

     one-electron contribution = -745243.34649423 Ry
     hartree contribution      =  372158.66019459 Ry
     xc contribution           =   -2235.67523626 Ry
     ewald contribution        =  359098.87029341 Ry
     Dispersion Correction     =      -1.40070414 Ry
     one-center paw contrib.   =   -4873.43513570 Ry
     smearing contrib. (-TS)   =       0.00077763 Ry

     total magnetization       =   161.20 Bohr mag/cell
     absolute magnetization    =   168.97 Bohr mag/cell

     convergence has been achieved in  25 iterations

     negative rho (up, down):  1.090E-02 1.231E-01

     Forces acting on atoms (cartesian axes, Ry/au):

     atom    1 type  1   force =     0.00048009   -0.00007827    0.00995510
     atom    2 type  1   force =    -0.00126260    0.00170025   -0.00478982
     atom    3 type  1   force =     0.00016088    0.00007586    0.01019449
     atom    4 type  1   force =    -0.00018267    0.00040615   -0.00953259
     atom    5 type  1   force =    -0.00006038   -0.00001815    0.00004934
     atom    6 type  1   force =    -0.00000929   -0.00000317    0.00011347
     atom    7 type  1   force =     0.00000457   -0.00002992   -0.00002446
     atom    8 type  1   force =    -0.00003841    0.00003516   -0.00004417
     atom    9 type  1   force =    -0.00006668   -0.00002513    0.01018782
     atom   10 type  1   force =    -0.00018034   -0.00015694    0.00891272
     atom   11 type  1   force =     0.00013567    0.00022078   -0.01013272
     atom   12 type  1   force =    -0.00013462   -0.00002276   -0.00944585
     atom   13 type  1   force =    -0.00001397   -0.00000685    0.00003653
     atom   14 type  1   force =    -0.00004904   -0.00003196    0.00003212
     atom   15 type  1   force =    -0.00004229   -0.00001618    0.00000993
     atom   16 type  1   force =    -0.00002465   -0.00001243    0.00001804
     atom   17 type  1   force =     0.00016469    0.00015515    0.01019162
     atom   18 type  1   force =     0.00041584   -0.00033111   -0.00946493
     atom   19 type  1   force =    -0.00032957    0.00008115    0.01038506
     atom   20 type  1   force =    -0.00024961    0.00007981   -0.00535096
     atom   21 type  1   force =    -0.00003318    0.00001607   -0.00002794
     atom   22 type  1   force =     0.00001736   -0.00004931   -0.00003946
     atom   23 type  1   force =    -0.00001282    0.00003168   -0.00002161
     atom   24 type  1   force =    -0.00015391    0.00021122    0.00010877
     atom   25 type  1   force =    -0.00001847   -0.00003033    0.00826178
     atom   26 type  1   force =    -0.00002779   -0.00009167    0.00988083
     atom   27 type  1   force =     0.00020143    0.00004770   -0.01036507
     atom   28 type  1   force =     0.00008534   -0.00027796   -0.00893904
     atom   29 type  1   force =    -0.00000615    0.00000057   -0.00021269
     atom   30 type  1   force =     0.00003343   -0.00003908   -0.00014797
     atom   31 type  1   force =    -0.00002689   -0.00002180    0.00012561
     atom   32 type  1   force =     0.00001264    0.00003277    0.00001210
     atom   33 type  1   force =    -0.00022997   -0.00006199    0.00965228
     atom   34 type  1   force =     0.00041384   -0.00036015   -0.00947462
     atom   35 type  1   force =     0.00013212    0.00049622    0.00995410
     atom   36 type  1   force =     0.00109413   -0.00164695   -0.00479899
     atom   37 type  1   force =     0.00008049    0.00000778    0.00003824
     atom   38 type  1   force =     0.00003206   -0.00002573   -0.00003064
     atom   39 type  1   force =    -0.00004181   -0.00005270    0.00005030
     atom   40 type  1   force =    -0.00001687   -0.00000286    0.00012611
     atom   41 type  1   force =    -0.00000543   -0.00000082    0.00711535
     atom   42 type  1   force =    -0.00013270    0.00003881    0.00984028
     atom   43 type  1   force =    -0.00011043    0.00000786   -0.00823768
     atom   44 type  1   force =    -0.00026299    0.00018372   -0.00893034
     atom   45 type  1   force =    -0.00000607   -0.00000321    0.00005652
     atom   46 type  1   force =    -0.00003551    0.00005343   -0.00014323
     atom   47 type  1   force =     0.00005529    0.00004946   -0.00010885
     atom   48 type  1   force =     0.00003602   -0.00000157    0.00003062
     atom   49 type  1   force =     0.00001631   -0.00032484    0.01041506
     atom   50 type  1   force =     0.00005237   -0.00038466   -0.00539136
     atom   51 type  1   force =    -0.00009564   -0.00018823    0.00965618
     atom   52 type  1   force =    -0.00014985    0.00054656   -0.00951389
     atom   53 type  1   force =     0.00001807   -0.00002131   -0.00002304
     atom   54 type  1   force =     0.00014596   -0.00021614    0.00010419
     atom   55 type  1   force =     0.00002957    0.00007438    0.00003303
     atom   56 type  1   force =    -0.00001979    0.00004979   -0.00005133
     atom   57 type  1   force =    -0.00006848   -0.00002392    0.01020430
     atom   58 type  1   force =     0.00017693    0.00008197    0.00886688
     atom   59 type  1   force =     0.00024670    0.00006616   -0.01011211
     atom   60 type  1   force =    -0.00010846   -0.00017352   -0.01010046
     atom   61 type  1   force =    -0.00001777   -0.00000469    0.00003257
     atom   62 type  1   force =     0.00004959    0.00003652    0.00005656
     atom   63 type  1   force =    -0.00002876   -0.00003400    0.00001949
     atom   64 type  1   force =     0.00001318    0.00000843    0.00011404
     atom   65 type  2   force =     0.00000498    0.00000144    0.00005532
     atom   66 type  3   force =    -0.00008776   -0.00006495   -0.00010137
     atom   67 type  3   force =     0.00001503    0.00001489   -0.00008008
     atom   68 type  3   force =     0.00001701    0.00002356    0.00017432

     Total force =     0.000688     Total SCF correction =     0.000016

     bfgs converged in  18 scf cycles and  17 bfgs steps
     (criteria: energy <  7.3E-07 Ry, force <  3.9E-04 Ry/Bohr)

     End of BFGS Geometry Optimization

     Final energy   =  -21096.3263047027 Ry
Begin final coordinates

ATOMIC_POSITIONS (angstrom)
Fe       1.654912953   1.170200133   0.000000000    0   0   0
Fe       0.000000000   0.000000000   2.026984232    0   0   0
Fe       4.964738858   3.510600399   0.000000000    0   0   0
Fe       3.309825906   2.340400266   2.026984232    0   0   0
Fe       1.649644937   1.169183588   4.025455159
Fe       3.308409875   9.372772650   6.021076348
Fe       4.962693213   3.517712903   4.018672645
Fe       3.313094545   2.327870648   6.006609179
Fe       2.482363858   3.510600399   0.000000000    0   0   0
Fe       4.137287953   1.170200133   0.000000000    0   0   0
Fe       0.827450906   2.340400266   2.026984232    0   0   0
Fe       2.482375000   0.000000000   2.026984232    0   0   0
Fe       2.482915974   3.509499601   4.033500194
Fe       4.132498656   1.166804416   4.022613640
Fe       0.815049564   2.341261617   6.002377218
Fe       2.480660351  -0.001311296   6.006189202
Fe       6.619662953   1.170200133   0.000000000    0   0   0
Fe       4.964750000   0.000000000   2.026984232    0   0   0
Fe       9.929488858   3.510600399   0.000000000    0   0   0
Fe       8.274575906   2.340400266   2.026984232    0   0   0
Fe       6.625719382   1.165872756   4.018583857
Fe       4.954225301   0.007226591   6.006724878
Fe       9.931585637   3.502061026   4.016810488
Fe       8.278899207   2.334528537   6.112996777
Fe       7.447113858   3.510600399   0.000000000    0   0   0
Fe       9.102037953   1.170200133   0.000000000    0   0   0
Fe       5.792200906   2.340400266   2.026984232    0   0   0
Fe       7.447125000   0.000000000   2.026984232    0   0   0
Fe       7.446930063   3.510337672   4.051070724
Fe       9.093112461   1.180492711   4.061346800
Fe       5.761439765   2.318478472   5.941534082
Fe      10.763858474   9.377652812   6.001152275
Fe       3.309814764   5.851000664   0.000000000    0   0   0
Fe       1.654901811   4.680800531   2.026984232    0   0   0
Fe       6.619640670   8.191400930   0.000000000    0   0   0
Fe       4.964727717   7.021200797   2.026984232    0   0   0
Fe       3.314260406   5.853728389   4.033177282
Fe      11.581796036   4.683023706   5.999777585
Fe       6.617057316   8.187104875   4.025351881
Fe       4.974859553   7.016147462   6.021536222
Fe       4.137265670   8.191400930   0.000000000    0   0   0
Fe       5.792189764   5.851000664   0.000000000    0   0   0
Fe       2.482352717   7.021200797   2.026984232    0   0   0
Fe       4.137276811   4.680800531   2.026984232    0   0   0
Fe       4.135415742   8.190189266   4.028416806
Fe       5.798774712   5.839413919   4.061127666
Fe      12.401672920   7.013946943   6.030319048
Fe       4.154340969   4.682211455   6.001091494
Fe       8.274564764   5.851000664   0.000000000    0   0   0
Fe       6.619651811   4.680800531   2.026984232    0   0   0
Fe      11.584390670   8.191400930   0.000000000    0   0   0
Fe       9.929477717   7.021200797   2.026984232    0   0   0
Fe       8.267334841   5.855765174   4.016915470
Fe       6.615412582   4.686789779   6.112878487
Fe      11.588425283   8.195016481   4.033178618
Fe       9.930981141   7.018023654   6.000643103
Fe       9.102015670   8.191400930   0.000000000    0   0   0
Fe      10.756939764   5.851000664   0.000000000    0   0   0
Fe       7.447102717   7.021200797   2.026984232    0   0   0
Fe       9.102026811   4.680800531   2.026984232    0   0   0
Fe       9.101684804   8.192264414   4.033779593
Fe      10.761335218   5.854190869   4.020574778
Fe       7.443751842   7.009322203   6.002164946
Fe       9.134689824   4.703668342   5.940002548
N        7.446041180   3.509870257   7.498068460
H        8.099057782   3.971838784   8.152987658
H        6.794323288   3.048726265   8.154736803
H        4.545081016   8.479824231   6.937513268
End final coordinates



     Writing output data file Fe_NH2_H_paper_480c_ESM_pn5.save/

     init_run     :     87.20s CPU     89.19s WALL (       1 calls)
     electrons    : 196742.00s CPU 198325.71s WALL (      18 calls)
     update_pot   :    310.51s CPU    310.82s WALL (      17 calls)
     forces       :    810.16s CPU    818.28s WALL (      18 calls)

     Called by init_run:
     wfcinit      :     61.13s CPU     62.92s WALL (       1 calls)
     potinit      :      8.07s CPU      8.11s WALL (       1 calls)
     hinit0       :     14.90s CPU     14.96s WALL (       1 calls)

     Called by electrons:
     c_bands      : 178597.35s CPU 179939.25s WALL (     647 calls)
     sum_band     :  10285.25s CPU  10449.30s WALL (     647 calls)
     v_of_rho     :   1055.31s CPU   1059.51s WALL (     651 calls)
     newd         :    191.63s CPU    198.79s WALL (     651 calls)
     PAW_pot      :    296.61s CPU    297.51s WALL (     668 calls)
     mix_rho      :   5959.45s CPU   6016.09s WALL (     647 calls)

     Called by c_bands:
     init_us_2    :    297.78s CPU    300.58s WALL (    3990 calls)
     cegterg      : 113598.93s CPU 114491.37s WALL (    1946 calls)

     Called by sum_band:
     sum_band:bec :     19.11s CPU     19.20s WALL (    1992 calls)
     addusdens    :    233.66s CPU    248.24s WALL (     647 calls)

     Called by *egterg:
     h_psi        :  41737.80s CPU  42104.52s WALL (   10134 calls)
     s_psi        :   8523.82s CPU   8541.95s WALL (   10134 calls)
     g_psi        :    107.87s CPU    108.30s WALL (    8185 calls)
     cdiaghg      :  33822.12s CPU  33980.73s WALL (   10038 calls)

     Called by h_psi:
     h_psi:pot    :  41570.79s CPU  41810.52s WALL (   10134 calls)
     h_psi:calbec :   8625.64s CPU   8641.18s WALL (   10134 calls)
     vloc_psi     :  24399.60s CPU  24605.44s WALL (   10134 calls)
     add_vuspsi   :   8545.41s CPU   8563.83s WALL (   10134 calls)

     General routines
     calbec       :  12609.26s CPU  12633.18s WALL (   12342 calls)
     fft          :    654.51s CPU    658.07s WALL (   16554 calls)
     ffts         :   3088.93s CPU   3109.64s WALL (  367949 calls)
     fftw         :  24018.48s CPU  24230.95s WALL ( 6949467 calls)
     interpolate  :     64.75s CPU     65.12s WALL (    1302 calls)
     davcio       :      3.54s CPU    369.38s WALL (   18678 calls)

     Parallel routines
     fft_scatt_xy :   4860.23s CPU   4886.12s WALL ( 7333970 calls)
     fft_scatt_yz :   6836.71s CPU   6943.55s WALL ( 7333970 calls)

     PWSCF        :   2d 7h 2m CPU   2d 7h29m WALL


   This run was terminated on:  22:36:49  17Jun2022            

=------------------------------------------------------------------------------=
   JOB DONE.
=------------------------------------------------------------------------------=
