     Message from routine get_command_line:
     unexpected argument # 4     :-in

     Program PWSCF v.6.7MaX starts on 28Sep2022 at 20:55:41 

     This program is part of the open-source Quantum ESPRESSO suite
     for quantum simulation of materials; please cite
         "P. Giannozzi et al., J. Phys.:Condens. Matter 21 395502 (2009);
         "P. Giannozzi et al., J. Phys.:Condens. Matter 29 465901 (2017);
          URL http://www.quantum-espresso.org", 
     in publications or presentations arising from this work. More details at
     http://www.quantum-espresso.org/quote

     Parallel version (MPI), running on   120 processors

     MPI processes distributed on     1 nodes
     K-points division:     npool     =       8
     R & G space division:  proc/nbgrp/npool/nimage =      15
     Waiting for input...
     Reading input from standard input
Warning: card &CELL ignored
Warning: card / ignored

     Current dimensions of program PWSCF are:
     Max number of different atomic species (ntypx) = 10
     Max number of k-points (npk) =  40000
     Max angular momentum in pseudopotentials (lmaxx) =  3

     IMPORTANT: XC functional enforced from input :
     Exchange-correlation= PBE
                           (   1   4   3   4   0   0   0)
     Any further DFT definition will be discarded
     Please, verify this is what you really want


     -------------------------------------------------
     Parameters for Dispersion (Grimme-D2) Correction:
     -------------------------------------------------
       atom      VdW radius       C_6     

        N          2.640         42.670
        H          1.892          4.857

     Subspace diagonalization in iterative solution of the eigenvalue problem:
     one sub-group per band group will be used
     scalapack distributed-memory algorithm (size of sub-group:  3*  3 procs)


     Parallelization info
     --------------------
     sticks:   dense  smooth     PW     G-vecs:    dense   smooth      PW
     Min        3636    1818    468               639190   225950   29545
     Max        3637    1819    470               639197   225953   29547
     Sum       54553   27281   7033              9587919  3389267  443191



     bravais-lattice index     =            0
     lattice parameter (alat)  =      37.7945  a.u.
     unit-cell volume          =   53986.6760 (a.u.)^3
     number of atoms/cell      =            2
     number of atomic types    =            2
     number of electrons       =         6.00
     number of Kohn-Sham states=            7
     kinetic-energy cutoff     =      60.0000  Ry
     charge density cutoff     =     480.0000  Ry
     scf convergence threshold =      1.0E-08
     mixing beta               =       0.7000
     number of iterations used =           10  plain     mixing
     energy convergence thresh.=      7.3E-07
     force convergence thresh. =      3.9E-04
     Exchange-correlation= PBE
                           (   1   4   3   4   0   0   0)
     nstep                     =           50


     celldm(1)=  37.794522  celldm(2)=   0.000000  celldm(3)=   0.000000
     celldm(4)=   0.000000  celldm(5)=   0.000000  celldm(6)=   0.000000

     crystal axes: (cart. coord. in units of alat)
               a(1) = (   1.000000   0.000000   0.000000 )  
               a(2) = (   0.000000   1.000000   0.000000 )  
               a(3) = (   0.000000   0.000000   1.000000 )  

     reciprocal axes: (cart. coord. in units 2 pi/alat)
               b(1) = (  1.000000  0.000000  0.000000 )  
               b(2) = (  0.000000  1.000000  0.000000 )  
               b(3) = (  0.000000  0.000000  1.000000 )  


     PseudoPot. # 1 for N  read from file:
     ../../SSSP/N.pbe-n-radius_5.UPF
     MD5 check sum: 16739722b17309cd8fe442a2ace49922
     Pseudo is Ultrasoft + core correction, Zval =  5.0
     Generated using "atomic" code by A. Dal Corso  v.5.1
     Using radial grid of 1085 points,  4 beta functions with: 
                l(1) =   0
                l(2) =   0
                l(3) =   1
                l(4) =   1
     Q(r) pseudized with 0 coefficients 


     PseudoPot. # 2 for H  read from file:
     ../../SSSP/H.pbe-rrkjus_psl.1.0.0.UPF
     MD5 check sum: f52b6d4d1c606e5624b1dc7b2218f220
     Pseudo is Ultrasoft, Zval =  1.0
     Generated using "atomic" code by A. Dal Corso  v.5.1
     Using radial grid of  929 points,  2 beta functions with: 
                l(1) =   0
                l(2) =   0
     Q(r) pseudized with 0 coefficients 


     atomic species   valence    mass     pseudopotential
        N              5.00    14.00700     N ( 1.00)
        H              1.00     1.00800     H ( 1.00)

     Starting magnetic structure 
     atomic species   magnetization
        N            0.100
        H            0.100

     No symmetry found



   Cartesian axes

     site n.     atom                  positions (alat units)
         1           N   tau(   1) = (   0.5000000   0.5000000   0.0000000  )
         2           H   tau(   2) = (   0.5001513   0.4999379  -0.0524424  )

     number of k points=    10  Methfessel-Paxton smearing, width (Ry)=  0.0100
                       cart. coord. in units 2pi/alat
        k(    1) = (   0.0000000   0.0000000   0.0000000), wk =   0.0625000
        k(    2) = (   0.0000000   0.2500000   0.0000000), wk =   0.1250000
        k(    3) = (   0.0000000  -0.5000000   0.0000000), wk =   0.0625000
        k(    4) = (   0.2500000   0.0000000   0.0000000), wk =   0.1250000
        k(    5) = (   0.2500000   0.2500000   0.0000000), wk =   0.1250000
        k(    6) = (   0.2500000  -0.5000000   0.0000000), wk =   0.1250000
        k(    7) = (   0.2500000  -0.2500000   0.0000000), wk =   0.1250000
        k(    8) = (  -0.5000000   0.0000000   0.0000000), wk =   0.0625000
        k(    9) = (  -0.5000000   0.2500000   0.0000000), wk =   0.1250000
        k(   10) = (  -0.5000000  -0.5000000   0.0000000), wk =   0.0625000

     Dense  grid:  9587919 G-vectors     FFT dimensions: ( 270, 270, 270)

     Smooth grid:  3389267 G-vectors     FFT dimensions: ( 192, 192, 192)

     Estimated max dynamical RAM per process >     385.51 MB

     Estimated total dynamical RAM >      45.18 GB

     Adding external electric field
        E field amplitude [Ha a.u.]: -3.1525E-02
        Potential amp.       -2.1446 Ry
        Total length         34.0151 bohr

     Generating pointlists ...
     new r_m :   0.0216 (alat units)  0.8176 (a.u.) for type    1
     new r_m :   0.0216 (alat units)  0.8176 (a.u.) for type    2

     Initial potential from superposition of free atoms

     starting charge    5.99998, renormalised to    6.00000

     negative rho (up, down):  9.688E-05 7.927E-05
     Starting wfcs are    5 randomized atomic wfcs +    2 random wfcs

     total cpu time spent up to now is       21.4 secs

     Self-consistent Calculation

     iteration #  1     ecut=    60.00 Ry     beta= 0.70
     CG style diagonalization
     c_bands:  1 eigenvalues not converged
     c_bands:  2 eigenvalues not converged
     c_bands:  2 eigenvalues not converged
     ethr =  1.00E-04,  avg # of iterations = 11.3

     negative rho (up, down):  2.372E-04 9.698E-05

     total cpu time spent up to now is       51.5 secs

     total energy              =     -21.09889294 Ry
     estimated scf accuracy    <       0.17136157 Ry

     total magnetization       =     2.00 Bohr mag/cell
     absolute magnetization    =     2.00 Bohr mag/cell

     iteration #  2     ecut=    60.00 Ry     beta= 0.70
     CG style diagonalization
     ethr =  2.86E-03,  avg # of iterations =  3.2

     negative rho (up, down):  2.272E-04 1.177E-04

     total cpu time spent up to now is       68.5 secs

     total energy              =     -21.12783112 Ry
     estimated scf accuracy    <       0.01773472 Ry

     total magnetization       =     2.00 Bohr mag/cell
     absolute magnetization    =     2.02 Bohr mag/cell

     iteration #  3     ecut=    60.00 Ry     beta= 0.70
     CG style diagonalization
     ethr =  2.96E-04,  avg # of iterations =  3.7

     negative rho (up, down):  2.689E-04 1.262E-04

     total cpu time spent up to now is       86.5 secs

     total energy              =     -21.14088738 Ry
     estimated scf accuracy    <       0.00158879 Ry

     total magnetization       =     2.00 Bohr mag/cell
     absolute magnetization    =     2.03 Bohr mag/cell

     iteration #  4     ecut=    60.00 Ry     beta= 0.70
     CG style diagonalization
     ethr =  2.65E-05,  avg # of iterations =  5.3

     negative rho (up, down):  2.845E-04 1.311E-04

     total cpu time spent up to now is      107.4 secs

     total energy              =     -21.14147229 Ry
     estimated scf accuracy    <       0.00006222 Ry

     total magnetization       =     2.00 Bohr mag/cell
     absolute magnetization    =     2.04 Bohr mag/cell

     iteration #  5     ecut=    60.00 Ry     beta= 0.70
     CG style diagonalization
     c_bands:  1 eigenvalues not converged
     ethr =  1.04E-06,  avg # of iterations =  8.4

     negative rho (up, down):  2.882E-04 1.318E-04

     total cpu time spent up to now is      133.1 secs

     total energy              =     -21.14157646 Ry
     estimated scf accuracy    <       0.00000962 Ry

     total magnetization       =     2.00 Bohr mag/cell
     absolute magnetization    =     2.04 Bohr mag/cell

     iteration #  6     ecut=    60.00 Ry     beta= 0.70
     CG style diagonalization
     ethr =  1.60E-07,  avg # of iterations =  4.8

     negative rho (up, down):  2.890E-04 1.322E-04

     total cpu time spent up to now is      153.1 secs

     total energy              =     -21.14157675 Ry
     estimated scf accuracy    <       0.00002212 Ry

     total magnetization       =     2.00 Bohr mag/cell
     absolute magnetization    =     2.05 Bohr mag/cell

     iteration #  7     ecut=    60.00 Ry     beta= 0.70
     CG style diagonalization
     ethr =  1.60E-07,  avg # of iterations =  3.4

     negative rho (up, down):  2.887E-04 1.308E-04

     total cpu time spent up to now is      170.9 secs

     total energy              =     -21.14158089 Ry
     estimated scf accuracy    <       0.00000443 Ry

     total magnetization       =     2.00 Bohr mag/cell
     absolute magnetization    =     2.05 Bohr mag/cell

     iteration #  8     ecut=    60.00 Ry     beta= 0.70
     CG style diagonalization
     ethr =  7.39E-08,  avg # of iterations =  3.3

     negative rho (up, down):  2.887E-04 1.306E-04

     total cpu time spent up to now is      188.9 secs

     total energy              =     -21.14158348 Ry
     estimated scf accuracy    <       0.00000016 Ry

     total magnetization       =     2.00 Bohr mag/cell
     absolute magnetization    =     2.05 Bohr mag/cell

     iteration #  9     ecut=    60.00 Ry     beta= 0.70
     CG style diagonalization
     ethr =  2.67E-09,  avg # of iterations =  3.9

     negative rho (up, down):  2.887E-04 1.306E-04

     total cpu time spent up to now is      207.8 secs

     total energy              =     -21.14158382 Ry
     estimated scf accuracy    <       0.00000002 Ry

     total magnetization       =     2.00 Bohr mag/cell
     absolute magnetization    =     2.05 Bohr mag/cell

     iteration # 10     ecut=    60.00 Ry     beta= 0.70
     CG style diagonalization
     ethr =  3.85E-10,  avg # of iterations =  3.7

     negative rho (up, down):  2.887E-04 1.306E-04

     total cpu time spent up to now is      226.4 secs

     total energy              =     -21.14158379 Ry
     estimated scf accuracy    <       0.00000004 Ry

     total magnetization       =     2.00 Bohr mag/cell
     absolute magnetization    =     2.05 Bohr mag/cell

     iteration # 11     ecut=    60.00 Ry     beta= 0.70
     CG style diagonalization
     ethr =  3.85E-10,  avg # of iterations =  3.5

     negative rho (up, down):  2.887E-04 1.306E-04

     Magnetic moment per site:
     atom:    1    charge:    1.3492    magn:    0.5544    constr:    0.0000
     atom:    2    charge:    0.4452    magn:   -0.0100    constr:    0.0000

     total cpu time spent up to now is      242.3 secs

     End of self-consistent calculation

 ------ SPIN UP ------------


          k = 0.0000 0.0000 0.0000 (423701 PWs)   bands (ev):

   -31.8065 -20.8564 -19.0907 -19.0903 -11.4719 -10.9875 -10.8784

          k = 0.0000 0.2500 0.0000 (423725 PWs)   bands (ev):

   -31.8065 -20.8564 -19.0907 -19.0903 -11.4676 -11.0372 -10.8661

          k = 0.0000-0.5000 0.0000 (423542 PWs)   bands (ev):

   -31.8065 -20.8564 -19.0907 -19.0903 -11.4631 -11.0724 -10.8442

          k = 0.2500 0.0000 0.0000 (423725 PWs)   bands (ev):

   -31.8065 -20.8564 -19.0907 -19.0903 -11.4676 -11.0368 -10.8675

          k = 0.2500 0.2500 0.0000 (423766 PWs)   bands (ev):

   -31.8065 -20.8564 -19.0907 -19.0903 -11.4637 -11.0344 -10.9669

          k = 0.2500-0.5000 0.0000 (423782 PWs)   bands (ev):

   -31.8065 -20.8564 -19.0907 -19.0903 -11.4595 -11.0509 -10.9642

          k = 0.2500-0.2500 0.0000 (423766 PWs)   bands (ev):

   -31.8065 -20.8564 -19.0907 -19.0903 -11.4637 -11.0347 -10.9667

          k =-0.5000 0.0000 0.0000 (423542 PWs)   bands (ev):

   -31.8065 -20.8564 -19.0907 -19.0903 -11.4629 -11.0724 -10.8405

          k =-0.5000 0.2500 0.0000 (423782 PWs)   bands (ev):

   -31.8065 -20.8564 -19.0907 -19.0903 -11.4596 -11.0513 -10.9651

          k =-0.5000-0.5000 0.0000 (423708 PWs)   bands (ev):

   -31.8065 -20.8564 -19.0907 -19.0903 -11.4558 -11.0093 -10.9437

 ------ SPIN DOWN ----------


          k = 0.0000 0.0000 0.0000 (423701 PWs)   bands (ev):

   -29.0673 -19.8194 -15.2398 -15.2395 -11.1858 -10.8483 -10.7654

          k = 0.0000 0.2500 0.0000 (423725 PWs)   bands (ev):

   -29.0673 -19.8194 -15.2398 -15.2395 -11.1659 -10.9531 -10.7736

          k = 0.0000-0.5000 0.0000 (423542 PWs)   bands (ev):

   -29.0673 -19.8194 -15.2398 -15.2395 -11.1322 -11.0310 -10.7322

          k = 0.2500 0.0000 0.0000 (423725 PWs)   bands (ev):

   -29.0673 -19.8194 -15.2398 -15.2395 -11.1663 -10.9532 -10.7493

          k = 0.2500 0.2500 0.0000 (423766 PWs)   bands (ev):

   -29.0673 -19.8194 -15.2398 -15.2395 -11.1469 -10.9502 -10.8973

          k = 0.2500-0.5000 0.0000 (423782 PWs)   bands (ev):

   -29.0673 -19.8194 -15.2398 -15.2395 -11.1149 -11.0075 -10.8690

          k = 0.2500-0.2500 0.0000 (423766 PWs)   bands (ev):

   -29.0673 -19.8194 -15.2398 -15.2395 -11.1469 -10.9502 -10.8979

          k =-0.5000 0.0000 0.0000 (423542 PWs)   bands (ev):

   -29.0673 -19.8194 -15.2398 -15.2395 -11.1324 -11.0308 -10.7298

          k =-0.5000 0.2500 0.0000 (423782 PWs)   bands (ev):

   -29.0673 -19.8194 -15.2398 -15.2395 -11.1146 -11.0068 -10.8245

          k =-0.5000-0.5000 0.0000 (423708 PWs)   bands (ev):

   -29.0673 -19.8194 -15.2398 -15.2395 -11.0889 -10.9445 -10.9356

     the Fermi energy is   -15.3542 ev

!    total energy              =     -21.14158385 Ry
     estimated scf accuracy    <          5.4E-09 Ry
     smearing contrib. (-TS)   =       0.00057979 Ry
     internal energy E=F+TS    =     -21.14216364 Ry

     The total energy is F=E-TS. E is the sum of the following terms:
     one-electron contribution =     -41.92014875 Ry
     hartree contribution      =      19.45697925 Ry
     xc contribution           =      -5.90241765 Ry
     ewald contribution        =       2.34424492 Ry
     Dispersion Correction     =      -0.00000239 Ry
     electric field correction =       4.87918098 Ry

     total magnetization       =     2.00 Bohr mag/cell
     absolute magnetization    =     2.05 Bohr mag/cell

     convergence has been achieved in  11 iterations

     negative rho (up, down):  2.887E-04 1.306E-04

     Forces acting on atoms (cartesian axes, Ry/au):

     atom    1 type  1   force =     0.00005883   -0.00002415   -0.00116470
     atom    2 type  2   force =    -0.00005883    0.00002415    0.00116470

     Total force =     0.001166     Total SCF correction =     0.000003

     BFGS Geometry Optimization
     Energy error            =      0.0E+00
     Gradient error          =      1.2E-03

     number of scf cycles    =   1
     number of bfgs steps    =   0

     energy   new            =     -21.1415838465 Ry

     new trust radius        =       0.0011664306 bohr
     new conv_thr            =       0.0000000100 Ry


ATOMIC_POSITIONS (angstrom)
N            10.0000000000       10.0000000000        0.0000000000    0   0   0
H            10.0029955284        9.9987701105       -1.0482315666



     Writing output data file ./NH_ESM_VA16.save/
     NEW-OLD atomic charge density approx. for the potential

     negative rho (up, down):  1.646E-04 2.100E-04

     Adding external electric field
        E field amplitude [Ha a.u.]: -3.1525E-02
        Potential amp.       -2.1446 Ry
        Total length         34.0151 bohr

     Generating pointlists ...

     total cpu time spent up to now is      263.7 secs

     Self-consistent Calculation

     iteration #  1     ecut=    60.00 Ry     beta= 0.70
     CG style diagonalization
     ethr =  1.00E-06,  avg # of iterations =  2.0

     Threshold (ethr) on eigenvalues was too large:
     Diagonalizing with lowered threshold

     CG style diagonalization
     ethr =  2.31E-09,  avg # of iterations =  2.7

     negative rho (up, down):  2.585E-04 1.470E-04

     total cpu time spent up to now is      285.8 secs

     total energy              =     -21.14158278 Ry
     estimated scf accuracy    <       0.00000018 Ry

     total magnetization       =     2.00 Bohr mag/cell
     absolute magnetization    =     2.05 Bohr mag/cell

     iteration #  2     ecut=    60.00 Ry     beta= 0.70
     CG style diagonalization
     ethr =  3.08E-09,  avg # of iterations =  3.4

     negative rho (up, down):  2.666E-04 1.495E-04

     total cpu time spent up to now is      303.1 secs

     total energy              =     -21.14158294 Ry
     estimated scf accuracy    <       0.00000056 Ry

     total magnetization       =     2.00 Bohr mag/cell
     absolute magnetization    =     2.05 Bohr mag/cell

     iteration #  3     ecut=    60.00 Ry     beta= 0.70
     CG style diagonalization
     ethr =  3.08E-09,  avg # of iterations =  3.0

     negative rho (up, down):  2.812E-04 1.369E-04

     total cpu time spent up to now is      319.8 secs

     total energy              =     -21.14158250 Ry
     estimated scf accuracy    <       0.00000049 Ry

     total magnetization       =     2.00 Bohr mag/cell
     absolute magnetization    =     2.05 Bohr mag/cell

     iteration #  4     ecut=    60.00 Ry     beta= 0.70
     CG style diagonalization
     ethr =  3.08E-09,  avg # of iterations =  3.1

     negative rho (up, down):  2.823E-04 1.368E-04

     total cpu time spent up to now is      336.9 secs

     total energy              =     -21.14158265 Ry
     estimated scf accuracy    <       0.00000011 Ry

     total magnetization       =     2.00 Bohr mag/cell
     absolute magnetization    =     2.05 Bohr mag/cell

     iteration #  5     ecut=    60.00 Ry     beta= 0.70
     CG style diagonalization
     ethr =  1.86E-09,  avg # of iterations =  3.0

     negative rho (up, down):  2.873E-04 1.320E-04

     total cpu time spent up to now is      353.8 secs

     total energy              =     -21.14158267 Ry
     estimated scf accuracy    <       0.00000003 Ry

     total magnetization       =     2.00 Bohr mag/cell
     absolute magnetization    =     2.05 Bohr mag/cell

     iteration #  6     ecut=    60.00 Ry     beta= 0.70
     CG style diagonalization
     ethr =  4.21E-10,  avg # of iterations =  3.4

     negative rho (up, down):  2.888E-04 1.307E-04

     Magnetic moment per site:
     atom:    1    charge:    1.3493    magn:    0.5544    constr:    0.0000
     atom:    2    charge:    0.4457    magn:   -0.0100    constr:    0.0000

     total cpu time spent up to now is      369.6 secs

     End of self-consistent calculation

 ------ SPIN UP ------------


          k = 0.0000 0.0000 0.0000 (423701 PWs)   bands (ev):

   -31.8109 -20.8587 -19.0917 -19.0917 -11.4718 -10.9876 -10.8786

          k = 0.0000 0.2500 0.0000 (423725 PWs)   bands (ev):

   -31.8109 -20.8587 -19.0917 -19.0917 -11.4675 -11.0374 -10.8663

          k = 0.0000-0.5000 0.0000 (423542 PWs)   bands (ev):

   -31.8109 -20.8587 -19.0917 -19.0917 -11.4630 -11.0728 -10.8444

          k = 0.2500 0.0000 0.0000 (423725 PWs)   bands (ev):

   -31.8109 -20.8587 -19.0917 -19.0917 -11.4675 -11.0370 -10.8675

          k = 0.2500 0.2500 0.0000 (423766 PWs)   bands (ev):

   -31.8109 -20.8587 -19.0917 -19.0917 -11.4636 -11.0346 -10.9670

          k = 0.2500-0.5000 0.0000 (423782 PWs)   bands (ev):

   -31.8109 -20.8587 -19.0917 -19.0917 -11.4594 -11.0513 -10.9644

          k = 0.2500-0.2500 0.0000 (423766 PWs)   bands (ev):

   -31.8109 -20.8587 -19.0917 -19.0917 -11.4636 -11.0348 -10.9669

          k =-0.5000 0.0000 0.0000 (423542 PWs)   bands (ev):

   -31.8109 -20.8587 -19.0917 -19.0917 -11.4629 -11.0728 -10.8407

          k =-0.5000 0.2500 0.0000 (423782 PWs)   bands (ev):

   -31.8109 -20.8587 -19.0917 -19.0917 -11.4595 -11.0516 -10.9652

          k =-0.5000-0.5000 0.0000 (423708 PWs)   bands (ev):

   -31.8109 -20.8587 -19.0917 -19.0917 -11.4557 -11.0096 -10.9438

 ------ SPIN DOWN ----------


          k = 0.0000 0.0000 0.0000 (423701 PWs)   bands (ev):

   -29.0722 -19.8210 -15.2407 -15.2407 -11.1858 -10.8483 -10.7654

          k = 0.0000 0.2500 0.0000 (423725 PWs)   bands (ev):

   -29.0722 -19.8210 -15.2407 -15.2407 -11.1660 -10.9530 -10.7737

          k = 0.0000-0.5000 0.0000 (423542 PWs)   bands (ev):

   -29.0722 -19.8210 -15.2407 -15.2407 -11.1322 -11.0309 -10.7322

          k = 0.2500 0.0000 0.0000 (423725 PWs)   bands (ev):

   -29.0722 -19.8210 -15.2407 -15.2407 -11.1662 -10.9531 -10.7494

          k = 0.2500 0.2500 0.0000 (423766 PWs)   bands (ev):

   -29.0722 -19.8210 -15.2407 -15.2407 -11.1469 -10.9501 -10.8973

          k = 0.2500-0.5000 0.0000 (423782 PWs)   bands (ev):

   -29.0722 -19.8210 -15.2407 -15.2407 -11.1149 -11.0075 -10.8691

          k = 0.2500-0.2500 0.0000 (423766 PWs)   bands (ev):

   -29.0722 -19.8210 -15.2407 -15.2407 -11.1469 -10.9502 -10.8978

          k =-0.5000 0.0000 0.0000 (423542 PWs)   bands (ev):

   -29.0722 -19.8210 -15.2407 -15.2407 -11.1324 -11.0308 -10.7300

          k =-0.5000 0.2500 0.0000 (423782 PWs)   bands (ev):

   -29.0722 -19.8210 -15.2407 -15.2407 -11.1147 -11.0068 -10.8247

          k =-0.5000-0.5000 0.0000 (423708 PWs)   bands (ev):

   -29.0722 -19.8210 -15.2407 -15.2407 -11.0889 -10.9445 -10.9356

     the Fermi energy is   -15.3552 ev

!    total energy              =     -21.14158267 Ry
     estimated scf accuracy    <          7.7E-09 Ry
     smearing contrib. (-TS)   =       0.00057979 Ry
     internal energy E=F+TS    =     -21.14216246 Ry

     The total energy is F=E-TS. E is the sum of the following terms:
     one-electron contribution =     -41.92508286 Ry
     hartree contribution      =      19.45940295 Ry
     xc contribution           =      -5.90294465 Ry
     ewald contribution        =       2.34721007 Ry
     Dispersion Correction     =      -0.00000239 Ry
     electric field correction =       4.87925442 Ry

     total magnetization       =     2.00 Bohr mag/cell
     absolute magnetization    =     2.05 Bohr mag/cell

     convergence has been achieved in   6 iterations

     negative rho (up, down):  2.888E-04 1.307E-04

     Forces acting on atoms (cartesian axes, Ry/au):

     atom    1 type  1   force =     0.00005586   -0.00002298   -0.00032494
     atom    2 type  2   force =    -0.00005586    0.00002298    0.00032494

     Total force =     0.000331     Total SCF correction =     0.000025
     Energy error            =      1.2E-06
     Gradient error          =      3.2E-04

     number of scf cycles    =   2
     number of bfgs steps    =   1

     energy   old            =     -21.1415838465 Ry
     energy   new            =     -21.1415826725 Ry

     CASE: energy  _new > energy  _old

     new trust radius        =       0.0003130733 bohr
     new conv_thr            =       0.0000000100 Ry


ATOMIC_POSITIONS (angstrom)
N            10.0000000000       10.0000000000        0.0000000000    0   0   0
H            10.0030183056        9.9987607591       -1.0486824721



     Writing output data file ./NH_ESM_VA16.save/
     NEW-OLD atomic charge density approx. for the potential

     negative rho (up, down):  1.645E-04 2.100E-04

     Adding external electric field
        E field amplitude [Ha a.u.]: -3.1525E-02
        Potential amp.       -2.1446 Ry
        Total length         34.0151 bohr

     Generating pointlists ...

     total cpu time spent up to now is      390.6 secs

     Self-consistent Calculation

     iteration #  1     ecut=    60.00 Ry     beta= 0.70
     CG style diagonalization
     ethr =  1.00E-06,  avg # of iterations =  2.0

     Threshold (ethr) on eigenvalues was too large:
     Diagonalizing with lowered threshold

     CG style diagonalization
     ethr =  1.04E-09,  avg # of iterations =  2.9

     negative rho (up, down):  2.585E-04 1.469E-04

     total cpu time spent up to now is      413.1 secs

     total energy              =     -21.14158359 Ry
     estimated scf accuracy    <       0.00000010 Ry

     total magnetization       =     2.00 Bohr mag/cell
     absolute magnetization    =     2.05 Bohr mag/cell

     iteration #  2     ecut=    60.00 Ry     beta= 0.70
     CG style diagonalization
     ethr =  1.60E-09,  avg # of iterations =  3.4

     negative rho (up, down):  2.766E-04 1.381E-04

     total cpu time spent up to now is      430.6 secs

     total energy              =     -21.14158364 Ry
     estimated scf accuracy    <       0.00000003 Ry

     total magnetization       =     2.00 Bohr mag/cell
     absolute magnetization    =     2.05 Bohr mag/cell

     iteration #  3     ecut=    60.00 Ry     beta= 0.70
     CG style diagonalization
     ethr =  4.25E-10,  avg # of iterations =  3.4

     negative rho (up, down):  2.775E-04 1.408E-04

     total cpu time spent up to now is      448.1 secs

     total energy              =     -21.14158358 Ry
     estimated scf accuracy    <       0.00000009 Ry

     total magnetization       =     2.00 Bohr mag/cell
     absolute magnetization    =     2.05 Bohr mag/cell

     iteration #  4     ecut=    60.00 Ry     beta= 0.70
     CG style diagonalization
     ethr =  4.25E-10,  avg # of iterations =  3.1

     negative rho (up, down):  2.887E-04 1.306E-04

     Magnetic moment per site:
     atom:    1    charge:    1.3492    magn:    0.5544    constr:    0.0000
     atom:    2    charge:    0.4453    magn:   -0.0100    constr:    0.0000

     total cpu time spent up to now is      463.3 secs

     End of self-consistent calculation

 ------ SPIN UP ------------


          k = 0.0000 0.0000 0.0000 (423701 PWs)   bands (ev):

   -31.8076 -20.8570 -19.0909 -19.0906 -11.4721 -10.9881 -10.8790

          k = 0.0000 0.2500 0.0000 (423725 PWs)   bands (ev):

   -31.8076 -20.8570 -19.0909 -19.0906 -11.4678 -11.0379 -10.8667

          k = 0.0000-0.5000 0.0000 (423542 PWs)   bands (ev):

   -31.8076 -20.8570 -19.0909 -19.0906 -11.4633 -11.0734 -10.8448

          k = 0.2500 0.0000 0.0000 (423725 PWs)   bands (ev):

   -31.8076 -20.8570 -19.0909 -19.0906 -11.4678 -11.0375 -10.8680

          k = 0.2500 0.2500 0.0000 (423766 PWs)   bands (ev):

   -31.8076 -20.8570 -19.0909 -19.0906 -11.4639 -11.0351 -10.9674

          k = 0.2500-0.5000 0.0000 (423782 PWs)   bands (ev):

   -31.8076 -20.8570 -19.0909 -19.0906 -11.4597 -11.0519 -10.9649

          k = 0.2500-0.2500 0.0000 (423766 PWs)   bands (ev):

   -31.8076 -20.8570 -19.0909 -19.0906 -11.4639 -11.0353 -10.9673

          k =-0.5000 0.0000 0.0000 (423542 PWs)   bands (ev):

   -31.8076 -20.8570 -19.0909 -19.0906 -11.4632 -11.0734 -10.8412

          k =-0.5000 0.2500 0.0000 (423782 PWs)   bands (ev):

   -31.8076 -20.8570 -19.0909 -19.0906 -11.4597 -11.0521 -10.9657

          k =-0.5000-0.5000 0.0000 (423708 PWs)   bands (ev):

   -31.8076 -20.8570 -19.0909 -19.0906 -11.4560 -11.0101 -10.9443

 ------ SPIN DOWN ----------


          k = 0.0000 0.0000 0.0000 (423701 PWs)   bands (ev):

   -29.0685 -19.8197 -15.2401 -15.2397 -11.1853 -10.8479 -10.7645

          k = 0.0000 0.2500 0.0000 (423725 PWs)   bands (ev):

   -29.0685 -19.8197 -15.2401 -15.2397 -11.1655 -10.9523 -10.7730

          k = 0.0000-0.5000 0.0000 (423542 PWs)   bands (ev):

   -29.0685 -19.8197 -15.2401 -15.2397 -11.1318 -11.0301 -10.7316

          k = 0.2500 0.0000 0.0000 (423725 PWs)   bands (ev):

   -29.0685 -19.8197 -15.2401 -15.2397 -11.1656 -10.9523 -10.7487

          k = 0.2500 0.2500 0.0000 (423766 PWs)   bands (ev):

   -29.0685 -19.8197 -15.2401 -15.2397 -11.1463 -10.9495 -10.8965

          k = 0.2500-0.5000 0.0000 (423782 PWs)   bands (ev):

   -29.0685 -19.8197 -15.2401 -15.2397 -11.1144 -11.0066 -10.8684

          k = 0.2500-0.2500 0.0000 (423766 PWs)   bands (ev):

   -29.0685 -19.8197 -15.2401 -15.2397 -11.1463 -10.9495 -10.8969

          k =-0.5000 0.0000 0.0000 (423542 PWs)   bands (ev):

   -29.0685 -19.8197 -15.2401 -15.2397 -11.1319 -11.0300 -10.7295

          k =-0.5000 0.2500 0.0000 (423782 PWs)   bands (ev):

   -29.0685 -19.8197 -15.2401 -15.2397 -11.1143 -11.0060 -10.8240

          k =-0.5000-0.5000 0.0000 (423708 PWs)   bands (ev):

   -29.0685 -19.8197 -15.2401 -15.2397 -11.0886 -10.9436 -10.9348

     the Fermi energy is   -15.3544 ev

!    total energy              =     -21.14158363 Ry
     estimated scf accuracy    <          6.9E-09 Ry
     smearing contrib. (-TS)   =       0.00057980 Ry
     internal energy E=F+TS    =     -21.14216343 Ry

     The total energy is F=E-TS. E is the sum of the following terms:
     one-electron contribution =     -41.92139980 Ry
     hartree contribution      =      19.45753453 Ry
     xc contribution           =      -5.90253690 Ry
     ewald contribution        =       2.34504043 Ry
     Dispersion Correction     =      -0.00000239 Ry
     electric field correction =       4.87920069 Ry

     total magnetization       =     2.00 Bohr mag/cell
     absolute magnetization    =     2.05 Bohr mag/cell

     convergence has been achieved in   4 iterations

     negative rho (up, down):  2.887E-04 1.306E-04

     Forces acting on atoms (cartesian axes, Ry/au):

     atom    1 type  1   force =     0.00005852   -0.00002405   -0.00093639
     atom    2 type  2   force =    -0.00005852    0.00002405    0.00093639

     Total force =     0.000939     Total SCF correction =     0.000004
     Energy error            =      2.1E-07
     Gradient error          =      9.4E-04

     number of scf cycles    =   3
     number of bfgs steps    =   1

     energy   old            =     -21.1415838465 Ry
     energy   new            =     -21.1415836347 Ry

     CASE: energy  _new > energy  _old

     new trust radius        =       0.0000990814 bohr

     trust_radius < trust_radius_min

     resetting bfgs history

     new conv_thr            =       0.0000000100 Ry


ATOMIC_POSITIONS (angstrom)
N            10.0000000000       10.0000000000        0.0000000000    0   0   0
H            10.0029955284        9.9987701105       -1.0482315666



     Writing output data file ./NH_ESM_VA16.save/
     NEW-OLD atomic charge density approx. for the potential

     negative rho (up, down):  1.646E-04 2.100E-04

     Adding external electric field
        E field amplitude [Ha a.u.]: -3.1525E-02
        Potential amp.       -2.1446 Ry
        Total length         34.0151 bohr

     Generating pointlists ...

     total cpu time spent up to now is      483.7 secs

     Self-consistent Calculation

     iteration #  1     ecut=    60.00 Ry     beta= 0.70
     CG style diagonalization
     ethr =  1.00E-06,  avg # of iterations =  2.0

     Threshold (ethr) on eigenvalues was too large:
     Diagonalizing with lowered threshold

     CG style diagonalization
     ethr =  1.98E-09,  avg # of iterations =  2.5

     negative rho (up, down):  2.585E-04 1.470E-04

     total cpu time spent up to now is      505.5 secs

     total energy              =     -21.14158280 Ry
     estimated scf accuracy    <       0.00000014 Ry

     total magnetization       =     2.00 Bohr mag/cell
     absolute magnetization    =     2.05 Bohr mag/cell

     iteration #  2     ecut=    60.00 Ry     beta= 0.70
     CG style diagonalization
     ethr =  2.40E-09,  avg # of iterations =  3.4

     negative rho (up, down):  2.641E-04 1.525E-04

     total cpu time spent up to now is      522.8 secs

     total energy              =     -21.14158272 Ry
     estimated scf accuracy    <       0.00000059 Ry

     total magnetization       =     2.00 Bohr mag/cell
     absolute magnetization    =     2.05 Bohr mag/cell

     iteration #  3     ecut=    60.00 Ry     beta= 0.70
     CG style diagonalization
     ethr =  2.40E-09,  avg # of iterations =  3.0

     negative rho (up, down):  2.780E-04 1.404E-04

     total cpu time spent up to now is      539.5 secs

     total energy              =     -21.14158254 Ry
     estimated scf accuracy    <       0.00000022 Ry

     total magnetization       =     2.00 Bohr mag/cell
     absolute magnetization    =     2.05 Bohr mag/cell

     iteration #  4     ecut=    60.00 Ry     beta= 0.70
     CG style diagonalization
     ethr =  2.40E-09,  avg # of iterations =  3.1

     negative rho (up, down):  2.888E-04 1.307E-04

     Magnetic moment per site:
     atom:    1    charge:    1.3493    magn:    0.5544    constr:    0.0000
     atom:    2    charge:    0.4457    magn:   -0.0100    constr:    0.0000

     total cpu time spent up to now is      554.7 secs

     End of self-consistent calculation

 ------ SPIN UP ------------


          k = 0.0000 0.0000 0.0000 (423701 PWs)   bands (ev):

   -31.8104 -20.8582 -19.0912 -19.0911 -11.4719 -10.9880 -10.8790

          k = 0.0000 0.2500 0.0000 (423725 PWs)   bands (ev):

   -31.8104 -20.8582 -19.0912 -19.0911 -11.4676 -11.0379 -10.8668

          k = 0.0000-0.5000 0.0000 (423542 PWs)   bands (ev):

   -31.8104 -20.8582 -19.0912 -19.0911 -11.4631 -11.0735 -10.8448

          k = 0.2500 0.0000 0.0000 (423725 PWs)   bands (ev):

   -31.8104 -20.8582 -19.0912 -19.0911 -11.4676 -11.0376 -10.8679

          k = 0.2500 0.2500 0.0000 (423766 PWs)   bands (ev):

   -31.8104 -20.8582 -19.0912 -19.0911 -11.4637 -11.0351 -10.9674

          k = 0.2500-0.5000 0.0000 (423782 PWs)   bands (ev):

   -31.8104 -20.8582 -19.0912 -19.0911 -11.4595 -11.0520 -10.9650

          k = 0.2500-0.2500 0.0000 (423766 PWs)   bands (ev):

   -31.8104 -20.8582 -19.0912 -19.0911 -11.4637 -11.0353 -10.9673

          k =-0.5000 0.0000 0.0000 (423542 PWs)   bands (ev):

   -31.8104 -20.8582 -19.0912 -19.0911 -11.4631 -11.0735 -10.8412

          k =-0.5000 0.2500 0.0000 (423782 PWs)   bands (ev):

   -31.8104 -20.8582 -19.0912 -19.0911 -11.4595 -11.0522 -10.9656

          k =-0.5000-0.5000 0.0000 (423708 PWs)   bands (ev):

   -31.8104 -20.8582 -19.0912 -19.0911 -11.4558 -11.0101 -10.9443

 ------ SPIN DOWN ----------


          k = 0.0000 0.0000 0.0000 (423701 PWs)   bands (ev):

   -29.0718 -19.8205 -15.2403 -15.2401 -11.1853 -10.8479 -10.7646

          k = 0.0000 0.2500 0.0000 (423725 PWs)   bands (ev):

   -29.0718 -19.8205 -15.2403 -15.2401 -11.1655 -10.9523 -10.7732

          k = 0.0000-0.5000 0.0000 (423542 PWs)   bands (ev):

   -29.0718 -19.8205 -15.2403 -15.2401 -11.1318 -11.0301 -10.7316

          k = 0.2500 0.0000 0.0000 (423725 PWs)   bands (ev):

   -29.0718 -19.8205 -15.2403 -15.2401 -11.1656 -10.9524 -10.7489

          k = 0.2500 0.2500 0.0000 (423766 PWs)   bands (ev):

   -29.0718 -19.8205 -15.2403 -15.2401 -11.1463 -10.9496 -10.8966

          k = 0.2500-0.5000 0.0000 (423782 PWs)   bands (ev):

   -29.0718 -19.8205 -15.2403 -15.2401 -11.1144 -11.0067 -10.8685

          k = 0.2500-0.2500 0.0000 (423766 PWs)   bands (ev):

   -29.0718 -19.8205 -15.2403 -15.2401 -11.1463 -10.9496 -10.8970

          k =-0.5000 0.0000 0.0000 (423542 PWs)   bands (ev):

   -29.0718 -19.8205 -15.2403 -15.2401 -11.1319 -11.0301 -10.7296

          k =-0.5000 0.2500 0.0000 (423782 PWs)   bands (ev):

   -29.0718 -19.8205 -15.2403 -15.2401 -11.1143 -11.0062 -10.8243

          k =-0.5000-0.5000 0.0000 (423708 PWs)   bands (ev):

   -29.0718 -19.8205 -15.2403 -15.2401 -11.0885 -10.9436 -10.9349

     the Fermi energy is   -15.3547 ev

!    total energy              =     -21.14158268 Ry
     estimated scf accuracy    <          3.2E-09 Ry
     smearing contrib. (-TS)   =       0.00057979 Ry
     internal energy E=F+TS    =     -21.14216247 Ry

     The total energy is F=E-TS. E is the sum of the following terms:
     one-electron contribution =     -41.92485327 Ry
     hartree contribution      =      19.45909737 Ry
     xc contribution           =      -5.90286868 Ry
     ewald contribution        =       2.34721007 Ry
     Dispersion Correction     =      -0.00000239 Ry
     electric field correction =       4.87925442 Ry

     total magnetization       =     2.00 Bohr mag/cell
     absolute magnetization    =     2.05 Bohr mag/cell

     convergence has been achieved in   4 iterations

     negative rho (up, down):  2.888E-04 1.307E-04

     Forces acting on atoms (cartesian axes, Ry/au):

     atom    1 type  1   force =     0.00005563   -0.00002288   -0.00031697
     atom    2 type  2   force =    -0.00005563    0.00002288    0.00031697

     Total force =     0.000323     Total SCF correction =     0.000001
     Energy error            =      1.2E-06
     Gradient error          =      3.2E-04

     number of scf cycles    =   4
     number of bfgs steps    =   1

     energy   old            =     -21.1415838465 Ry
     energy   new            =     -21.1415826787 Ry

     CASE: energy  _new > energy  _old

     new trust radius        =       0.0003138456 bohr
     new conv_thr            =       0.0000000100 Ry


ATOMIC_POSITIONS (angstrom)
N            10.0000000000       10.0000000000        0.0000000000    0   0   0
H            10.0030182850        9.9987607675       -1.0486820640



     Writing output data file ./NH_ESM_VA16.save/
     NEW-OLD atomic charge density approx. for the potential

     negative rho (up, down):  1.645E-04 2.100E-04

     Adding external electric field
        E field amplitude [Ha a.u.]: -3.1525E-02
        Potential amp.       -2.1446 Ry
        Total length         34.0151 bohr

     Generating pointlists ...

     total cpu time spent up to now is      575.1 secs

     Self-consistent Calculation

     iteration #  1     ecut=    60.00 Ry     beta= 0.70
     CG style diagonalization
     ethr =  1.00E-06,  avg # of iterations =  2.0

     Threshold (ethr) on eigenvalues was too large:
     Diagonalizing with lowered threshold

     CG style diagonalization
     ethr =  7.84E-10,  avg # of iterations =  2.7

     negative rho (up, down):  2.586E-04 1.470E-04

     total cpu time spent up to now is      597.4 secs

     total energy              =     -21.14158362 Ry
     estimated scf accuracy    <       0.00000007 Ry

     total magnetization       =     2.00 Bohr mag/cell
     absolute magnetization    =     2.05 Bohr mag/cell

     iteration #  2     ecut=    60.00 Ry     beta= 0.70
     CG style diagonalization
     ethr =  1.16E-09,  avg # of iterations =  3.3

     negative rho (up, down):  2.708E-04 1.446E-04

     total cpu time spent up to now is      614.6 secs

     total energy              =     -21.14158373 Ry
     estimated scf accuracy    <       0.00000011 Ry

     total magnetization       =     2.00 Bohr mag/cell
     absolute magnetization    =     2.05 Bohr mag/cell

     iteration #  3     ecut=    60.00 Ry     beta= 0.70
     CG style diagonalization
     ethr =  1.16E-09,  avg # of iterations =  3.0

     negative rho (up, down):  2.775E-04 1.409E-04

     total cpu time spent up to now is      631.3 secs

     total energy              =     -21.14158347 Ry
     estimated scf accuracy    <       0.00000024 Ry

     total magnetization       =     2.00 Bohr mag/cell
     absolute magnetization    =     2.05 Bohr mag/cell

     iteration #  4     ecut=    60.00 Ry     beta= 0.70
     CG style diagonalization
     ethr =  1.16E-09,  avg # of iterations =  3.1

     negative rho (up, down):  2.887E-04 1.306E-04

     Magnetic moment per site:
     atom:    1    charge:    1.3492    magn:    0.5544    constr:    0.0000
     atom:    2    charge:    0.4453    magn:   -0.0100    constr:    0.0000

     total cpu time spent up to now is      646.5 secs

     End of self-consistent calculation

 ------ SPIN UP ------------


          k = 0.0000 0.0000 0.0000 (423701 PWs)   bands (ev):

   -31.8074 -20.8568 -19.0907 -19.0905 -11.4720 -10.9881 -10.8791

          k = 0.0000 0.2500 0.0000 (423725 PWs)   bands (ev):

   -31.8074 -20.8568 -19.0907 -19.0905 -11.4678 -11.0379 -10.8668

          k = 0.0000-0.5000 0.0000 (423542 PWs)   bands (ev):

   -31.8074 -20.8568 -19.0906 -19.0905 -11.4633 -11.0736 -10.8449

          k = 0.2500 0.0000 0.0000 (423725 PWs)   bands (ev):

   -31.8074 -20.8568 -19.0907 -19.0905 -11.4678 -11.0377 -10.8680

          k = 0.2500 0.2500 0.0000 (423766 PWs)   bands (ev):

   -31.8074 -20.8568 -19.0906 -19.0905 -11.4639 -11.0352 -10.9674

          k = 0.2500-0.5000 0.0000 (423782 PWs)   bands (ev):

   -31.8074 -20.8568 -19.0907 -19.0905 -11.4597 -11.0521 -10.9651

          k = 0.2500-0.2500 0.0000 (423766 PWs)   bands (ev):

   -31.8074 -20.8568 -19.0907 -19.0905 -11.4639 -11.0354 -10.9674

          k =-0.5000 0.0000 0.0000 (423542 PWs)   bands (ev):

   -31.8074 -20.8568 -19.0906 -19.0905 -11.4632 -11.0736 -10.8414

          k =-0.5000 0.2500 0.0000 (423782 PWs)   bands (ev):

   -31.8074 -20.8568 -19.0907 -19.0905 -11.4597 -11.0522 -10.9657

          k =-0.5000-0.5000 0.0000 (423708 PWs)   bands (ev):

   -31.8074 -20.8568 -19.0906 -19.0905 -11.4560 -11.0101 -10.9443

 ------ SPIN DOWN ----------


          k = 0.0000 0.0000 0.0000 (423701 PWs)   bands (ev):

   -29.0684 -19.8196 -15.2399 -15.2396 -11.1854 -10.8480 -10.7646

          k = 0.0000 0.2500 0.0000 (423725 PWs)   bands (ev):

   -29.0684 -19.8196 -15.2399 -15.2396 -11.1656 -10.9523 -10.7732

          k = 0.0000-0.5000 0.0000 (423542 PWs)   bands (ev):

   -29.0684 -19.8196 -15.2399 -15.2396 -11.1319 -11.0301 -10.7317

          k = 0.2500 0.0000 0.0000 (423725 PWs)   bands (ev):

   -29.0684 -19.8196 -15.2399 -15.2396 -11.1656 -10.9523 -10.7490

          k = 0.2500 0.2500 0.0000 (423766 PWs)   bands (ev):

   -29.0684 -19.8196 -15.2399 -15.2396 -11.1463 -10.9496 -10.8966

          k = 0.2500-0.5000 0.0000 (423782 PWs)   bands (ev):

   -29.0684 -19.8196 -15.2399 -15.2396 -11.1144 -11.0067 -10.8686

          k = 0.2500-0.2500 0.0000 (423766 PWs)   bands (ev):

   -29.0684 -19.8196 -15.2399 -15.2396 -11.1463 -10.9496 -10.8970

          k =-0.5000 0.0000 0.0000 (423542 PWs)   bands (ev):

   -29.0684 -19.8196 -15.2399 -15.2396 -11.1319 -11.0300 -10.7298

          k =-0.5000 0.2500 0.0000 (423782 PWs)   bands (ev):

   -29.0684 -19.8196 -15.2399 -15.2396 -11.1143 -11.0062 -10.8244

          k =-0.5000-0.5000 0.0000 (423708 PWs)   bands (ev):

   -29.0684 -19.8196 -15.2399 -15.2396 -11.0886 -10.9436 -10.9349

     the Fermi energy is   -15.3543 ev

!    total energy              =     -21.14158363 Ry
     estimated scf accuracy    <          4.2E-09 Ry
     smearing contrib. (-TS)   =       0.00057979 Ry
     internal energy E=F+TS    =     -21.14216342 Ry

     The total energy is F=E-TS. E is the sum of the following terms:
     one-electron contribution =     -41.92136810 Ry
     hartree contribution      =      19.45748933 Ry
     xc contribution           =      -5.90252539 Ry
     ewald contribution        =       2.34504239 Ry
     Dispersion Correction     =      -0.00000239 Ry
     electric field correction =       4.87920074 Ry

     total magnetization       =     2.00 Bohr mag/cell
     absolute magnetization    =     2.05 Bohr mag/cell

     convergence has been achieved in   4 iterations

     negative rho (up, down):  2.887E-04 1.306E-04

     Forces acting on atoms (cartesian axes, Ry/au):

     atom    1 type  1   force =     0.00005841   -0.00002395   -0.00093328
     atom    2 type  2   force =    -0.00005841    0.00002395    0.00093328

     Total force =     0.000935     Total SCF correction =     0.000010
     Energy error            =      2.2E-07
     Gradient error          =      9.3E-04

     number of scf cycles    =   5
     number of bfgs steps    =   1

     energy   old            =     -21.1415838465 Ry
     energy   new            =     -21.1415836256 Ry

     CASE: energy  _new > energy  _old

     new trust radius        =       0.0000978728 bohr

     trust_radius < trust_radius_min

     resetting bfgs history

     new conv_thr            =       0.0000000100 Ry


ATOMIC_POSITIONS (angstrom)
N            10.0000000000       10.0000000000        0.0000000000    0   0   0
H            10.0029955284        9.9987701105       -1.0482315666



     Writing output data file ./NH_ESM_VA16.save/
     NEW-OLD atomic charge density approx. for the potential

     negative rho (up, down):  1.646E-04 2.100E-04

     Adding external electric field
        E field amplitude [Ha a.u.]: -3.1525E-02
        Potential amp.       -2.1446 Ry
        Total length         34.0151 bohr

     Generating pointlists ...

     total cpu time spent up to now is      667.0 secs

     Self-consistent Calculation

     iteration #  1     ecut=    60.00 Ry     beta= 0.70
     CG style diagonalization
     ethr =  1.00E-06,  avg # of iterations =  2.0

     Threshold (ethr) on eigenvalues was too large:
     Diagonalizing with lowered threshold

     CG style diagonalization
     ethr =  1.13E-09,  avg # of iterations =  2.7

     negative rho (up, down):  2.585E-04 1.469E-04

     total cpu time spent up to now is      689.2 secs

     total energy              =     -21.14158271 Ry
     estimated scf accuracy    <       0.00000010 Ry

     total magnetization       =     2.00 Bohr mag/cell
     absolute magnetization    =     2.05 Bohr mag/cell

     iteration #  2     ecut=    60.00 Ry     beta= 0.70
     CG style diagonalization
     ethr =  1.65E-09,  avg # of iterations =  3.4

     negative rho (up, down):  2.692E-04 1.464E-04

     total cpu time spent up to now is      706.5 secs

     total energy              =     -21.14158285 Ry
     estimated scf accuracy    <       0.00000020 Ry

     total magnetization       =     2.00 Bohr mag/cell
     absolute magnetization    =     2.05 Bohr mag/cell

     iteration #  3     ecut=    60.00 Ry     beta= 0.70
     CG style diagonalization
     ethr =  1.65E-09,  avg # of iterations =  3.0

     negative rho (up, down):  2.765E-04 1.421E-04

     total cpu time spent up to now is      723.2 secs

     total energy              =     -21.14158247 Ry
     estimated scf accuracy    <       0.00000034 Ry

     total magnetization       =     2.00 Bohr mag/cell
     absolute magnetization    =     2.05 Bohr mag/cell

     iteration #  4     ecut=    60.00 Ry     beta= 0.70
     CG style diagonalization
     ethr =  1.65E-09,  avg # of iterations =  3.1

     negative rho (up, down):  2.888E-04 1.307E-04

     Magnetic moment per site:
     atom:    1    charge:    1.3493    magn:    0.5544    constr:    0.0000
     atom:    2    charge:    0.4457    magn:   -0.0100    constr:    0.0000

     total cpu time spent up to now is      738.6 secs

     End of self-consistent calculation

 ------ SPIN UP ------------


          k = 0.0000 0.0000 0.0000 (423701 PWs)   bands (ev):

   -31.8105 -20.8583 -19.0913 -19.0912 -11.4719 -10.9881 -10.8792

          k = 0.0000 0.2500 0.0000 (423725 PWs)   bands (ev):

   -31.8105 -20.8583 -19.0913 -19.0912 -11.4676 -11.0380 -10.8669

          k = 0.0000-0.5000 0.0000 (423542 PWs)   bands (ev):

   -31.8105 -20.8583 -19.0913 -19.0912 -11.4631 -11.0737 -10.8449

          k = 0.2500 0.0000 0.0000 (423725 PWs)   bands (ev):

   -31.8105 -20.8583 -19.0913 -19.0912 -11.4676 -11.0378 -10.8680

          k = 0.2500 0.2500 0.0000 (423766 PWs)   bands (ev):

   -31.8105 -20.8583 -19.0913 -19.0912 -11.4637 -11.0353 -10.9675

          k = 0.2500-0.5000 0.0000 (423782 PWs)   bands (ev):

   -31.8105 -20.8583 -19.0913 -19.0912 -11.4595 -11.0522 -10.9652

          k = 0.2500-0.2500 0.0000 (423766 PWs)   bands (ev):

   -31.8105 -20.8583 -19.0913 -19.0912 -11.4637 -11.0354 -10.9675

          k =-0.5000 0.0000 0.0000 (423542 PWs)   bands (ev):

   -31.8105 -20.8583 -19.0913 -19.0912 -11.4631 -11.0737 -10.8415

          k =-0.5000 0.2500 0.0000 (423782 PWs)   bands (ev):

   -31.8105 -20.8583 -19.0913 -19.0912 -11.4595 -11.0524 -10.9657

          k =-0.5000-0.5000 0.0000 (423708 PWs)   bands (ev):

   -31.8105 -20.8583 -19.0913 -19.0912 -11.4558 -11.0102 -10.9444

 ------ SPIN DOWN ----------


          k = 0.0000 0.0000 0.0000 (423701 PWs)   bands (ev):

   -29.0718 -19.8206 -15.2404 -15.2402 -11.1852 -10.8479 -10.7645

          k = 0.0000 0.2500 0.0000 (423725 PWs)   bands (ev):

   -29.0718 -19.8206 -15.2404 -15.2402 -11.1655 -10.9522 -10.7731

          k = 0.0000-0.5000 0.0000 (423542 PWs)   bands (ev):

   -29.0718 -19.8206 -15.2404 -15.2402 -11.1317 -11.0300 -10.7316

          k = 0.2500 0.0000 0.0000 (423725 PWs)   bands (ev):

   -29.0718 -19.8206 -15.2404 -15.2402 -11.1655 -10.9522 -10.7489

          k = 0.2500 0.2500 0.0000 (423766 PWs)   bands (ev):

   -29.0718 -19.8206 -15.2404 -15.2402 -11.1462 -10.9495 -10.8965

          k = 0.2500-0.5000 0.0000 (423782 PWs)   bands (ev):

   -29.0718 -19.8206 -15.2404 -15.2402 -11.1143 -11.0066 -10.8686

          k = 0.2500-0.2500 0.0000 (423766 PWs)   bands (ev):

   -29.0718 -19.8206 -15.2404 -15.2402 -11.1462 -10.9495 -10.8969

          k =-0.5000 0.0000 0.0000 (423542 PWs)   bands (ev):

   -29.0718 -19.8206 -15.2404 -15.2402 -11.1317 -11.0299 -10.7297

          k =-0.5000 0.2500 0.0000 (423782 PWs)   bands (ev):

   -29.0718 -19.8206 -15.2404 -15.2402 -11.1142 -11.0061 -10.8245

          k =-0.5000-0.5000 0.0000 (423708 PWs)   bands (ev):

   -29.0718 -19.8206 -15.2404 -15.2402 -11.0884 -10.9435 -10.9348

     the Fermi energy is   -15.3548 ev

!    total energy              =     -21.14158268 Ry
     estimated scf accuracy    <          6.8E-09 Ry
     smearing contrib. (-TS)   =       0.00057979 Ry
     internal energy E=F+TS    =     -21.14216248 Ry

     The total energy is F=E-TS. E is the sum of the following terms:
     one-electron contribution =     -41.92496523 Ry
     hartree contribution      =      19.45924612 Ry
     xc contribution           =      -5.90290547 Ry
     ewald contribution        =       2.34721007 Ry
     Dispersion Correction     =      -0.00000239 Ry
     electric field correction =       4.87925442 Ry

     total magnetization       =     2.00 Bohr mag/cell
     absolute magnetization    =     2.05 Bohr mag/cell

     convergence has been achieved in   4 iterations

     negative rho (up, down):  2.888E-04 1.307E-04

     Forces acting on atoms (cartesian axes, Ry/au):

     atom    1 type  1   force =     0.00005543   -0.00002271   -0.00032165
     atom    2 type  2   force =    -0.00005543    0.00002271    0.00032165

     Total force =     0.000327     Total SCF correction =     0.000009
     Energy error            =      1.2E-06
     Gradient error          =      3.2E-04

     number of scf cycles    =   6
     number of bfgs steps    =   1

     energy   old            =     -21.1415838465 Ry
     energy   new            =     -21.1415826831 Ry

     CASE: energy  _new > energy  _old

     new trust radius        =       0.0003143847 bohr
     new conv_thr            =       0.0000000100 Ry


ATOMIC_POSITIONS (angstrom)
N            10.0000000000       10.0000000000        0.0000000000    0   0   0
H            10.0030182706        9.9987607734       -1.0486817792



     Writing output data file ./NH_ESM_VA16.save/
     NEW-OLD atomic charge density approx. for the potential

     negative rho (up, down):  1.645E-04 2.099E-04

     Adding external electric field
        E field amplitude [Ha a.u.]: -3.1525E-02
        Potential amp.       -2.1446 Ry
        Total length         34.0151 bohr

     Generating pointlists ...

     total cpu time spent up to now is      759.1 secs

     Self-consistent Calculation

     iteration #  1     ecut=    60.00 Ry     beta= 0.70
     CG style diagonalization
     ethr =  1.00E-06,  avg # of iterations =  2.0

     Threshold (ethr) on eigenvalues was too large:
     Diagonalizing with lowered threshold

     CG style diagonalization
     ethr =  1.39E-09,  avg # of iterations =  2.6

     negative rho (up, down):  2.585E-04 1.468E-04

     total cpu time spent up to now is      781.1 secs

     total energy              =     -21.14158366 Ry
     estimated scf accuracy    <       0.00000011 Ry

     total magnetization       =     2.00 Bohr mag/cell
     absolute magnetization    =     2.05 Bohr mag/cell

     iteration #  2     ecut=    60.00 Ry     beta= 0.70
     CG style diagonalization
     ethr =  1.92E-09,  avg # of iterations =  3.4

     negative rho (up, down):  2.677E-04 1.480E-04

     total cpu time spent up to now is      798.3 secs

     total energy              =     -21.14158381 Ry
     estimated scf accuracy    <       0.00000030 Ry

     total magnetization       =     2.00 Bohr mag/cell
     absolute magnetization    =     2.05 Bohr mag/cell

     iteration #  3     ecut=    60.00 Ry     beta= 0.70
     CG style diagonalization
     ethr =  1.92E-09,  avg # of iterations =  3.0

     negative rho (up, down):  2.746E-04 1.439E-04

     total cpu time spent up to now is      815.1 secs

     total energy              =     -21.14158342 Ry
     estimated scf accuracy    <       0.00000036 Ry

     total magnetization       =     2.00 Bohr mag/cell
     absolute magnetization    =     2.05 Bohr mag/cell

     iteration #  4     ecut=    60.00 Ry     beta= 0.70
     CG style diagonalization
     ethr =  1.92E-09,  avg # of iterations =  3.1

     negative rho (up, down):  2.851E-04 1.337E-04

     total cpu time spent up to now is      832.1 secs

     total energy              =     -21.14158361 Ry
     estimated scf accuracy    <       0.00000001 Ry

     total magnetization       =     2.00 Bohr mag/cell
     absolute magnetization    =     2.05 Bohr mag/cell

     iteration #  5     ecut=    60.00 Ry     beta= 0.70
     CG style diagonalization
     ethr =  2.47E-10,  avg # of iterations =  3.1

     negative rho (up, down):  2.887E-04 1.306E-04

     Magnetic moment per site:
     atom:    1    charge:    1.3492    magn:    0.5544    constr:    0.0000
     atom:    2    charge:    0.4453    magn:   -0.0100    constr:    0.0000

     total cpu time spent up to now is      847.4 secs

     End of self-consistent calculation

 ------ SPIN UP ------------


          k = 0.0000 0.0000 0.0000 (423701 PWs)   bands (ev):

   -31.8075 -20.8569 -19.0907 -19.0906 -11.4720 -10.9878 -10.8789

          k = 0.0000 0.2500 0.0000 (423725 PWs)   bands (ev):

   -31.8075 -20.8569 -19.0907 -19.0906 -11.4677 -11.0377 -10.8666

          k = 0.0000-0.5000 0.0000 (423542 PWs)   bands (ev):

   -31.8075 -20.8569 -19.0907 -19.0906 -11.4632 -11.0734 -10.8447

          k = 0.2500 0.0000 0.0000 (423725 PWs)   bands (ev):

   -31.8075 -20.8569 -19.0907 -19.0906 -11.4677 -11.0374 -10.8677

          k = 0.2500 0.2500 0.0000 (423766 PWs)   bands (ev):

   -31.8075 -20.8569 -19.0907 -19.0906 -11.4638 -11.0350 -10.9672

          k = 0.2500-0.5000 0.0000 (423782 PWs)   bands (ev):

   -31.8075 -20.8569 -19.0907 -19.0906 -11.4597 -11.0519 -10.9649

          k = 0.2500-0.2500 0.0000 (423766 PWs)   bands (ev):

   -31.8075 -20.8569 -19.0907 -19.0906 -11.4638 -11.0351 -10.9671

          k =-0.5000 0.0000 0.0000 (423542 PWs)   bands (ev):

   -31.8075 -20.8569 -19.0907 -19.0906 -11.4632 -11.0733 -10.8412

          k =-0.5000 0.2500 0.0000 (423782 PWs)   bands (ev):

   -31.8075 -20.8569 -19.0907 -19.0906 -11.4597 -11.0520 -10.9654

          k =-0.5000-0.5000 0.0000 (423708 PWs)   bands (ev):

   -31.8075 -20.8569 -19.0907 -19.0906 -11.4559 -11.0098 -10.9440

 ------ SPIN DOWN ----------


          k = 0.0000 0.0000 0.0000 (423701 PWs)   bands (ev):

   -29.0685 -19.8197 -15.2398 -15.2397 -11.1860 -10.8486 -10.7653

          k = 0.0000 0.2500 0.0000 (423725 PWs)   bands (ev):

   -29.0685 -19.8197 -15.2398 -15.2397 -11.1661 -10.9529 -10.7739

          k = 0.0000-0.5000 0.0000 (423542 PWs)   bands (ev):

   -29.0685 -19.8197 -15.2398 -15.2397 -11.1323 -11.0308 -10.7324

          k = 0.2500 0.0000 0.0000 (423725 PWs)   bands (ev):

   -29.0685 -19.8197 -15.2398 -15.2397 -11.1662 -10.9530 -10.7499

          k = 0.2500 0.2500 0.0000 (423766 PWs)   bands (ev):

   -29.0685 -19.8197 -15.2398 -15.2397 -11.1469 -10.9502 -10.8975

          k = 0.2500-0.5000 0.0000 (423782 PWs)   bands (ev):

   -29.0685 -19.8197 -15.2398 -15.2397 -11.1149 -11.0074 -10.8695

          k = 0.2500-0.2500 0.0000 (423766 PWs)   bands (ev):

   -29.0685 -19.8197 -15.2398 -15.2397 -11.1469 -10.9502 -10.8977

          k =-0.5000 0.0000 0.0000 (423542 PWs)   bands (ev):

   -29.0685 -19.8197 -15.2398 -15.2397 -11.1324 -11.0308 -10.7306

          k =-0.5000 0.2500 0.0000 (423782 PWs)   bands (ev):

   -29.0685 -19.8197 -15.2398 -15.2397 -11.1148 -11.0070 -10.8256

          k =-0.5000-0.5000 0.0000 (423708 PWs)   bands (ev):

   -29.0685 -19.8197 -15.2398 -15.2397 -11.0889 -10.9444 -10.9357

     the Fermi energy is   -15.3543 ev

!    total energy              =     -21.14158362 Ry
     estimated scf accuracy    <          1.8E-09 Ry
     smearing contrib. (-TS)   =       0.00057979 Ry
     internal energy E=F+TS    =     -21.14216341 Ry

     The total energy is F=E-TS. E is the sum of the following terms:
     one-electron contribution =     -41.92134404 Ry
     hartree contribution      =      19.45745621 Ry
     xc contribution           =      -5.90251773 Ry
     ewald contribution        =       2.34504376 Ry
     Dispersion Correction     =      -0.00000239 Ry
     electric field correction =       4.87920078 Ry

     total magnetization       =     2.00 Bohr mag/cell
     absolute magnetization    =     2.05 Bohr mag/cell

     convergence has been achieved in   5 iterations

     negative rho (up, down):  2.887E-04 1.306E-04

     Forces acting on atoms (cartesian axes, Ry/au):

     atom    1 type  1   force =     0.00005821   -0.00002395   -0.00093279
     atom    2 type  2   force =    -0.00005821    0.00002395    0.00093279

     Total force =     0.000935     Total SCF correction =     0.000006
     Energy error            =      2.3E-07
     Gradient error          =      9.3E-04

     number of scf cycles    =   7
     number of bfgs steps    =   1

     energy   old            =     -21.1415838465 Ry
     energy   new            =     -21.1415836211 Ry

     CASE: energy  _new > energy  _old

     new trust radius        =       0.0000973556 bohr

     trust_radius < trust_radius_min

     resetting bfgs history

     new conv_thr            =       0.0000000100 Ry


ATOMIC_POSITIONS (angstrom)
N            10.0000000000       10.0000000000        0.0000000000    0   0   0
H            10.0029955284        9.9987701105       -1.0482315666



     Writing output data file ./NH_ESM_VA16.save/
     NEW-OLD atomic charge density approx. for the potential

     negative rho (up, down):  1.646E-04 2.101E-04

     Adding external electric field
        E field amplitude [Ha a.u.]: -3.1525E-02
        Potential amp.       -2.1446 Ry
        Total length         34.0151 bohr

     Generating pointlists ...

     total cpu time spent up to now is      868.1 secs

     Self-consistent Calculation

     iteration #  1     ecut=    60.00 Ry     beta= 0.70
     CG style diagonalization
     ethr =  1.00E-06,  avg # of iterations =  2.0

     Threshold (ethr) on eigenvalues was too large:
     Diagonalizing with lowered threshold

     CG style diagonalization
     ethr =  7.43E-10,  avg # of iterations =  2.7

     negative rho (up, down):  2.587E-04 1.471E-04

     total cpu time spent up to now is      890.3 secs

     total energy              =     -21.14158267 Ry
     estimated scf accuracy    <       0.00000008 Ry

     total magnetization       =     2.00 Bohr mag/cell
     absolute magnetization    =     2.05 Bohr mag/cell

     iteration #  2     ecut=    60.00 Ry     beta= 0.70
     CG style diagonalization
     ethr =  1.27E-09,  avg # of iterations =  3.4

     negative rho (up, down):  2.760E-04 1.390E-04

     total cpu time spent up to now is      907.5 secs

     total energy              =     -21.14158272 Ry
     estimated scf accuracy    <       0.00000003 Ry

     total magnetization       =     2.00 Bohr mag/cell
     absolute magnetization    =     2.05 Bohr mag/cell

     iteration #  3     ecut=    60.00 Ry     beta= 0.70
     CG style diagonalization
     ethr =  5.41E-10,  avg # of iterations =  3.2

     negative rho (up, down):  2.775E-04 1.410E-04

     total cpu time spent up to now is      924.7 secs

     total energy              =     -21.14158262 Ry
     estimated scf accuracy    <       0.00000013 Ry

     total magnetization       =     2.00 Bohr mag/cell
     absolute magnetization    =     2.05 Bohr mag/cell

     iteration #  4     ecut=    60.00 Ry     beta= 0.70
     CG style diagonalization
     ethr =  5.41E-10,  avg # of iterations =  3.1

     negative rho (up, down):  2.888E-04 1.307E-04

     Magnetic moment per site:
     atom:    1    charge:    1.3493    magn:    0.5544    constr:    0.0000
     atom:    2    charge:    0.4457    magn:   -0.0100    constr:    0.0000

     total cpu time spent up to now is      939.9 secs

     End of self-consistent calculation

 ------ SPIN UP ------------


          k = 0.0000 0.0000 0.0000 (423701 PWs)   bands (ev):

   -31.8104 -20.8583 -19.0913 -19.0911 -11.4719 -10.9881 -10.8792

          k = 0.0000 0.2500 0.0000 (423725 PWs)   bands (ev):

   -31.8104 -20.8583 -19.0913 -19.0911 -11.4676 -11.0380 -10.8669

          k = 0.0000-0.5000 0.0000 (423542 PWs)   bands (ev):

   -31.8104 -20.8583 -19.0913 -19.0911 -11.4631 -11.0738 -10.8449

          k = 0.2500 0.0000 0.0000 (423725 PWs)   bands (ev):

   -31.8104 -20.8583 -19.0913 -19.0911 -11.4676 -11.0378 -10.8680

          k = 0.2500 0.2500 0.0000 (423766 PWs)   bands (ev):

   -31.8104 -20.8583 -19.0913 -19.0911 -11.4637 -11.0353 -10.9675

          k = 0.2500-0.5000 0.0000 (423782 PWs)   bands (ev):

   -31.8104 -20.8583 -19.0913 -19.0911 -11.4595 -11.0523 -10.9652

          k = 0.2500-0.2500 0.0000 (423766 PWs)   bands (ev):

   -31.8104 -20.8583 -19.0913 -19.0911 -11.4637 -11.0354 -10.9674

          k =-0.5000 0.0000 0.0000 (423542 PWs)   bands (ev):

   -31.8104 -20.8583 -19.0913 -19.0911 -11.4631 -11.0737 -10.8416

          k =-0.5000 0.2500 0.0000 (423782 PWs)   bands (ev):

   -31.8104 -20.8583 -19.0913 -19.0911 -11.4595 -11.0524 -10.9657

          k =-0.5000-0.5000 0.0000 (423708 PWs)   bands (ev):

   -31.8104 -20.8583 -19.0913 -19.0911 -11.4558 -11.0102 -10.9444

 ------ SPIN DOWN ----------


          k = 0.0000 0.0000 0.0000 (423701 PWs)   bands (ev):

   -29.0717 -19.8206 -15.2404 -15.2401 -11.1854 -10.8481 -10.7646

          k = 0.0000 0.2500 0.0000 (423725 PWs)   bands (ev):

   -29.0717 -19.8206 -15.2404 -15.2401 -11.1656 -10.9523 -10.7733

          k = 0.0000-0.5000 0.0000 (423542 PWs)   bands (ev):

   -29.0717 -19.8206 -15.2404 -15.2401 -11.1318 -11.0301 -10.7318

          k = 0.2500 0.0000 0.0000 (423725 PWs)   bands (ev):

   -29.0717 -19.8206 -15.2404 -15.2401 -11.1656 -10.9523 -10.7493

          k = 0.2500 0.2500 0.0000 (423766 PWs)   bands (ev):

   -29.0717 -19.8206 -15.2404 -15.2401 -11.1463 -10.9496 -10.8968

          k = 0.2500-0.5000 0.0000 (423782 PWs)   bands (ev):

   -29.0717 -19.8206 -15.2404 -15.2401 -11.1144 -11.0068 -10.8688

          k = 0.2500-0.2500 0.0000 (423766 PWs)   bands (ev):

   -29.0717 -19.8206 -15.2404 -15.2401 -11.1463 -10.9496 -10.8969

          k =-0.5000 0.0000 0.0000 (423542 PWs)   bands (ev):

   -29.0717 -19.8206 -15.2404 -15.2401 -11.1319 -11.0301 -10.7301

          k =-0.5000 0.2500 0.0000 (423782 PWs)   bands (ev):

   -29.0717 -19.8206 -15.2404 -15.2401 -11.1143 -11.0063 -10.8251

          k =-0.5000-0.5000 0.0000 (423708 PWs)   bands (ev):

   -29.0717 -19.8206 -15.2404 -15.2401 -11.0885 -10.9436 -10.9350

     the Fermi energy is   -15.3548 ev

!    total energy              =     -21.14158269 Ry
     estimated scf accuracy    <          6.8E-09 Ry
     smearing contrib. (-TS)   =       0.00057979 Ry
     internal energy E=F+TS    =     -21.14216248 Ry

     The total energy is F=E-TS. E is the sum of the following terms:
     one-electron contribution =     -41.92492252 Ry
     hartree contribution      =      19.45918858 Ry
     xc contribution           =      -5.90289065 Ry
     ewald contribution        =       2.34721007 Ry
     Dispersion Correction     =      -0.00000239 Ry
     electric field correction =       4.87925442 Ry

     total magnetization       =     2.00 Bohr mag/cell
     absolute magnetization    =     2.05 Bohr mag/cell

     convergence has been achieved in   4 iterations

     negative rho (up, down):  2.888E-04 1.307E-04

     Forces acting on atoms (cartesian axes, Ry/au):

     atom    1 type  1   force =     0.00005543   -0.00002272   -0.00031858
     atom    2 type  2   force =    -0.00005543    0.00002272    0.00031858

     Total force =     0.000324     Total SCF correction =     0.000006
     Energy error            =      1.2E-06
     Gradient error          =      3.2E-04

     number of scf cycles    =   8
     number of bfgs steps    =   1

     energy   old            =     -21.1415838465 Ry
     energy   new            =     -21.1415826885 Ry

     CASE: energy  _new > energy  _old

     new trust radius        =       0.0003150703 bohr
     new conv_thr            =       0.0000000100 Ry


ATOMIC_POSITIONS (angstrom)
N            10.0000000000       10.0000000000        0.0000000000    0   0   0
H            10.0030182523        9.9987607810       -1.0486814169



     Writing output data file ./NH_ESM_VA16.save/
     NEW-OLD atomic charge density approx. for the potential

     negative rho (up, down):  1.645E-04 2.099E-04

     Adding external electric field
        E field amplitude [Ha a.u.]: -3.1525E-02
        Potential amp.       -2.1446 Ry
        Total length         34.0151 bohr

     Generating pointlists ...

     total cpu time spent up to now is      960.3 secs

     Self-consistent Calculation

     iteration #  1     ecut=    60.00 Ry     beta= 0.70
     CG style diagonalization
     ethr =  1.00E-06,  avg # of iterations =  2.0

     Threshold (ethr) on eigenvalues was too large:
     Diagonalizing with lowered threshold

     CG style diagonalization
     ethr =  1.79E-09,  avg # of iterations =  2.7

     negative rho (up, down):  2.585E-04 1.469E-04

     total cpu time spent up to now is      982.5 secs

     total energy              =     -21.14158372 Ry
     estimated scf accuracy    <       0.00000013 Ry

     total magnetization       =     2.00 Bohr mag/cell
     absolute magnetization    =     2.05 Bohr mag/cell

     iteration #  2     ecut=    60.00 Ry     beta= 0.70
     CG style diagonalization
     ethr =  2.24E-09,  avg # of iterations =  3.4

     negative rho (up, down):  2.646E-04 1.516E-04

     total cpu time spent up to now is      999.7 secs

     total energy              =     -21.14158370 Ry
     estimated scf accuracy    <       0.00000052 Ry

     total magnetization       =     2.00 Bohr mag/cell
     absolute magnetization    =     2.05 Bohr mag/cell

     iteration #  3     ecut=    60.00 Ry     beta= 0.70
     CG style diagonalization
     ethr =  2.24E-09,  avg # of iterations =  3.0

     negative rho (up, down):  2.781E-04 1.401E-04

     total cpu time spent up to now is     1016.5 secs

     total energy              =     -21.14158346 Ry
     estimated scf accuracy    <       0.00000024 Ry

     total magnetization       =     2.00 Bohr mag/cell
     absolute magnetization    =     2.05 Bohr mag/cell

     iteration #  4     ecut=    60.00 Ry     beta= 0.70
     CG style diagonalization
     ethr =  2.24E-09,  avg # of iterations =  3.1

     negative rho (up, down):  2.887E-04 1.306E-04

     Magnetic moment per site:
     atom:    1    charge:    1.3492    magn:    0.5544    constr:    0.0000
     atom:    2    charge:    0.4453    magn:   -0.0100    constr:    0.0000

     total cpu time spent up to now is     1031.9 secs

     End of self-consistent calculation

 ------ SPIN UP ------------


          k = 0.0000 0.0000 0.0000 (423701 PWs)   bands (ev):

   -31.8076 -20.8569 -19.0908 -19.0907 -11.4720 -10.9881 -10.8792

          k = 0.0000 0.2500 0.0000 (423725 PWs)   bands (ev):

   -31.8076 -20.8569 -19.0908 -19.0907 -11.4677 -11.0380 -10.8669

          k = 0.0000-0.5000 0.0000 (423542 PWs)   bands (ev):

   -31.8076 -20.8569 -19.0908 -19.0907 -11.4632 -11.0738 -10.8449

          k = 0.2500 0.0000 0.0000 (423725 PWs)   bands (ev):

   -31.8076 -20.8569 -19.0908 -19.0907 -11.4678 -11.0378 -10.8680

          k = 0.2500 0.2500 0.0000 (423766 PWs)   bands (ev):

   -31.8076 -20.8569 -19.0908 -19.0907 -11.4638 -11.0353 -10.9675

          k = 0.2500-0.5000 0.0000 (423782 PWs)   bands (ev):

   -31.8076 -20.8569 -19.0908 -19.0907 -11.4597 -11.0523 -10.9652

          k = 0.2500-0.2500 0.0000 (423766 PWs)   bands (ev):

   -31.8076 -20.8569 -19.0908 -19.0907 -11.4638 -11.0354 -10.9674

          k =-0.5000 0.0000 0.0000 (423542 PWs)   bands (ev):

   -31.8076 -20.8569 -19.0908 -19.0907 -11.4632 -11.0737 -10.8416

          k =-0.5000 0.2500 0.0000 (423782 PWs)   bands (ev):

   -31.8076 -20.8569 -19.0908 -19.0907 -11.4597 -11.0524 -10.9657

          k =-0.5000-0.5000 0.0000 (423708 PWs)   bands (ev):

   -31.8076 -20.8569 -19.0908 -19.0907 -11.4559 -11.0101 -10.9443

 ------ SPIN DOWN ----------


          k = 0.0000 0.0000 0.0000 (423701 PWs)   bands (ev):

   -29.0685 -19.8197 -15.2400 -15.2398 -11.1855 -10.8482 -10.7647

          k = 0.0000 0.2500 0.0000 (423725 PWs)   bands (ev):

   -29.0685 -19.8197 -15.2400 -15.2398 -11.1657 -10.9524 -10.7734

          k = 0.0000-0.5000 0.0000 (423542 PWs)   bands (ev):

   -29.0685 -19.8197 -15.2400 -15.2398 -11.1319 -11.0302 -10.7319

          k = 0.2500 0.0000 0.0000 (423725 PWs)   bands (ev):

   -29.0685 -19.8197 -15.2400 -15.2398 -11.1657 -10.9524 -10.7495

          k = 0.2500 0.2500 0.0000 (423766 PWs)   bands (ev):

   -29.0685 -19.8197 -15.2400 -15.2398 -11.1464 -10.9497 -10.8969

          k = 0.2500-0.5000 0.0000 (423782 PWs)   bands (ev):

   -29.0685 -19.8197 -15.2400 -15.2398 -11.1145 -11.0068 -10.8690

          k = 0.2500-0.2500 0.0000 (423766 PWs)   bands (ev):

   -29.0685 -19.8197 -15.2400 -15.2398 -11.1464 -10.9497 -10.8970

          k =-0.5000 0.0000 0.0000 (423542 PWs)   bands (ev):

   -29.0685 -19.8197 -15.2400 -15.2398 -11.1319 -11.0301 -10.7304

          k =-0.5000 0.2500 0.0000 (423782 PWs)   bands (ev):

   -29.0685 -19.8197 -15.2400 -15.2398 -11.1144 -11.0065 -10.8254

          k =-0.5000-0.5000 0.0000 (423708 PWs)   bands (ev):

   -29.0685 -19.8197 -15.2400 -15.2398 -11.0886 -10.9437 -10.9351

     the Fermi energy is   -15.3544 ev

!    total energy              =     -21.14158362 Ry
     estimated scf accuracy    <          3.6E-09 Ry
     smearing contrib. (-TS)   =       0.00057979 Ry
     internal energy E=F+TS    =     -21.14216341 Ry

     The total energy is F=E-TS. E is the sum of the following terms:
     one-electron contribution =     -41.92147429 Ry
     hartree contribution      =      19.45762555 Ry
     xc contribution           =      -5.90255862 Ry
     ewald contribution        =       2.34504551 Ry
     Dispersion Correction     =      -0.00000239 Ry
     electric field correction =       4.87920082 Ry

     total magnetization       =     2.00 Bohr mag/cell
     absolute magnetization    =     2.05 Bohr mag/cell

     convergence has been achieved in   4 iterations

     negative rho (up, down):  2.887E-04 1.306E-04

     Forces acting on atoms (cartesian axes, Ry/au):

     atom    1 type  1   force =     0.00005819   -0.00002387   -0.00093882
     atom    2 type  2   force =    -0.00005819    0.00002387    0.00093882

     Total force =     0.000941     Total SCF correction =     0.000002
     Energy error            =      2.2E-07
     Gradient error          =      9.4E-04

     number of scf cycles    =   9
     number of bfgs steps    =   1

     energy   old            =     -21.1415838465 Ry
     energy   new            =     -21.1415836229 Ry

     CASE: energy  _new > energy  _old

     new trust radius        =       0.0000979412 bohr

     trust_radius < trust_radius_min

     resetting bfgs history

     new conv_thr            =       0.0000000100 Ry


ATOMIC_POSITIONS (angstrom)
N            10.0000000000       10.0000000000        0.0000000000    0   0   0
H            10.0029955284        9.9987701105       -1.0482315666



     Writing output data file ./NH_ESM_VA16.save/
     NEW-OLD atomic charge density approx. for the potential

     negative rho (up, down):  1.646E-04 2.100E-04

     Adding external electric field
        E field amplitude [Ha a.u.]: -3.1525E-02
        Potential amp.       -2.1446 Ry
        Total length         34.0151 bohr

     Generating pointlists ...

     total cpu time spent up to now is     1052.3 secs

     Self-consistent Calculation

     iteration #  1     ecut=    60.00 Ry     beta= 0.70
     CG style diagonalization
     ethr =  1.00E-06,  avg # of iterations =  2.0

     Threshold (ethr) on eigenvalues was too large:
     Diagonalizing with lowered threshold

     CG style diagonalization
     ethr =  7.98E-10,  avg # of iterations =  2.7

     negative rho (up, down):  2.585E-04 1.469E-04

     total cpu time spent up to now is     1074.5 secs

     total energy              =     -21.14158269 Ry
     estimated scf accuracy    <       0.00000007 Ry

     total magnetization       =     2.00 Bohr mag/cell
     absolute magnetization    =     2.05 Bohr mag/cell

     iteration #  2     ecut=    60.00 Ry     beta= 0.70
     CG style diagonalization
     ethr =  1.18E-09,  avg # of iterations =  3.4

     negative rho (up, down):  2.702E-04 1.453E-04

     total cpu time spent up to now is     1091.7 secs

     total energy              =     -21.14158279 Ry
     estimated scf accuracy    <       0.00000012 Ry

     total magnetization       =     2.00 Bohr mag/cell
     absolute magnetization    =     2.05 Bohr mag/cell

     iteration #  3     ecut=    60.00 Ry     beta= 0.70
     CG style diagonalization
     ethr =  1.18E-09,  avg # of iterations =  3.0

     negative rho (up, down):  2.775E-04 1.410E-04

     total cpu time spent up to now is     1108.4 secs

     total energy              =     -21.14158253 Ry
     estimated scf accuracy    <       0.00000025 Ry

     total magnetization       =     2.00 Bohr mag/cell
     absolute magnetization    =     2.05 Bohr mag/cell

     iteration #  4     ecut=    60.00 Ry     beta= 0.70
     CG style diagonalization
     ethr =  1.18E-09,  avg # of iterations =  3.1

     negative rho (up, down):  2.888E-04 1.307E-04

     Magnetic moment per site:
     atom:    1    charge:    1.3493    magn:    0.5544    constr:    0.0000
     atom:    2    charge:    0.4457    magn:   -0.0100    constr:    0.0000

     total cpu time spent up to now is     1123.6 secs

     End of self-consistent calculation

 ------ SPIN UP ------------


          k = 0.0000 0.0000 0.0000 (423701 PWs)   bands (ev):

   -31.8105 -20.8584 -19.0914 -19.0912 -11.4719 -10.9881 -10.8792

          k = 0.0000 0.2500 0.0000 (423725 PWs)   bands (ev):

   -31.8105 -20.8584 -19.0914 -19.0912 -11.4676 -11.0380 -10.8670

          k = 0.0000-0.5000 0.0000 (423542 PWs)   bands (ev):

   -31.8105 -20.8584 -19.0914 -19.0912 -11.4631 -11.0738 -10.8450

          k = 0.2500 0.0000 0.0000 (423725 PWs)   bands (ev):

   -31.8105 -20.8584 -19.0914 -19.0912 -11.4676 -11.0379 -10.8680

          k = 0.2500 0.2500 0.0000 (423766 PWs)   bands (ev):

   -31.8105 -20.8584 -19.0914 -19.0912 -11.4637 -11.0354 -10.9675

          k = 0.2500-0.5000 0.0000 (423782 PWs)   bands (ev):

   -31.8105 -20.8584 -19.0914 -19.0912 -11.4595 -11.0524 -10.9653

          k = 0.2500-0.2500 0.0000 (423766 PWs)   bands (ev):

   -31.8105 -20.8584 -19.0914 -19.0912 -11.4637 -11.0355 -10.9675

          k =-0.5000 0.0000 0.0000 (423542 PWs)   bands (ev):

   -31.8105 -20.8584 -19.0914 -19.0912 -11.4631 -11.0738 -10.8417

          k =-0.5000 0.2500 0.0000 (423782 PWs)   bands (ev):

   -31.8105 -20.8584 -19.0914 -19.0912 -11.4595 -11.0524 -10.9658

          k =-0.5000-0.5000 0.0000 (423708 PWs)   bands (ev):

   -31.8105 -20.8584 -19.0914 -19.0912 -11.4558 -11.0102 -10.9444

 ------ SPIN DOWN ----------


          k = 0.0000 0.0000 0.0000 (423701 PWs)   bands (ev):

   -29.0718 -19.8207 -15.2405 -15.2402 -11.1854 -10.8482 -10.7647

          k = 0.0000 0.2500 0.0000 (423725 PWs)   bands (ev):

   -29.0718 -19.8207 -15.2405 -15.2402 -11.1656 -10.9523 -10.7734

          k = 0.0000-0.5000 0.0000 (423542 PWs)   bands (ev):

   -29.0718 -19.8207 -15.2405 -15.2402 -11.1318 -11.0301 -10.7318

          k = 0.2500 0.0000 0.0000 (423725 PWs)   bands (ev):

   -29.0718 -19.8207 -15.2405 -15.2402 -11.1656 -10.9523 -10.7495

          k = 0.2500 0.2500 0.0000 (423766 PWs)   bands (ev):

   -29.0718 -19.8207 -15.2405 -15.2402 -11.1463 -10.9496 -10.8969

          k = 0.2500-0.5000 0.0000 (423782 PWs)   bands (ev):

   -29.0718 -19.8207 -15.2405 -15.2402 -11.1144 -11.0068 -10.8690

          k = 0.2500-0.2500 0.0000 (423766 PWs)   bands (ev):

   -29.0718 -19.8207 -15.2405 -15.2402 -11.1463 -10.9496 -10.8970

          k =-0.5000 0.0000 0.0000 (423542 PWs)   bands (ev):

   -29.0718 -19.8207 -15.2405 -15.2402 -11.1319 -11.0301 -10.7304

          k =-0.5000 0.2500 0.0000 (423782 PWs)   bands (ev):

   -29.0718 -19.8207 -15.2405 -15.2402 -11.1144 -11.0064 -10.8255

          k =-0.5000-0.5000 0.0000 (423708 PWs)   bands (ev):

   -29.0718 -19.8207 -15.2405 -15.2402 -11.0885 -10.9436 -10.9351

     the Fermi energy is   -15.3549 ev

!    total energy              =     -21.14158268 Ry
     estimated scf accuracy    <          5.1E-09 Ry
     smearing contrib. (-TS)   =       0.00057979 Ry
     internal energy E=F+TS    =     -21.14216247 Ry

     The total energy is F=E-TS. E is the sum of the following terms:
     one-electron contribution =     -41.92495475 Ry
     hartree contribution      =      19.45923178 Ry
     xc contribution           =      -5.90290161 Ry
     ewald contribution        =       2.34721007 Ry
     Dispersion Correction     =      -0.00000239 Ry
     electric field correction =       4.87925442 Ry

     total magnetization       =     2.00 Bohr mag/cell
     absolute magnetization    =     2.05 Bohr mag/cell

     convergence has been achieved in   4 iterations

     negative rho (up, down):  2.888E-04 1.307E-04

     Forces acting on atoms (cartesian axes, Ry/au):

     atom    1 type  1   force =     0.00005549   -0.00002282   -0.00032043
     atom    2 type  2   force =    -0.00005549    0.00002282    0.00032043

     Total force =     0.000326     Total SCF correction =     0.000010
     Energy error            =      1.2E-06
     Gradient error          =      3.2E-04

     number of scf cycles    =  10
     number of bfgs steps    =   1

     energy   old            =     -21.1415838465 Ry
[...]

          k = 0.2500 0.0000 0.0000 (423725 PWs)   bands (ev):

   -29.0718 -19.8206 -15.2404 -15.2401 -11.1656 -10.9524 -10.7548

          k = 0.2500 0.2500 0.0000 (423766 PWs)   bands (ev):

   -29.0718 -19.8206 -15.2404 -15.2401 -11.1464 -10.9497 -10.8971

          k = 0.2500-0.5000 0.0000 (423782 PWs)   bands (ev):

   -29.0718 -19.8206 -15.2404 -15.2401 -11.1145 -11.0068 -10.8706

          k = 0.2500-0.2500 0.0000 (423766 PWs)   bands (ev):

   -29.0718 -19.8206 -15.2404 -15.2401 -11.1464 -10.9497 -10.8970

          k =-0.5000 0.0000 0.0000 (423542 PWs)   bands (ev):

   -29.0718 -19.8206 -15.2404 -15.2401 -11.1319 -11.0302 -10.7326

          k =-0.5000 0.2500 0.0000 (423782 PWs)   bands (ev):

   -29.0718 -19.8206 -15.2404 -15.2401 -11.1145 -11.0068 -10.8409

          k =-0.5000-0.5000 0.0000 (423708 PWs)   bands (ev):

   -29.0718 -19.8206 -15.2404 -15.2401 -11.0885 -10.9437 -10.9368

     the Fermi energy is   -15.3548 ev

!    total energy              =     -21.14158268 Ry
     estimated scf accuracy    <          5.0E-09 Ry
     smearing contrib. (-TS)   =       0.00057979 Ry
     internal energy E=F+TS    =     -21.14216248 Ry

     The total energy is F=E-TS. E is the sum of the following terms:
     one-electron contribution =     -41.92493015 Ry
     hartree contribution      =      19.45919911 Ry
     xc contribution           =      -5.90289354 Ry
     ewald contribution        =       2.34721007 Ry
     Dispersion Correction     =      -0.00000239 Ry
     electric field correction =       4.87925442 Ry

     total magnetization       =     2.00 Bohr mag/cell
     absolute magnetization    =     2.05 Bohr mag/cell

     convergence has been achieved in   4 iterations

     negative rho (up, down):  2.888E-04 1.307E-04

     Forces acting on atoms (cartesian axes, Ry/au):

     atom    1 type  1   force =     0.00005545   -0.00002280   -0.00031981
     atom    2 type  2   force =    -0.00005545    0.00002280    0.00031981

     Total force =     0.000325     Total SCF correction =     0.000007
     Energy error            =      1.2E-06
     Gradient error          =      3.2E-04

     number of scf cycles    =  48
     number of bfgs steps    =   1

     energy   old            =     -21.1415838465 Ry
     energy   new            =     -21.1415826849 Ry

     CASE: energy  _new > energy  _old

     new trust radius        =       0.0003146152 bohr
     new conv_thr            =       0.0000000100 Ry


ATOMIC_POSITIONS (angstrom)
N            10.0000000000       10.0000000000        0.0000000000    0   0   0
H            10.0030182644        9.9987607760       -1.0486816574



     Writing output data file ./NH_ESM_VA16.save/
     NEW-OLD atomic charge density approx. for the potential

     negative rho (up, down):  1.645E-04 2.102E-04

     Adding external electric field
        E field amplitude [Ha a.u.]: -3.1525E-02
        Potential amp.       -2.1446 Ry
        Total length         34.0151 bohr

     Generating pointlists ...

     total cpu time spent up to now is     4907.8 secs

     Self-consistent Calculation

     iteration #  1     ecut=    60.00 Ry     beta= 0.70
     CG style diagonalization
     ethr =  1.00E-06,  avg # of iterations =  2.0

     Threshold (ethr) on eigenvalues was too large:
     Diagonalizing with lowered threshold

     CG style diagonalization
     ethr =  1.44E-09,  avg # of iterations =  2.7

     negative rho (up, down):  2.587E-04 1.476E-04

     total cpu time spent up to now is     4930.0 secs

     total energy              =     -21.14158368 Ry
     estimated scf accuracy    <       0.00000011 Ry

     total magnetization       =     2.00 Bohr mag/cell
     absolute magnetization    =     2.05 Bohr mag/cell

     iteration #  2     ecut=    60.00 Ry     beta= 0.70
     CG style diagonalization
     ethr =  1.90E-09,  avg # of iterations =  3.4

     negative rho (up, down):  2.662E-04 1.502E-04

     total cpu time spent up to now is     4947.3 secs

     total energy              =     -21.14158376 Ry
     estimated scf accuracy    <       0.00000036 Ry

     total magnetization       =     2.00 Bohr mag/cell
     absolute magnetization    =     2.05 Bohr mag/cell

     iteration #  3     ecut=    60.00 Ry     beta= 0.70
     CG style diagonalization
     ethr =  1.90E-09,  avg # of iterations =  3.0

     negative rho (up, down):  2.792E-04 1.391E-04

     total cpu time spent up to now is     4964.0 secs

     total energy              =     -21.14158345 Ry
     estimated scf accuracy    <       0.00000028 Ry

     total magnetization       =     2.00 Bohr mag/cell
     absolute magnetization    =     2.05 Bohr mag/cell

     iteration #  4     ecut=    60.00 Ry     beta= 0.70
     CG style diagonalization
     ethr =  1.90E-09,  avg # of iterations =  3.1

     negative rho (up, down):  2.831E-04 1.360E-04

     total cpu time spent up to now is     4981.1 secs

     total energy              =     -21.14158362 Ry
     estimated scf accuracy    <       0.00000001 Ry

     total magnetization       =     2.00 Bohr mag/cell
     absolute magnetization    =     2.05 Bohr mag/cell

     iteration #  5     ecut=    60.00 Ry     beta= 0.70
     CG style diagonalization
     ethr =  1.73E-10,  avg # of iterations =  3.2

     negative rho (up, down):  2.887E-04 1.306E-04

     Magnetic moment per site:
     atom:    1    charge:    1.3492    magn:    0.5544    constr:    0.0000
     atom:    2    charge:    0.4453    magn:   -0.0100    constr:    0.0000

     total cpu time spent up to now is     4996.5 secs

     End of self-consistent calculation

 ------ SPIN UP ------------


          k = 0.0000 0.0000 0.0000 (423701 PWs)   bands (ev):

   -31.8075 -20.8569 -19.0907 -19.0906 -11.4719 -10.9879 -10.8793

          k = 0.0000 0.2500 0.0000 (423725 PWs)   bands (ev):

   -31.8075 -20.8569 -19.0907 -19.0906 -11.4677 -11.0379 -10.8670

          k = 0.0000-0.5000 0.0000 (423542 PWs)   bands (ev):

   -31.8075 -20.8569 -19.0907 -19.0906 -11.4632 -11.0737 -10.8449

          k = 0.2500 0.0000 0.0000 (423725 PWs)   bands (ev):

   -31.8075 -20.8569 -19.0907 -19.0906 -11.4677 -11.0379 -10.8679

          k = 0.2500 0.2500 0.0000 (423766 PWs)   bands (ev):

   -31.8075 -20.8569 -19.0907 -19.0906 -11.4637 -11.0352 -10.9673

          k = 0.2500-0.5000 0.0000 (423782 PWs)   bands (ev):

   -31.8075 -20.8569 -19.0907 -19.0906 -11.4596 -11.0524 -10.9656

          k = 0.2500-0.2500 0.0000 (423766 PWs)   bands (ev):

   -31.8075 -20.8569 -19.0907 -19.0906 -11.4637 -11.0353 -10.9673

          k =-0.5000 0.0000 0.0000 (423542 PWs)   bands (ev):

   -31.8075 -20.8569 -19.0907 -19.0906 -11.4632 -11.0737 -10.8422

          k =-0.5000 0.2500 0.0000 (423782 PWs)   bands (ev):

   -31.8075 -20.8569 -19.0907 -19.0906 -11.4596 -11.0523 -10.9656

          k =-0.5000-0.5000 0.0000 (423708 PWs)   bands (ev):

   -31.8075 -20.8569 -19.0907 -19.0906 -11.4559 -11.0099 -10.9454

 ------ SPIN DOWN ----------


          k = 0.0000 0.0000 0.0000 (423701 PWs)   bands (ev):

   -29.0684 -19.8196 -15.2398 -15.2397 -11.1858 -10.8490 -10.7658

          k = 0.0000 0.2500 0.0000 (423725 PWs)   bands (ev):

   -29.0684 -19.8196 -15.2398 -15.2397 -11.1660 -10.9528 -10.7740

          k = 0.0000-0.5000 0.0000 (423542 PWs)   bands (ev):

   -29.0684 -19.8196 -15.2398 -15.2397 -11.1322 -11.0306 -10.7333

          k = 0.2500 0.0000 0.0000 (423725 PWs)   bands (ev):

   -29.0684 -19.8196 -15.2398 -15.2397 -11.1660 -10.9528 -10.7554

          k = 0.2500 0.2500 0.0000 (423766 PWs)   bands (ev):

   -29.0684 -19.8196 -15.2398 -15.2397 -11.1467 -10.9500 -10.8975

          k = 0.2500-0.5000 0.0000 (423782 PWs)   bands (ev):

   -29.0684 -19.8196 -15.2398 -15.2397 -11.1147 -11.0073 -10.8710

          k = 0.2500-0.2500 0.0000 (423766 PWs)   bands (ev):

   -29.0684 -19.8196 -15.2398 -15.2397 -11.1467 -10.9500 -10.8975

          k =-0.5000 0.0000 0.0000 (423542 PWs)   bands (ev):

   -29.0684 -19.8196 -15.2398 -15.2397 -11.1322 -11.0306 -10.7331

          k =-0.5000 0.2500 0.0000 (423782 PWs)   bands (ev):

   -29.0684 -19.8196 -15.2398 -15.2397 -11.1147 -11.0073 -10.8419

          k =-0.5000-0.5000 0.0000 (423708 PWs)   bands (ev):

   -29.0684 -19.8196 -15.2398 -15.2397 -11.0888 -10.9441 -10.9373

     the Fermi energy is   -15.3543 ev

!    total energy              =     -21.14158362 Ry
     estimated scf accuracy    <          8.4E-10 Ry
     smearing contrib. (-TS)   =       0.00057979 Ry
     internal energy E=F+TS    =     -21.14216341 Ry

     The total energy is F=E-TS. E is the sum of the following terms:
     one-electron contribution =     -41.92143935 Ry
     hartree contribution      =      19.45758018 Ry
     xc contribution           =      -5.90254700 Ry
     ewald contribution        =       2.34504435 Ry
     Dispersion Correction     =      -0.00000239 Ry
     electric field correction =       4.87920079 Ry

     total magnetization       =     2.00 Bohr mag/cell
     absolute magnetization    =     2.05 Bohr mag/cell

     convergence has been achieved in   5 iterations

     negative rho (up, down):  2.887E-04 1.306E-04

     Forces acting on atoms (cartesian axes, Ry/au):

     atom    1 type  1   force =     0.00005838   -0.00002396   -0.00093823
     atom    2 type  2   force =    -0.00005838    0.00002396    0.00093823

     Total force =     0.000940     Total SCF correction =     0.000001
     Energy error            =      2.2E-07
     Gradient error          =      9.4E-04

     number of scf cycles    =  49
     number of bfgs steps    =   1

     energy   old            =     -21.1415838465 Ry
     energy   new            =     -21.1415836219 Ry

     CASE: energy  _new > energy  _old

     new trust radius        =       0.0000975924 bohr

     trust_radius < trust_radius_min

     resetting bfgs history

     new conv_thr            =       0.0000000100 Ry


ATOMIC_POSITIONS (angstrom)
N            10.0000000000       10.0000000000        0.0000000000    0   0   0
H            10.0029955284        9.9987701105       -1.0482315666



     Writing output data file ./NH_ESM_VA16.save/
     NEW-OLD atomic charge density approx. for the potential

     negative rho (up, down):  1.646E-04 2.100E-04

     Adding external electric field
        E field amplitude [Ha a.u.]: -3.1525E-02
        Potential amp.       -2.1446 Ry
        Total length         34.0151 bohr

     Generating pointlists ...

     total cpu time spent up to now is     5017.2 secs

     Self-consistent Calculation

     iteration #  1     ecut=    60.00 Ry     beta= 0.70
     CG style diagonalization
     ethr =  1.00E-06,  avg # of iterations =  2.0

     Threshold (ethr) on eigenvalues was too large:
     Diagonalizing with lowered threshold

     CG style diagonalization
     ethr =  6.68E-10,  avg # of iterations =  2.7

     negative rho (up, down):  2.586E-04 1.470E-04

     total cpu time spent up to now is     5039.3 secs

     total energy              =     -21.14158267 Ry
     estimated scf accuracy    <       0.00000006 Ry

     total magnetization       =     2.00 Bohr mag/cell
     absolute magnetization    =     2.05 Bohr mag/cell

     iteration #  2     ecut=    60.00 Ry     beta= 0.70
     CG style diagonalization
     ethr =  1.06E-09,  avg # of iterations =  3.4

     negative rho (up, down):  2.747E-04 1.404E-04

     total cpu time spent up to now is     5056.5 secs

     total energy              =     -21.14158274 Ry
     estimated scf accuracy    <       0.00000005 Ry

     total magnetization       =     2.00 Bohr mag/cell
     absolute magnetization    =     2.05 Bohr mag/cell

     iteration #  3     ecut=    60.00 Ry     beta= 0.70
     CG style diagonalization
     ethr =  7.62E-10,  avg # of iterations =  3.0

     negative rho (up, down):  2.778E-04 1.406E-04

     total cpu time spent up to now is     5073.3 secs

     total energy              =     -21.14158259 Ry
     estimated scf accuracy    <       0.00000017 Ry

     total magnetization       =     2.00 Bohr mag/cell
     absolute magnetization    =     2.05 Bohr mag/cell

     iteration #  4     ecut=    60.00 Ry     beta= 0.70
     CG style diagonalization
     ethr =  7.62E-10,  avg # of iterations =  3.1

     negative rho (up, down):  2.888E-04 1.307E-04

     Magnetic moment per site:
     atom:    1    charge:    1.3493    magn:    0.5544    constr:    0.0000
     atom:    2    charge:    0.4457    magn:   -0.0100    constr:    0.0000

     total cpu time spent up to now is     5088.5 secs

     End of self-consistent calculation

 ------ SPIN UP ------------


          k = 0.0000 0.0000 0.0000 (423701 PWs)   bands (ev):

   -31.8105 -20.8583 -19.0913 -19.0911 -11.4719 -10.9881 -10.8795

          k = 0.0000 0.2500 0.0000 (423725 PWs)   bands (ev):

   -31.8105 -20.8583 -19.0913 -19.0911 -11.4676 -11.0381 -10.8672

          k = 0.0000-0.5000 0.0000 (423542 PWs)   bands (ev):

   -31.8105 -20.8583 -19.0913 -19.0911 -11.4631 -11.0739 -10.8451

          k = 0.2500 0.0000 0.0000 (423725 PWs)   bands (ev):

   -31.8105 -20.8583 -19.0913 -19.0911 -11.4676 -11.0381 -10.8681

          k = 0.2500 0.2500 0.0000 (423766 PWs)   bands (ev):

   -31.8105 -20.8583 -19.0913 -19.0911 -11.4637 -11.0355 -10.9675

          k = 0.2500-0.5000 0.0000 (423782 PWs)   bands (ev):

   -31.8105 -20.8583 -19.0913 -19.0911 -11.4595 -11.0526 -10.9658

          k = 0.2500-0.2500 0.0000 (423766 PWs)   bands (ev):

   -31.8105 -20.8583 -19.0913 -19.0911 -11.4637 -11.0355 -10.9675

          k =-0.5000 0.0000 0.0000 (423542 PWs)   bands (ev):

   -31.8105 -20.8583 -19.0913 -19.0911 -11.4631 -11.0739 -10.8424

          k =-0.5000 0.2500 0.0000 (423782 PWs)   bands (ev):

   -31.8105 -20.8583 -19.0913 -19.0911 -11.4595 -11.0526 -10.9658

          k =-0.5000-0.5000 0.0000 (423708 PWs)   bands (ev):

   -31.8105 -20.8583 -19.0913 -19.0911 -11.4558 -11.0102 -10.9457

 ------ SPIN DOWN ----------


          k = 0.0000 0.0000 0.0000 (423701 PWs)   bands (ev):

   -29.0718 -19.8206 -15.2404 -15.2402 -11.1855 -10.8488 -10.7654

          k = 0.0000 0.2500 0.0000 (423725 PWs)   bands (ev):

   -29.0718 -19.8206 -15.2404 -15.2402 -11.1657 -10.9524 -10.7736

          k = 0.0000-0.5000 0.0000 (423542 PWs)   bands (ev):

   -29.0718 -19.8206 -15.2404 -15.2401 -11.1319 -11.0302 -10.7329

          k = 0.2500 0.0000 0.0000 (423725 PWs)   bands (ev):

   -29.0718 -19.8206 -15.2404 -15.2402 -11.1657 -10.9524 -10.7551

          k = 0.2500 0.2500 0.0000 (423766 PWs)   bands (ev):

   -29.0718 -19.8206 -15.2404 -15.2402 -11.1464 -10.9497 -10.8971

          k = 0.2500-0.5000 0.0000 (423782 PWs)   bands (ev):

   -29.0718 -19.8206 -15.2404 -15.2402 -11.1145 -11.0068 -10.8706

          k = 0.2500-0.2500 0.0000 (423766 PWs)   bands (ev):

   -29.0718 -19.8206 -15.2404 -15.2402 -11.1464 -10.9497 -10.8971

          k =-0.5000 0.0000 0.0000 (423542 PWs)   bands (ev):

   -29.0718 -19.8206 -15.2404 -15.2401 -11.1319 -11.0302 -10.7327

          k =-0.5000 0.2500 0.0000 (423782 PWs)   bands (ev):

   -29.0718 -19.8206 -15.2404 -15.2402 -11.1145 -11.0069 -10.8420

          k =-0.5000-0.5000 0.0000 (423708 PWs)   bands (ev):

   -29.0718 -19.8206 -15.2404 -15.2402 -11.0885 -10.9437 -10.9369

     the Fermi energy is   -15.3548 ev

!    total energy              =     -21.14158268 Ry
     estimated scf accuracy    <          4.7E-09 Ry
     smearing contrib. (-TS)   =       0.00057979 Ry
     internal energy E=F+TS    =     -21.14216248 Ry

     The total energy is F=E-TS. E is the sum of the following terms:
     one-electron contribution =     -41.92493964 Ry
     hartree contribution      =      19.45921163 Ry
     xc contribution           =      -5.90289657 Ry
     ewald contribution        =       2.34721007 Ry
     Dispersion Correction     =      -0.00000239 Ry
     electric field correction =       4.87925442 Ry

     total magnetization       =     2.00 Bohr mag/cell
     absolute magnetization    =     2.05 Bohr mag/cell

     convergence has been achieved in   4 iterations

     negative rho (up, down):  2.888E-04 1.307E-04

     Forces acting on atoms (cartesian axes, Ry/au):

     atom    1 type  1   force =     0.00005541   -0.00002275   -0.00032002
     atom    2 type  2   force =    -0.00005541    0.00002275    0.00032002

     Total force =     0.000326     Total SCF correction =     0.000007
     Energy error            =      1.2E-06
     Gradient error          =      3.2E-04

     number of scf cycles    =  50
     number of bfgs steps    =   1

     energy   old            =     -21.1415838465 Ry
     energy   new            =     -21.1415826842 Ry

     CASE: energy  _new > energy  _old

     new trust radius        =       0.0003145280 bohr

     The maximum number of steps has been reached.

     End of BFGS Geometry Optimization

ATOMIC_POSITIONS (angstrom)
N            10.0000000000       10.0000000000        0.0000000000    0   0   0
H            10.0030182668        9.9987607750       -1.0486817035



     Writing output data file ./NH_ESM_VA16.save/
     NEW-OLD atomic charge density approx. for the potential

     negative rho (up, down):  1.653E-04 2.106E-04

     Adding external electric field
        E field amplitude [Ha a.u.]: -3.1525E-02
        Potential amp.       -2.1446 Ry
        Total length         34.0151 bohr

     Generating pointlists ...

     Writing output data file ./NH_ESM_VA16.save/

     init_run     :     19.91s CPU     21.10s WALL (       1 calls)
     electrons    :   3848.29s CPU   4152.29s WALL (      50 calls)
     update_pot   :    383.54s CPU    404.01s WALL (      50 calls)
     forces       :    396.64s CPU    424.78s WALL (      50 calls)

     Called by init_run:
     wfcinit      :      1.59s CPU      1.72s WALL (       1 calls)
     potinit      :      7.19s CPU      7.84s WALL (       1 calls)
     hinit0       :      1.12s CPU      1.26s WALL (       1 calls)

     Called by electrons:
     c_bands      :   1299.11s CPU   1321.83s WALL (     275 calls)
     sum_band     :    591.90s CPU    611.41s WALL (     275 calls)
     v_of_rho     :   1565.19s CPU   1699.22s WALL (     277 calls)
     newd         :    209.62s CPU    222.40s WALL (     277 calls)
     mix_rho      :    240.29s CPU    289.27s WALL (     275 calls)

     Called by c_bands:
     init_us_2    :      9.78s CPU     10.16s WALL (    1803 calls)
     ccgdiagg     :   1010.17s CPU   1022.36s WALL (     825 calls)
     wfcrot       :    253.85s CPU    256.76s WALL (     531 calls)

     Called by *cgdiagg:
     h_psi        :   1132.31s CPU   1145.84s WALL (   13921 calls)
     s_psi        :     44.08s CPU     44.59s WALL (   27311 calls)

     Called by h_psi:
     h_psi:calbec :     37.80s CPU     38.36s WALL (   13921 calls)
     vloc_psi     :   1046.41s CPU   1058.86s WALL (   13921 calls)
     add_vuspsi   :     42.56s CPU     43.08s WALL (   13921 calls)
     hs_1psi      :    918.79s CPU    929.89s WALL (   13390 calls)
     s_1psi       :     51.84s CPU     52.45s WALL (   13390 calls)

     General routines
     calbec       :     73.42s CPU     74.49s WALL (   28736 calls)
     fft          :   1794.07s CPU   1843.01s WALL (    7721 calls)
     ffts         :     90.13s CPU     90.99s WALL (    1104 calls)
     fftw         :   1010.91s CPU   1022.63s WALL (   39989 calls)
     interpolate  :    188.59s CPU    202.39s WALL (     554 calls)
     davcio       :      0.65s CPU     27.37s WALL (    3839 calls)

     Parallel routines
     fft_scatt_xy :    434.08s CPU    439.37s WALL (   48814 calls)
     fft_scatt_yz :   1075.86s CPU   1088.95s WALL (   48814 calls)

     PWSCF        :      1h19m CPU      1h25m WALL


   This run was terminated on:  22:20:52  28Sep2022            

=------------------------------------------------------------------------------=
   JOB DONE.
=------------------------------------------------------------------------------=
