
     Program PWSCF v.6.7MaX starts on  8Jul2022 at 17:41:19 

     This program is part of the open-source Quantum ESPRESSO suite
     for quantum simulation of materials; please cite
         "P. Giannozzi et al., J. Phys.:Condens. Matter 21 395502 (2009);
         "P. Giannozzi et al., J. Phys.:Condens. Matter 29 465901 (2017);
          URL http://www.quantum-espresso.org", 
     in publications or presentations arising from this work. More details at
     http://www.quantum-espresso.org/quote

     Parallel version (MPI), running on   256 processors

     MPI processes distributed on     2 nodes
     K-points division:     npool     =       8
     R & G space division:  proc/nbgrp/npool/nimage =      32
     Waiting for input...
     Reading input from standard input
Warning: card &CELL ignored
Warning: card / ignored

     Current dimensions of program PWSCF are:
     Max number of different atomic species (ntypx) = 10
     Max number of k-points (npk) =  40000
     Max angular momentum in pseudopotentials (lmaxx) =  3
     file Fe.pbe-spn-kjpaw_psl.0.2.1.UPF: wavefunction(s)  3D renormalized

     IMPORTANT: XC functional enforced from input :
     Exchange-correlation= PBE
                           (   1   4   3   4   0   0   0)
     Any further DFT definition will be discarded
     Please, verify this is what you really want


     -------------------------------------------------
     Parameters for Dispersion (Grimme-D2) Correction:
     -------------------------------------------------
       atom      VdW radius       C_6     

        Fe         2.952        374.666
        N          2.640         42.670
        H          1.892          4.857

     Subspace diagonalization in iterative solution of the eigenvalue problem:
     one sub-group per band group will be used
     scalapack distributed-memory algorithm (size of sub-group:  5*  5 procs)


     Parallelization info
     --------------------
     sticks:   dense  smooth     PW     G-vecs:    dense   smooth      PW
     Min         396     198     52                90796    32100    4368
     Max         397     199     53                90807    32109    4377
     Sum       12685    6351   1677              2905599  1027285  139897



     bravais-lattice index     =            0
     lattice parameter (alat)  =      18.7640  a.u.
     unit-cell volume          =   16360.3161 (a.u.)^3
     number of atoms/cell      =           67
     number of atomic types    =            3
     number of electrons       =      1031.00
     number of Kohn-Sham states=          619
     kinetic-energy cutoff     =      60.0000  Ry
     charge density cutoff     =     480.0000  Ry
     scf convergence threshold =      1.0E-08
     mixing beta               =       0.2000
     number of iterations used =           10  local-TF  mixing
     energy convergence thresh.=      7.3E-07
     force convergence thresh. =      3.9E-04
     Exchange-correlation= PBE
                           (   1   4   3   4   0   0   0)
     nstep                     =           50


     Effective Screening Medium Method
     =================================
     Boundary Conditions: Metal-Slab-Metal
     field strength                   =     0.00 Ry/a.u.
     grid points for fit at edges     =        4 


     celldm(1)=  18.764036  celldm(2)=   0.000000  celldm(3)=   0.000000
     celldm(4)=   0.000000  celldm(5)=   0.000000  celldm(6)=   0.000000

     crystal axes: (cart. coord. in units of alat)
               a(1) = (   1.000000   0.000000   0.000000 )  
               a(2) = (   0.333330   0.942807   0.000000 )  
               a(3) = (   0.000000   0.000000   2.626577 )  

     reciprocal axes: (cart. coord. in units 2 pi/alat)
               b(1) = (  1.000000 -0.353551  0.000000 )  
               b(2) = (  0.000000  1.060663  0.000000 )  
               b(3) = (  0.000000  0.000000  0.380724 )  


     PseudoPot. # 1 for Fe read from file:
     ../../SSSP/Fe.pbe-spn-kjpaw_psl.0.2.1.UPF
     MD5 check sum: e86618425769142926afa95317d90200
     Pseudo is Projector augmented-wave + core cor, Zval = 16.0
     Generated using "atomic" code by A. Dal Corso  v.5.0.99 svn rev. 10869
     Shape of augmentation charge: PSQ
     Using radial grid of 1191 points,  6 beta functions with: 
                l(1) =   0
                l(2) =   0
                l(3) =   1
                l(4) =   1
                l(5) =   2
                l(6) =   2
     Q(r) pseudized with 0 coefficients 


     PseudoPot. # 2 for N  read from file:
     ../../SSSP/N.pbe-n-radius_5.UPF
     MD5 check sum: 16739722b17309cd8fe442a2ace49922
     Pseudo is Ultrasoft + core correction, Zval =  5.0
     Generated using "atomic" code by A. Dal Corso  v.5.1
     Using radial grid of 1085 points,  4 beta functions with: 
                l(1) =   0
                l(2) =   0
                l(3) =   1
                l(4) =   1
     Q(r) pseudized with 0 coefficients 


     PseudoPot. # 3 for H  read from file:
     ../../SSSP/H.pbe-rrkjus_psl.1.0.0.UPF
     MD5 check sum: f52b6d4d1c606e5624b1dc7b2218f220
     Pseudo is Ultrasoft, Zval =  1.0
     Generated using "atomic" code by A. Dal Corso  v.5.1
     Using radial grid of  929 points,  2 beta functions with: 
                l(1) =   0
                l(2) =   0
     Q(r) pseudized with 0 coefficients 


     atomic species   valence    mass     pseudopotential
        Fe            16.00    55.84500     Fe( 1.00)
        N              5.00    14.00700     N ( 1.00)
        H              1.00     1.00800     H ( 1.00)

     Starting magnetic structure 
     atomic species   magnetization
        Fe           0.100
        N            0.100
        H            0.100

     No symmetry found



   Cartesian axes

     site n.     atom                  positions (alat units)
         1           Fe  tau(   1) = (   0.1666663   0.1178509   0.0000000  )
         2           Fe  tau(   2) = (   0.0000000   0.0000000   0.2041376  )
         3           Fe  tau(   3) = (   0.4999989   0.3535526   0.0000000  )
         4           Fe  tau(   4) = (   0.3333326   0.2357017   0.2041376  )
         5           Fe  tau(   5) = (   0.1689086   0.1177626   0.4054037  )
         6           Fe  tau(   6) = (   0.3344565   0.9421522   0.6046720  )
         7           Fe  tau(   7) = (   0.5011260   0.3549683   0.4071487  )
         8           Fe  tau(   8) = (   0.3394787   0.2351497   0.6056054  )
         9           Fe  tau(   9) = (   0.2499989   0.3535526   0.0000000  )
        10           Fe  tau(  10) = (   0.4166663   0.1178509   0.0000000  )
        11           Fe  tau(  11) = (   0.0833326   0.2357017   0.2041376  )
        12           Fe  tau(  12) = (   0.2500000   0.0000000   0.2041376  )
        13           Fe  tau(  13) = (   0.2500496   0.3534643   0.4070637  )
        14           Fe  tau(  14) = (   0.4191073   0.1195952   0.4062615  )
        15           Fe  tau(  15) = (   0.0873507   0.2338674   0.6043404  )
        16           Fe  tau(  16) = (   0.2516474   0.0011873   0.6057163  )
        17           Fe  tau(  17) = (   0.6666663   0.1178509   0.0000000  )
        18           Fe  tau(  18) = (   0.5000000   0.0000000   0.2041376  )
        19           Fe  tau(  19) = (   0.9999989   0.3535526   0.0000000  )
        20           Fe  tau(  20) = (   0.8333326   0.2357017   0.2041376  )
        21           Fe  tau(  21) = (   0.6683672   0.1184493   0.4071322  )
        22           Fe  tau(  22) = (   0.5015274   0.0059756   0.6056280  )
        23           Fe  tau(  23) = (   0.9987945   0.3520318   0.4069418  )
        24           Fe  tau(  24) = (   0.8425606   0.2225683   0.6029475  )
        25           Fe  tau(  25) = (   0.7499989   0.3535526   0.0000000  )
        26           Fe  tau(  26) = (   0.9166663   0.1178509   0.0000000  )
        27           Fe  tau(  27) = (   0.5833326   0.2357017   0.2041376  )
        28           Fe  tau(  28) = (   0.7500000   0.0000000   0.2041376  )
        29           Fe  tau(  29) = (   0.7499443   0.3534982   0.4029636  )
        30           Fe  tau(  30) = (   0.9185492   0.1149907   0.4042807  )
        31           Fe  tau(  31) = (   0.5927334   0.2423230   0.6094155  )
        32           Fe  tau(  32) = (   1.0845558   0.9385582   0.6044802  )
        33           Fe  tau(  33) = (   0.3333315   0.5892543   0.0000000  )
        34           Fe  tau(  34) = (   0.1666652   0.4714034   0.2041376  )
        35           Fe  tau(  35) = (   0.6666640   0.8249560   0.0000000  )
        36           Fe  tau(  36) = (   0.4999978   0.7071052   0.2041376  )
        37           Fe  tau(  37) = (   0.3311979   0.5893155   0.4056474  )
        38           Fe  tau(  38) = (   1.1606984   0.4711726   0.6052460  )
        39           Fe  tau(  39) = (   0.6673353   0.8271056   0.4054098  )
        40           Fe  tau(  40) = (   0.4997522   0.7084210   0.6046393  )
        41           Fe  tau(  41) = (   0.4166640   0.8249560   0.0000000  )
        42           Fe  tau(  42) = (   0.5833315   0.5892543   0.0000000  )
        43           Fe  tau(  43) = (   1.2499978   0.7071052   0.2041376  )
        44           Fe  tau(  44) = (   0.4166652   0.4714034   0.2041376  )
        45           Fe  tau(  45) = (   0.4165505   0.8248981   0.4045796  )
        46           Fe  tau(  46) = (   0.5812668   0.5919779   0.4042850  )
        47           Fe  tau(  47) = (   1.2472480   0.7051693   0.6057119  )
        48           Fe  tau(  48) = (   0.4130609   0.4740042   0.6045132  )
        49           Fe  tau(  49) = (   0.8333315   0.5892543   0.0000000  )
        50           Fe  tau(  50) = (   0.6666652   0.4714034   0.2041376  )
        51           Fe  tau(  51) = (   1.1666640   0.8249560   0.0000000  )
        52           Fe  tau(  52) = (   0.9999978   0.7071052   0.2041376  )
        53           Fe  tau(  53) = (   0.8314976   0.5886325   0.4069528  )
        54           Fe  tau(  54) = (   0.6573683   0.4844832   0.6029447  )
        55           Fe  tau(  55) = (   1.1660118   0.8229263   0.4056423  )
        56           Fe  tau(  56) = (   0.9978077   0.7015416   0.6052246  )
        57           Fe  tau(  57) = (   0.9166640   0.8249560   0.0000000  )
        58           Fe  tau(  58) = (   1.0833315   0.5892543   0.0000000  )
        59           Fe  tau(  59) = (   0.7499978   0.7071052   0.2041376  )
        60           Fe  tau(  60) = (   0.9166652   0.4714034   0.2041376  )
        61           Fe  tau(  61) = (   0.9166071   0.8250596   0.4070638  )
        62           Fe  tau(  62) = (   1.0808337   0.5874989   0.4060401  )
        63           Fe  tau(  63) = (   0.7496100   0.7115242   0.6043569  )
        64           Fe  tau(  64) = (   0.9074742   0.4648749   0.6093827  )
        65           N   tau(  65) = (   0.7501474   0.3536613   0.7048691  )
        66           H   tau(  66) = (   0.7502862   0.3537825   0.8083333  )
        67           H   tau(  67) = (   0.4595445   0.8553106   0.6995069  )

     number of k points=    10  Methfessel-Paxton smearing, width (Ry)=  0.0100
                       cart. coord. in units 2pi/alat
        k(    1) = (   0.0000000   0.0000000   0.0000000), wk =   0.0625000
        k(    2) = (   0.0000000   0.2651656   0.0000000), wk =   0.1250000
        k(    3) = (   0.0000000  -0.5303313   0.0000000), wk =   0.0625000
        k(    4) = (   0.2500000  -0.0883878   0.0000000), wk =   0.1250000
        k(    5) = (   0.2500000   0.1767779   0.0000000), wk =   0.1250000
        k(    6) = (   0.2500000  -0.6187190   0.0000000), wk =   0.1250000
        k(    7) = (   0.2500000  -0.3535534   0.0000000), wk =   0.1250000
        k(    8) = (  -0.5000000   0.1767755   0.0000000), wk =   0.0625000
        k(    9) = (  -0.5000000   0.4419412   0.0000000), wk =   0.1250000
        k(   10) = (  -0.5000000  -0.3535558   0.0000000), wk =   0.0625000

     Dense  grid:  2905599 G-vectors     FFT dimensions: ( 135, 135, 360)

     Smooth grid:  1027285 G-vectors     FFT dimensions: (  96,  96, 243)

     Estimated max dynamical RAM per process >     640.95 MB

     Estimated total dynamical RAM >     160.24 GB

     Check: negative core charge=   -0.000039
     Generating pointlists ...
     new r_m :   0.0740 (alat units)  1.3885 (a.u.) for type    1
     new r_m :   0.0427 (alat units)  0.8008 (a.u.) for type    2
     new r_m :   0.0427 (alat units)  0.8008 (a.u.) for type    3

     Initial potential from superposition of free atoms

     starting charge 1030.97192, renormalised to 1031.00000

     negative rho (up, down):  1.345E-02 1.100E-02
     Starting wfcs are  838 randomized atomic wfcs
     Checking if some PAW data can be deallocated... 

     total cpu time spent up to now is       32.1 secs

     Self-consistent Calculation

     iteration #  1     ecut=    60.00 Ry     beta= 0.20
     Davidson diagonalization with overlap
     c_bands:  2 eigenvalues not converged
     ethr =  1.00E-04,  avg # of iterations = 18.0

     negative rho (up, down):  6.793E-03 5.446E-03

     total cpu time spent up to now is      327.2 secs

     total energy              =  -21094.61751317 Ry
     estimated scf accuracy    <      44.84086760 Ry

     total magnetization       =   132.98 Bohr mag/cell
     absolute magnetization    =   133.35 Bohr mag/cell

     iteration #  2     ecut=    60.00 Ry     beta= 0.20
     Davidson diagonalization with overlap
     ethr =  4.35E-03,  avg # of iterations =  1.0

     negative rho (up, down):  4.044E-03 3.444E-03

     total cpu time spent up to now is      373.8 secs

     total energy              =  -21095.02174944 Ry
     estimated scf accuracy    <       9.27072130 Ry

     total magnetization       =   135.55 Bohr mag/cell
     absolute magnetization    =   135.91 Bohr mag/cell

     iteration #  3     ecut=    60.00 Ry     beta= 0.20
     Davidson diagonalization with overlap
     ethr =  8.99E-04,  avg # of iterations =  1.0

     negative rho (up, down):  1.871E-02 5.935E-02

     total cpu time spent up to now is      420.5 secs

     total energy              =  -21094.25185923 Ry
     estimated scf accuracy    <      10.03699075 Ry

     total magnetization       =   141.18 Bohr mag/cell
     absolute magnetization    =   141.59 Bohr mag/cell

     iteration #  4     ecut=    60.00 Ry     beta= 0.20
     Davidson diagonalization with overlap
     ethr =  8.99E-04,  avg # of iterations =  3.6

     negative rho (up, down):  2.865E-02 1.011E-01

     total cpu time spent up to now is      477.1 secs

     total energy              =  -21093.69184705 Ry
     estimated scf accuracy    <       8.52729464 Ry

     total magnetization       =   154.40 Bohr mag/cell
     absolute magnetization    =   155.56 Bohr mag/cell

     iteration #  5     ecut=    60.00 Ry     beta= 0.20
     Davidson diagonalization with overlap
     ethr =  8.27E-04,  avg # of iterations =  4.9

     negative rho (up, down):  3.995E-03 3.673E-02

     total cpu time spent up to now is      540.7 secs

     total energy              =  -21094.17348081 Ry
     estimated scf accuracy    <       4.23816220 Ry

     total magnetization       =   159.57 Bohr mag/cell
     absolute magnetization    =   161.56 Bohr mag/cell

     iteration #  6     ecut=    60.00 Ry     beta= 0.20
     Davidson diagonalization with overlap
     ethr =  4.11E-04,  avg # of iterations =  6.8

     negative rho (up, down):  4.854E-05 8.668E-03

     total cpu time spent up to now is      607.8 secs

     total energy              =  -21094.48510297 Ry
     estimated scf accuracy    <       1.04394560 Ry

     total magnetization       =   152.53 Bohr mag/cell
     absolute magnetization    =   155.55 Bohr mag/cell

     iteration #  7     ecut=    60.00 Ry     beta= 0.20
     Davidson diagonalization with overlap
     ethr =  1.01E-04,  avg # of iterations = 15.8

     negative rho (up, down):  3.569E-05 4.699E-03

     total cpu time spent up to now is      821.3 secs

     total energy              =  -21094.99720117 Ry
     estimated scf accuracy    <       2.70242647 Ry

     total magnetization       =   150.08 Bohr mag/cell
     absolute magnetization    =   155.85 Bohr mag/cell

     iteration #  8     ecut=    60.00 Ry     beta= 0.20
     Davidson diagonalization with overlap
     ethr =  1.01E-04,  avg # of iterations =  1.3

     negative rho (up, down):  1.727E-05 2.124E-03

     total cpu time spent up to now is      871.5 secs

     total energy              =  -21094.99675641 Ry
     estimated scf accuracy    <       0.52101332 Ry

     total magnetization       =   151.42 Bohr mag/cell
     absolute magnetization    =   156.49 Bohr mag/cell

     iteration #  9     ecut=    60.00 Ry     beta= 0.20
     Davidson diagonalization with overlap
     ethr =  5.05E-05,  avg # of iterations =  3.9

     negative rho (up, down):  1.806E-04 1.297E-03

     total cpu time spent up to now is      928.5 secs

     total energy              =  -21094.98792371 Ry
     estimated scf accuracy    <       0.31663947 Ry

     total magnetization       =   152.31 Bohr mag/cell
     absolute magnetization    =   157.12 Bohr mag/cell

     iteration # 10     ecut=    60.00 Ry     beta= 0.20
     Davidson diagonalization with overlap
     c_bands:  4 eigenvalues not converged
     ethr =  3.07E-05,  avg # of iterations = 10.2

     negative rho (up, down):  9.586E-05 1.687E-03

     total cpu time spent up to now is     1071.8 secs

     total energy              =  -21095.03174156 Ry
     estimated scf accuracy    <       0.54611090 Ry

     total magnetization       =   155.91 Bohr mag/cell
     absolute magnetization    =   161.01 Bohr mag/cell

     iteration # 11     ecut=    60.00 Ry     beta= 0.20
     Davidson diagonalization with overlap
     c_bands:  3 eigenvalues not converged
     c_bands:  1 eigenvalues not converged
     ethr =  3.07E-05,  avg # of iterations =  4.2

     negative rho (up, down):  1.206E-04 1.562E-03

     total cpu time spent up to now is     1144.8 secs

     total energy              =  -21095.02940441 Ry
     estimated scf accuracy    <       0.29207283 Ry

     total magnetization       =   157.62 Bohr mag/cell
     absolute magnetization    =   162.79 Bohr mag/cell

     iteration # 12     ecut=    60.00 Ry     beta= 0.20
     Davidson diagonalization with overlap
     c_bands:  1 eigenvalues not converged
     ethr =  2.83E-05,  avg # of iterations =  2.2

     negative rho (up, down):  2.106E-04 1.681E-03

     total cpu time spent up to now is     1204.2 secs

     total energy              =  -21095.02063105 Ry
     estimated scf accuracy    <       0.20191541 Ry

     total magnetization       =   158.47 Bohr mag/cell
     absolute magnetization    =   163.69 Bohr mag/cell

     iteration # 13     ecut=    60.00 Ry     beta= 0.20
     Davidson diagonalization with overlap
     ethr =  1.96E-05,  avg # of iterations =  6.8

     negative rho (up, down):  1.804E-03 2.350E-03

     total cpu time spent up to now is     1266.8 secs

     total energy              =  -21095.01758053 Ry
     estimated scf accuracy    <       0.46875311 Ry

     total magnetization       =   159.93 Bohr mag/cell
     absolute magnetization    =   165.22 Bohr mag/cell

     iteration # 14     ecut=    60.00 Ry     beta= 0.20
     Davidson diagonalization with overlap
     ethr =  1.96E-05,  avg # of iterations =  2.4

     negative rho (up, down):  3.039E-02 2.636E-02

     total cpu time spent up to now is     1320.9 secs

     total energy              =  -21095.01607230 Ry
     estimated scf accuracy    <       0.16247330 Ry

     total magnetization       =   160.54 Bohr mag/cell
     absolute magnetization    =   165.90 Bohr mag/cell

     iteration # 15     ecut=    60.00 Ry     beta= 0.20
     Davidson diagonalization with overlap
     ethr =  1.58E-05,  avg # of iterations =  2.6

     negative rho (up, down):  8.281E-02 7.750E-02

     total cpu time spent up to now is     1376.3 secs

     total energy              =  -21095.00835447 Ry
     estimated scf accuracy    <       0.11199220 Ry

     total magnetization       =   160.57 Bohr mag/cell
     absolute magnetization    =   165.99 Bohr mag/cell

     iteration # 16     ecut=    60.00 Ry     beta= 0.20
     Davidson diagonalization with overlap
     c_bands:  2 eigenvalues not converged
     ethr =  1.09E-05,  avg # of iterations = 11.0

     negative rho (up, down):  1.043E-01 9.987E-02

     total cpu time spent up to now is     1459.0 secs

     total energy              =  -21094.99128201 Ry
     estimated scf accuracy    <       0.09794874 Ry

     total magnetization       =   160.51 Bohr mag/cell
     absolute magnetization    =   166.02 Bohr mag/cell

     iteration # 17     ecut=    60.00 Ry     beta= 0.20
     Davidson diagonalization with overlap
     c_bands:  1 eigenvalues not converged
     c_bands:  5 eigenvalues not converged
     ethr =  9.50E-06,  avg # of iterations = 16.9

     negative rho (up, down):  9.486E-02 8.928E-02

     total cpu time spent up to now is     1587.9 secs

     total energy              =  -21094.98851873 Ry
     estimated scf accuracy    <       0.02891774 Ry

     total magnetization       =   159.45 Bohr mag/cell
     absolute magnetization    =   165.21 Bohr mag/cell

     iteration # 18     ecut=    60.00 Ry     beta= 0.20
     Davidson diagonalization with overlap
     c_bands:  1 eigenvalues not converged
     c_bands:  5 eigenvalues not converged
     c_bands:  5 eigenvalues not converged
     ethr =  2.80E-06,  avg # of iterations = 19.4

     negative rho (up, down):  6.735E-02 6.378E-02

     total cpu time spent up to now is     1841.9 secs

     total energy              =  -21094.98645711 Ry
     estimated scf accuracy    <       0.02493926 Ry

     total magnetization       =   159.35 Bohr mag/cell
     absolute magnetization    =   165.47 Bohr mag/cell

     iteration # 19     ecut=    60.00 Ry     beta= 0.20
     Davidson diagonalization with overlap
     c_bands:  1 eigenvalues not converged
     ethr =  2.42E-06,  avg # of iterations = 11.0

     negative rho (up, down):  8.533E-02 8.405E-02

     total cpu time spent up to now is     1926.8 secs

     total energy              =  -21094.95504289 Ry
     estimated scf accuracy    <       0.01766485 Ry

     total magnetization       =   159.46 Bohr mag/cell
     absolute magnetization    =   165.60 Bohr mag/cell

     iteration # 20     ecut=    60.00 Ry     beta= 0.20
     Davidson diagonalization with overlap
     c_bands:  1 eigenvalues not converged
     ethr =  1.71E-06,  avg # of iterations =  9.7

     negative rho (up, down):  9.250E-02 9.132E-02

     total cpu time spent up to now is     2050.6 secs

     total energy              =  -21094.95534979 Ry
     estimated scf accuracy    <       0.00714910 Ry

     total magnetization       =   159.80 Bohr mag/cell
     absolute magnetization    =   166.38 Bohr mag/cell

     iteration # 21     ecut=    60.00 Ry     beta= 0.20
     Davidson diagonalization with overlap
     c_bands:  2 eigenvalues not converged
     ethr =  6.93E-07,  avg # of iterations = 11.3

     negative rho (up, down):  7.462E-02 7.383E-02

     total cpu time spent up to now is     2175.4 secs

     total energy              =  -21094.95661083 Ry
     estimated scf accuracy    <       0.00472395 Ry

     total magnetization       =   159.95 Bohr mag/cell
     absolute magnetization    =   166.65 Bohr mag/cell

     iteration # 22     ecut=    60.00 Ry     beta= 0.20
     Davidson diagonalization with overlap
     ethr =  4.58E-07,  avg # of iterations =  9.2

     negative rho (up, down):  3.949E-02 4.089E-02

     total cpu time spent up to now is     2255.4 secs

     total energy              =  -21094.95580763 Ry
     estimated scf accuracy    <       0.00293586 Ry

     total magnetization       =   160.26 Bohr mag/cell
     absolute magnetization    =   166.97 Bohr mag/cell

     iteration # 23     ecut=    60.00 Ry     beta= 0.20
     Davidson diagonalization with overlap
     ethr =  2.85E-07,  avg # of iterations =  9.6

     negative rho (up, down):  2.406E-02 2.680E-02

     total cpu time spent up to now is     2333.5 secs

     total energy              =  -21094.95693670 Ry
     estimated scf accuracy    <       0.00080106 Ry

     total magnetization       =   160.43 Bohr mag/cell
     absolute magnetization    =   167.12 Bohr mag/cell

     iteration # 24     ecut=    60.00 Ry     beta= 0.20
     Davidson diagonalization with overlap
     c_bands:  1 eigenvalues not converged
     ethr =  7.77E-08,  avg # of iterations = 16.4

     negative rho (up, down):  2.090E-02 2.395E-02

     total cpu time spent up to now is     2569.6 secs

     total energy              =  -21094.95797646 Ry
     estimated scf accuracy    <       0.00033501 Ry

     total magnetization       =   160.49 Bohr mag/cell
     absolute magnetization    =   167.22 Bohr mag/cell

     iteration # 25     ecut=    60.00 Ry     beta= 0.20
     Davidson diagonalization with overlap
     c_bands:  1 eigenvalues not converged
     ethr =  3.25E-08,  avg # of iterations =  8.4

     negative rho (up, down):  1.690E-02 2.039E-02

     total cpu time spent up to now is     2667.6 secs

     total energy              =  -21094.95891902 Ry
     estimated scf accuracy    <       0.00031430 Ry

     total magnetization       =   160.49 Bohr mag/cell
     absolute magnetization    =   167.21 Bohr mag/cell

     iteration # 26     ecut=    60.00 Ry     beta= 0.20
     Davidson diagonalization with overlap
     c_bands:  1 eigenvalues not converged
     ethr =  3.05E-08,  avg # of iterations =  2.9

     negative rho (up, down):  1.252E-02 1.654E-02

     total cpu time spent up to now is     2736.3 secs

     total energy              =  -21094.96065540 Ry
     estimated scf accuracy    <       0.00021257 Ry

     total magnetization       =   160.47 Bohr mag/cell
     absolute magnetization    =   167.20 Bohr mag/cell

     iteration # 27     ecut=    60.00 Ry     beta= 0.20
     Davidson diagonalization with overlap
     c_bands:  1 eigenvalues not converged
     ethr =  2.06E-08,  avg # of iterations =  5.7

     negative rho (up, down):  1.228E-02 1.647E-02

     total cpu time spent up to now is     2813.2 secs

     total energy              =  -21094.96153342 Ry
     estimated scf accuracy    <       0.00007884 Ry

     total magnetization       =   160.52 Bohr mag/cell
     absolute magnetization    =   167.25 Bohr mag/cell

     iteration # 28     ecut=    60.00 Ry     beta= 0.20
     Davidson diagonalization with overlap
     ethr =  7.65E-09,  avg # of iterations = 11.2

     negative rho (up, down):  1.189E-02 1.612E-02

     total cpu time spent up to now is     2977.7 secs

     total energy              =  -21094.96184955 Ry
     estimated scf accuracy    <       0.00001773 Ry

     total magnetization       =   160.55 Bohr mag/cell
     absolute magnetization    =   167.31 Bohr mag/cell

     iteration # 29     ecut=    60.00 Ry     beta= 0.20
     Davidson diagonalization with overlap
     ethr =  1.72E-09,  avg # of iterations = 12.8

     negative rho (up, down):  1.178E-02 1.603E-02

     total cpu time spent up to now is     3127.4 secs

     total energy              =  -21094.96206418 Ry
     estimated scf accuracy    <       0.00000841 Ry

     total magnetization       =   160.57 Bohr mag/cell
     absolute magnetization    =   167.34 Bohr mag/cell

     iteration # 30     ecut=    60.00 Ry     beta= 0.20
     Davidson diagonalization with overlap
     ethr =  8.15E-10,  avg # of iterations =  8.3

     negative rho (up, down):  1.159E-02 1.586E-02

     total cpu time spent up to now is     3214.2 secs

     total energy              =  -21094.96226583 Ry
     estimated scf accuracy    <       0.00000474 Ry

     total magnetization       =   160.58 Bohr mag/cell
     absolute magnetization    =   167.35 Bohr mag/cell

     iteration # 31     ecut=    60.00 Ry     beta= 0.20
     Davidson diagonalization with overlap
     ethr =  4.60E-10,  avg # of iterations =  8.7

     negative rho (up, down):  1.151E-02 1.578E-02

     total cpu time spent up to now is     3329.8 secs

     total energy              =  -21094.96242379 Ry
     estimated scf accuracy    <       0.00000167 Ry

     total magnetization       =   160.59 Bohr mag/cell
     absolute magnetization    =   167.36 Bohr mag/cell

     iteration # 32     ecut=    60.00 Ry     beta= 0.20
     Davidson diagonalization with overlap
     ethr =  1.62E-10,  avg # of iterations =  8.0

     negative rho (up, down):  1.149E-02 1.576E-02

     total cpu time spent up to now is     3474.6 secs

     total energy              =  -21094.96249946 Ry
     estimated scf accuracy    <       0.00000125 Ry

     total magnetization       =   160.59 Bohr mag/cell
     absolute magnetization    =   167.36 Bohr mag/cell

     iteration # 33     ecut=    60.00 Ry     beta= 0.20
     Davidson diagonalization with overlap
     ethr =  1.21E-10,  avg # of iterations =  3.4

     negative rho (up, down):  1.152E-02 1.579E-02

     total cpu time spent up to now is     3533.2 secs

     total energy              =  -21094.96255483 Ry
     estimated scf accuracy    <       0.00000090 Ry

     total magnetization       =   160.59 Bohr mag/cell
     absolute magnetization    =   167.37 Bohr mag/cell

     iteration # 34     ecut=    60.00 Ry     beta= 0.20
     Davidson diagonalization with overlap
     ethr =  8.76E-11,  avg # of iterations =  6.2

     negative rho (up, down):  1.158E-02 1.585E-02

     total cpu time spent up to now is     3614.1 secs

     total energy              =  -21094.96253117 Ry
     estimated scf accuracy    <       0.00000052 Ry

     total magnetization       =   160.59 Bohr mag/cell
     absolute magnetization    =   167.37 Bohr mag/cell

     iteration # 35     ecut=    60.00 Ry     beta= 0.20
     Davidson diagonalization with overlap
     ethr =  5.08E-11,  avg # of iterations =  8.1

     negative rho (up, down):  1.183E-02 1.610E-02

     total cpu time spent up to now is     3711.7 secs

     total energy              =  -21094.96241842 Ry
     estimated scf accuracy    <       0.00000038 Ry

     total magnetization       =   160.59 Bohr mag/cell
     absolute magnetization    =   167.37 Bohr mag/cell

     iteration # 36     ecut=    60.00 Ry     beta= 0.20
     Davidson diagonalization with overlap
     ethr =  3.68E-11,  avg # of iterations =  8.5

     negative rho (up, down):  1.182E-02 1.609E-02

     total cpu time spent up to now is     3848.3 secs

     total energy              =  -21094.96243632 Ry
     estimated scf accuracy    <       0.00000060 Ry

     total magnetization       =   160.60 Bohr mag/cell
     absolute magnetization    =   167.38 Bohr mag/cell

     iteration # 37     ecut=    60.00 Ry     beta= 0.20
     Davidson diagonalization with overlap
     ethr =  3.68E-11,  avg # of iterations =  4.7

     negative rho (up, down):  1.182E-02 1.609E-02

     total cpu time spent up to now is     3907.5 secs

     total energy              =  -21094.96243502 Ry
     estimated scf accuracy    <       0.00000008 Ry

     total magnetization       =   160.60 Bohr mag/cell
     absolute magnetization    =   167.38 Bohr mag/cell

     iteration # 38     ecut=    60.00 Ry     beta= 0.20
     Davidson diagonalization with overlap
     ethr =  7.52E-12,  avg # of iterations = 11.5

     negative rho (up, down):  1.183E-02 1.610E-02

     total cpu time spent up to now is     4086.3 secs

     total energy              =  -21094.96242458 Ry
     estimated scf accuracy    <       0.00000005 Ry

     total magnetization       =   160.60 Bohr mag/cell
     absolute magnetization    =   167.38 Bohr mag/cell

     iteration # 39     ecut=    60.00 Ry     beta= 0.20
     Davidson diagonalization with overlap
     ethr =  5.29E-12,  avg # of iterations =  3.0

     negative rho (up, down):  1.185E-02 1.613E-02

     total cpu time spent up to now is     4144.4 secs

     total energy              =  -21094.96240324 Ry
     estimated scf accuracy    <       0.00000002 Ry

     total magnetization       =   160.60 Bohr mag/cell
     absolute magnetization    =   167.38 Bohr mag/cell

     iteration # 40     ecut=    60.00 Ry     beta= 0.20
     Davidson diagonalization with overlap
     ethr =  1.97E-12,  avg # of iterations =  9.9

     negative rho (up, down):  1.186E-02 1.613E-02

     total cpu time spent up to now is     4299.3 secs

     total energy              =  -21094.96240005 Ry
     estimated scf accuracy    <       0.00000002 Ry

     total magnetization       =   160.60 Bohr mag/cell
     absolute magnetization    =   167.38 Bohr mag/cell

     iteration # 41     ecut=    60.00 Ry     beta= 0.20
     Davidson diagonalization with overlap
     ethr =  1.55E-12,  avg # of iterations =  5.3

     negative rho (up, down):  1.187E-02 1.614E-02

     Magnetic moment per site:
     atom:    1    charge:   12.6126    magn:    2.3578    constr:    0.0000
     atom:    2    charge:   12.6029    magn:    2.1971    constr:    0.0000
     atom:    3    charge:   12.6127    magn:    2.3610    constr:    0.0000
     atom:    4    charge:   12.6006    magn:    2.1962    constr:    0.0000
     atom:    5    charge:   12.6040    magn:    2.1944    constr:    0.0000
     atom:    6    charge:   12.6116    magn:    2.2040    constr:    0.0000
     atom:    7    charge:   12.6007    magn:    2.1800    constr:    0.0000
     atom:    8    charge:   12.6083    magn:    2.3744    constr:    0.0000
     atom:    9    charge:   12.6132    magn:    2.3517    constr:    0.0000
     atom:   10    charge:   12.6124    magn:    2.3629    constr:    0.0000
     atom:   11    charge:   12.6009    magn:    2.2075    constr:    0.0000
     atom:   12    charge:   12.6022    magn:    2.1954    constr:    0.0000
     atom:   13    charge:   12.6008    magn:    2.1927    constr:    0.0000
     atom:   14    charge:   12.6041    magn:    2.1310    constr:    0.0000
     atom:   15    charge:   12.6141    magn:    2.3291    constr:    0.0000
     atom:   16    charge:   12.6106    magn:    2.2497    constr:    0.0000
     atom:   17    charge:   12.6125    magn:    2.3609    constr:    0.0000
     atom:   18    charge:   12.6006    magn:    2.1962    constr:    0.0000
     atom:   19    charge:   12.6126    magn:    2.3617    constr:    0.0000
     atom:   20    charge:   12.6019    magn:    2.2013    constr:    0.0000
     atom:   21    charge:   12.6006    magn:    2.1796    constr:    0.0000
     atom:   22    charge:   12.6081    magn:    2.3744    constr:    0.0000
     atom:   23    charge:   12.6008    magn:    2.1783    constr:    0.0000
     atom:   24    charge:   12.6079    magn:    1.8757    constr:    0.0000
     atom:   25    charge:   12.6128    magn:    2.3753    constr:    0.0000
     atom:   26    charge:   12.6127    magn:    2.3530    constr:    0.0000
     atom:   27    charge:   12.5999    magn:    2.1967    constr:    0.0000
     atom:   28    charge:   12.6007    magn:    2.2050    constr:    0.0000
     atom:   29    charge:   12.6057    magn:    2.2285    constr:    0.0000
     atom:   30    charge:   12.6035    magn:    2.1137    constr:    0.0000
     atom:   31    charge:   12.6051    magn:    2.2369    constr:    0.0000
     atom:   32    charge:   12.6136    magn:    2.3291    constr:    0.0000
     atom:   33    charge:   12.6126    magn:    2.3586    constr:    0.0000
     atom:   34    charge:   12.6006    magn:    2.1908    constr:    0.0000
     atom:   35    charge:   12.6125    magn:    2.3578    constr:    0.0000
     atom:   36    charge:   12.6033    magn:    2.1972    constr:    0.0000
     atom:   37    charge:   12.6041    magn:    2.1801    constr:    0.0000
     atom:   38    charge:   12.6097    magn:    2.3566    constr:    0.0000
     atom:   39    charge:   12.6038    magn:    2.1947    constr:    0.0000
     atom:   40    charge:   12.6118    magn:    2.2041    constr:    0.0000
     atom:   41    charge:   12.6123    magn:    2.3674    constr:    0.0000
     atom:   42    charge:   12.6131    magn:    2.3532    constr:    0.0000
     atom:   43    charge:   12.6018    magn:    2.1980    constr:    0.0000
     atom:   44    charge:   12.6007    magn:    2.2050    constr:    0.0000
     atom:   45    charge:   12.6042    magn:    2.1870    constr:    0.0000
     atom:   46    charge:   12.6034    magn:    2.1136    constr:    0.0000
     atom:   47    charge:   12.6129    magn:    2.3791    constr:    0.0000
     atom:   48    charge:   12.6134    magn:    2.3293    constr:    0.0000
     atom:   49    charge:   12.6128    magn:    2.3618    constr:    0.0000
     atom:   50    charge:   12.6025    magn:    2.2015    constr:    0.0000
     atom:   51    charge:   12.6127    magn:    2.3586    constr:    0.0000
     atom:   52    charge:   12.6006    magn:    2.1909    constr:    0.0000
     atom:   53    charge:   12.6009    magn:    2.1786    constr:    0.0000
     atom:   54    charge:   12.6075    magn:    1.8759    constr:    0.0000
     atom:   55    charge:   12.6044    magn:    2.1800    constr:    0.0000
     atom:   56    charge:   12.6097    magn:    2.3565    constr:    0.0000
     atom:   57    charge:   12.6132    magn:    2.3517    constr:    0.0000
     atom:   58    charge:   12.6123    magn:    2.3629    constr:    0.0000
     atom:   59    charge:   12.6009    magn:    2.2075    constr:    0.0000
     atom:   60    charge:   12.5999    magn:    2.1979    constr:    0.0000
     atom:   61    charge:   12.6008    magn:    2.1927    constr:    0.0000
     atom:   62    charge:   12.6040    magn:    2.1408    constr:    0.0000
     atom:   63    charge:   12.6139    magn:    2.3292    constr:    0.0000
     atom:   64    charge:   12.6045    magn:    2.2432    constr:    0.0000
     atom:   65    charge:    1.3270    magn:   -0.0321    constr:    0.0000
     atom:   66    charge:    0.4380    magn:    0.0069    constr:    0.0000
     atom:   67    charge:    0.3537    magn:   -0.0203    constr:    0.0000

     total cpu time spent up to now is     4358.1 secs

     End of self-consistent calculation

 ------ SPIN UP ------------


          k = 0.0000 0.0000 0.0000 (128403 PWs)   bands (ev):

   -92.4404 -92.4325 -92.4024 -92.3985 -92.3967 -92.3942 -92.3801 -92.3788
   -92.3735 -92.3712 -92.3708 -92.3696 -92.3675 -92.3640 -92.3583 -92.3579
   -92.3576 -92.3514 -92.3503 -92.3490 -92.3482 -92.3474 -92.3440 -92.3428
   -92.3386 -92.3380 -92.3315 -92.3226 -92.3108 -92.3038 -92.2983 -92.2958
   -92.2824 -92.2624 -92.2500 -92.2485 -92.2461 -92.2430 -92.2381 -92.2352
   -92.2281 -92.2278 -92.2258 -92.2247 -92.2239 -92.2220 -92.2208 -92.2203
   -92.2202 -92.2174 -92.2153 -92.2146 -92.2129 -92.2127 -92.2086 -92.2072
   -92.2031 -92.2019 -92.1990 -92.1967 -92.1922 -92.1894 -92.1769 -92.1712
   -58.6275 -58.6161 -58.5954 -58.5871 -58.5828 -58.5808 -58.5795 -58.5723
   -58.5677 -58.5649 -58.5595 -58.5587 -58.5586 -58.5568 -58.5563 -58.5551
   -58.5514 -58.5476 -58.5465 -58.5451 -58.5417 -58.5410 -58.5383 -58.5378
   -58.5365 -58.5362 -58.5311 -58.5244 -58.5235 -58.5168 -58.5147 -58.5138
   -58.5105 -58.5040 -58.5025 -58.4988 -58.4952 -58.4943 -58.4869 -58.4812
   -58.4779 -58.4775 -58.4774 -58.4772 -58.4730 -58.4657 -58.4499 -58.4391
   -58.4274 -58.4263 -58.4249 -58.4206 -58.4166 -58.4121 -58.4121 -58.4076
   -58.4060 -58.4049 -58.4030 -58.4025 -58.4021 -58.3986 -58.3985 -58.3945
   -58.3928 -58.3892 -58.3879 -58.3841 -58.3837 -58.3813 -58.3790 -58.3767
   -58.3754 -58.3666 -58.3666 -58.3603 -58.3541 -58.3526 -58.3506 -58.3474
   -58.3459 -58.3454 -58.3435 -58.3387 -58.3377 -58.3370 -58.3359 -58.3356
   -58.3346 -58.3328 -58.3315 -58.3282 -58.3266 -58.3260 -58.3249 -58.3214
   -58.3206 -58.3199 -58.3168 -58.3107 -58.3094 -58.3038 -58.2993 -58.2992
   -58.2960 -58.2951 -58.2926 -58.2890 -58.2876 -58.2863 -58.2861 -58.2827
   -58.2824 -58.2799 -58.2765 -58.2738 -58.2726 -58.2720 -58.2690 -58.2661
   -58.2656 -58.2627 -58.2624 -58.2599 -58.2590 -58.2590 -58.2583 -58.2579
   -58.2561 -58.2547 -58.2520 -58.2446 -58.2418 -58.2413 -58.2397 -58.2384
   -58.2339 -58.2322 -58.2319 -58.2244 -58.2230 -58.2227 -58.2200 -58.2194
   -58.2191 -58.2174 -58.2048 -58.2034 -58.2034 -58.1997 -58.1963 -58.1939
   -58.1894 -58.1893 -58.1833 -58.1829 -58.1815 -58.1808 -58.1774 -58.1757
   -58.1754 -58.1748 -58.1702 -58.1682 -58.1680 -58.1672 -58.1633 -58.1632
   -58.1580 -58.1570 -58.1557 -58.1518 -58.1473 -58.1419 -58.1416 -58.1398
   -58.1382 -58.1372 -58.1299 -58.1293 -58.1285 -58.1247 -58.1208 -58.1206
   -58.1202 -58.1196 -58.1185 -58.1174 -58.1156 -58.1154 -58.1131 -58.1095
   -20.4772 -12.3647 -11.9941 -11.1449 -10.5612 -10.5603 -10.4964 -10.4716
   -10.2601 -10.0521  -9.9449  -9.8086  -9.8054  -9.4926  -9.3945  -9.3455
    -9.2075  -9.1934  -9.0706  -9.0293  -8.9215  -8.8633  -8.8621  -8.8204
    -8.8175  -8.8003  -8.7429  -8.7278  -8.6781  -8.6592  -8.4310  -8.3986
    -8.3897  -8.3620  -8.3093  -8.3086  -8.3004  -8.2903  -8.2881  -8.2792
    -8.2674  -8.2662  -8.2661  -8.2612  -8.2575  -8.2521  -8.2330  -8.2270
    -8.2133  -8.2087  -8.2055  -8.1968  -8.1839  -8.1780  -8.1725  -8.1521
    -8.1035  -8.0956  -8.0731  -8.0194  -8.0099  -8.0079  -7.9990  -7.9900
    -7.9208  -7.9118  -7.8931  -7.7227  -7.7177  -7.6881  -7.6864  -7.6840
    -7.6581  -7.6021  -7.5365  -7.5283  -7.5229  -7.5201  -7.5125  -7.5116
    -7.5087  -7.4935  -7.4811  -7.4731  -7.4707  -7.4667  -7.4634  -7.4588
    -7.4550  -7.4483  -7.4452  -7.4403  -7.4332  -7.4259  -7.4247  -7.4091
    -7.4027  -7.3813  -7.3764  -7.3752  -7.3672  -7.3601  -7.3557  -7.3510
    -7.3414  -7.3384  -7.3201  -7.3163  -7.3085  -7.3079  -7.3053  -7.2961
    -7.2367  -7.1797  -7.1557  -7.1369  -7.1344  -7.1300  -7.1255  -7.0698
    -7.0476  -7.0188  -7.0079  -6.9432  -6.9422  -6.9347  -6.9291  -6.9221
    -6.9178  -6.9016  -6.8927  -6.8823  -6.8596  -6.8579  -6.8369  -6.8272
    -6.8204  -6.8092  -6.7996  -6.7977  -6.7917  -6.7884  -6.7858  -6.7811
    -6.7763  -6.7643  -6.7294  -6.7210  -6.6949  -6.6360  -6.6329  -6.6318
    -6.6316  -6.6087  -6.6031  -6.5835  -6.5806  -6.5741  -6.5689  -6.5588
    -6.5443  -6.5129  -6.5086  -6.4985  -6.4875  -6.4836  -6.4810  -6.4810
    -6.4659  -6.4484  -6.4436  -6.4233  -6.4038  -6.3955  -6.3839  -6.3832
    -6.3702  -6.3639  -6.3608  -6.3516  -6.3501  -6.3500  -6.3318  -6.3294
    -6.2953  -6.2927  -6.2372  -6.2300  -6.2224  -6.1085  -6.1056  -5.9722
    -5.9657  -5.9455  -5.8433  -5.8379  -5.8271  -5.8234  -5.8128  -5.8128
    -5.8085  -5.7996  -5.7926  -5.7683  -5.7561  -5.7560  -5.7535  -5.7334
    -5.6912  -5.6853  -5.6841  -5.6747  -5.6669  -5.6545  -5.6376  -5.6333
    -5.6324  -5.6271  -5.6147  -5.6144  -5.6086  -5.6056  -5.5796  -5.5662
    -5.5622  -5.5561  -5.5377  -5.5354  -5.5234  -5.5180  -5.5062  -5.5050
    -5.5012  -5.4859  -5.4842  -5.4779  -5.4770  -5.4681  -5.4567  -5.4539
    -5.4525  -5.4317  -5.4192  -5.4171  -5.4107  -5.4072  -5.4006  -5.3995
    -5.3986  -5.3970  -5.3942  -5.3917  -5.3869  -5.3833  -5.3812  -5.3780
    -5.3722  -5.3691  -5.3635  -5.3612  -5.3524  -5.3489  -5.3435  -5.3386
    -5.3297  -5.3223  -5.3168  -5.3090  -5.3007  -5.2958  -5.2908  -5.2807
    -5.2748  -5.2742  -5.2722  -5.2676  -5.2631  -5.2599  -5.2564  -5.2440
    -5.2269  -5.2263  -5.1947  -5.1929  -5.1798  -5.1699  -5.1654  -5.1560
    -5.1453  -5.1436  -5.1326  -5.1233  -5.0576  -5.0502  -5.0496  -5.0210
    -5.0206  -5.0131  -5.0080  -4.9992  -4.9878  -4.9869  -4.9838  -4.9793
    -4.9741  -4.9632  -4.9587  -4.9547  -4.9491  -4.9388  -4.9199  -4.9182
    -4.9130  -4.9116  -4.8600  -4.8325  -4.7239  -4.6769  -4.5294  -4.5178
    -4.5156  -4.4989  -4.4590  -4.4327  -4.4280  -4.3945  -4.3878  -4.3573
    -4.3543  -4.3397  -4.3131  -4.2648  -4.2546  -4.2530  -4.2305  -4.1907
    -4.1847  -4.1748  -4.1712  -4.1335  -4.0653  -4.0395  -4.0110  -3.9376
    -3.9374  -3.8499  -3.6781  -3.6449  -3.5964  -3.2236  -3.2001  -3.1825
    -3.1811  -3.0047  -2.9728  -2.8163  -2.5282  -2.3323  -2.2931  -2.2898
    -2.2896  -2.2391  -2.2222

          k = 0.0000 0.2652 0.0000 (128375 PWs)   bands (ev):

   -92.4404 -92.4325 -92.4022 -92.3990 -92.3964 -92.3929 -92.3839 -92.3773
   -92.3727 -92.3714 -92.3706 -92.3696 -92.3673 -92.3636 -92.3613 -92.3581
   -92.3533 -92.3519 -92.3510 -92.3493 -92.3483 -92.3470 -92.3441 -92.3427
   -92.3391 -92.3367 -92.3322 -92.3226 -92.3108 -92.3038 -92.2983 -92.2957
   -92.2822 -92.2619 -92.2537 -92.2483 -92.2441 -92.2421 -92.2369 -92.2333
   -92.2300 -92.2289 -92.2272 -92.2262 -92.2234 -92.2226 -92.2204 -92.2198
   -92.2188 -92.2170 -92.2157 -92.2149 -92.2131 -92.2105 -92.2080 -92.2079
   -92.2038 -92.2022 -92.1999 -92.1978 -92.1912 -92.1885 -92.1766 -92.1718
   -58.6266 -58.6162 -58.5953 -58.5872 -58.5823 -58.5806 -58.5783 -58.5740
   -58.5699 -58.5651 -58.5612 -58.5585 -58.5575 -58.5563 -58.5538 -58.5534
   -58.5506 -58.5476 -58.5467 -58.5458 -58.5427 -58.5405 -58.5382 -58.5372
   -58.5360 -58.5340 -58.5318 -58.5226 -58.5199 -58.5176 -58.5132 -58.5085
   -58.5082 -58.5016 -58.4989 -58.4956 -58.4949 -58.4912 -58.4880 -58.4847
   -58.4795 -58.4789 -58.4753 -58.4718 -58.4650 -58.4610 -58.4452 -58.4435
   -58.4378 -58.4296 -58.4273 -58.4244 -58.4230 -58.4202 -58.4163 -58.4133
   -58.4115 -58.4060 -58.4035 -58.4005 -58.3989 -58.3977 -58.3951 -58.3946
   -58.3931 -58.3916 -58.3909 -58.3876 -58.3865 -58.3822 -58.3815 -58.3777
   -58.3748 -58.3742 -58.3706 -58.3689 -58.3676 -58.3619 -58.3575 -58.3552
   -58.3517 -58.3493 -58.3473 -58.3449 -58.3439 -58.3416 -58.3372 -58.3336
   -58.3320 -58.3279 -58.3261 -58.3252 -58.3229 -58.3205 -58.3200 -58.3174
   -58.3143 -58.3136 -58.3097 -58.3084 -58.3056 -58.3044 -58.3009 -58.2979
   -58.2972 -58.2954 -58.2933 -58.2920 -58.2894 -58.2889 -58.2859 -58.2837
   -58.2822 -58.2803 -58.2795 -58.2773 -58.2746 -58.2726 -58.2677 -58.2670
   -58.2639 -58.2619 -58.2603 -58.2581 -58.2561 -58.2538 -58.2526 -58.2502
   -58.2492 -58.2456 -58.2452 -58.2424 -58.2397 -58.2381 -58.2370 -58.2333
   -58.2311 -58.2291 -58.2267 -58.2248 -58.2235 -58.2204 -58.2175 -58.2151
   -58.2127 -58.2114 -58.2095 -58.2046 -58.2005 -58.1971 -58.1953 -58.1919
   -58.1910 -58.1888 -58.1878 -58.1857 -58.1829 -58.1802 -58.1781 -58.1758
   -58.1746 -58.1728 -58.1720 -58.1688 -58.1647 -58.1632 -58.1600 -58.1580
   -58.1568 -58.1542 -58.1515 -58.1502 -58.1477 -58.1429 -58.1426 -58.1411
   -58.1398 -58.1383 -58.1346 -58.1337 -58.1294 -58.1285 -58.1271 -58.1252
   -58.1240 -58.1221 -58.1215 -58.1207 -58.1195 -58.1185 -58.1142 -58.1116
   -20.4772 -12.3115 -11.9435 -11.2552 -10.9708 -10.6289 -10.4680 -10.2701
   -10.1886 -10.0036  -9.8102  -9.7535  -9.5986  -9.5089  -9.4043  -9.3319
    -9.1909  -9.1423  -9.1006  -8.9941  -8.9271  -8.9015  -8.8261  -8.8013
    -8.7721  -8.7576  -8.7404  -8.7016  -8.6750  -8.6281  -8.5544  -8.4840
    -8.4497  -8.4234  -8.4098  -8.3992  -8.3921  -8.3791  -8.3734  -8.3598
    -8.3355  -8.3184  -8.3095  -8.2972  -8.2795  -8.2598  -8.2439  -8.2362
    -8.2134  -8.2060  -8.2008  -8.1829  -8.1782  -8.1263  -8.1195  -8.1136
    -8.1034  -8.0960  -8.0816  -8.0388  -8.0156  -7.9611  -7.9433  -7.9324
    -7.9016  -7.8898  -7.8530  -7.8032  -7.7949  -7.7466  -7.6996  -7.6618
    -7.6360  -7.6228  -7.6120  -7.5869  -7.5355  -7.5256  -7.5126  -7.5087
    -7.4988  -7.4898  -7.4832  -7.4736  -7.4681  -7.4597  -7.4501  -7.4471
    -7.4394  -7.4272  -7.4217  -7.4160  -7.4131  -7.3997  -7.3890  -7.3839
    -7.3766  -7.3720  -7.3680  -7.3618  -7.3528  -7.3465  -7.3345  -7.3260
    -7.3016  -7.2845  -7.2752  -7.2706  -7.2608  -7.2546  -7.2417  -7.2183
    -7.2154  -7.2068  -7.2004  -7.1733  -7.1499  -7.1053  -7.0901  -7.0639
    -7.0442  -7.0272  -7.0177  -7.0095  -7.0003  -6.9675  -6.9402  -6.9194
    -6.9133  -6.9042  -6.8980  -6.8858  -6.8835  -6.8700  -6.8669  -6.8599
    -6.8488  -6.8299  -6.8220  -6.8152  -6.8107  -6.8046  -6.7840  -6.7633
    -6.7591  -6.7503  -6.7145  -6.6897  -6.6671  -6.6609  -6.6519  -6.6437
    -6.6344  -6.6207  -6.6168  -6.6104  -6.6096  -6.6027  -6.5922  -6.5852
    -6.5767  -6.5704  -6.5576  -6.5484  -6.5375  -6.5207  -6.5119  -6.4853
    -6.4611  -6.4513  -6.4324  -6.4205  -6.4075  -6.3962  -6.3871  -6.3616
    -6.3536  -6.3420  -6.3262  -6.3158  -6.2841  -6.2680  -6.2452  -6.2286
    -6.2113  -6.1886  -6.1688  -6.1516  -6.1389  -6.0892  -5.9999  -5.9594
    -5.9500  -5.9457  -5.9121  -5.8968  -5.8794  -5.8641  -5.8545  -5.8325
    -5.8131  -5.8004  -5.7961  -5.7885  -5.7810  -5.7663  -5.7639  -5.7533
    -5.7414  -5.7185  -5.7121  -5.7054  -5.6874  -5.6769  -5.6454  -5.6365
    -5.6288  -5.6205  -5.6160  -5.6068  -5.6034  -5.5909  -5.5866  -5.5751
    -5.5720  -5.5661  -5.5545  -5.5485  -5.5192  -5.5060  -5.5023  -5.4984
    -5.4918  -5.4857  -5.4768  -5.4722  -5.4681  -5.4607  -5.4531  -5.4513
    -5.4433  -5.4407  -5.4329  -5.4251  -5.4204  -5.4172  -5.4076  -5.3976
    -5.3924  -5.3844  -5.3778  -5.3719  -5.3672  -5.3606  -5.3521  -5.3491
    -5.3469  -5.3433  -5.3400  -5.3274  -5.3244  -5.3204  -5.3185  -5.3067
    -5.2998  -5.2969  -5.2847  -5.2838  -5.2811  -5.2770  -5.2741  -5.2729
    -5.2632  -5.2590  -5.2407  -5.2355  -5.2301  -5.2220  -5.2122  -5.2079
    -5.1990  -5.1894  -5.1647  -5.1429  -5.1384  -5.1351  -5.1272  -5.1225
    -5.1113  -5.1054  -5.0923  -5.0835  -5.0777  -5.0751  -5.0685  -5.0599
    -5.0405  -5.0302  -5.0072  -5.0056  -5.0036  -4.9962  -4.9800  -4.9766
    -4.9644  -4.9608  -4.9558  -4.9431  -4.9309  -4.9087  -4.8683  -4.8584
    -4.8233  -4.8114  -4.7749  -4.7310  -4.6732  -4.5847  -4.5781  -4.5578
    -4.5393  -4.5377  -4.5024  -4.4986  -4.4852  -4.4545  -4.4235  -4.4184
    -4.4108  -4.3979  -4.3871  -4.3702  -4.3648  -4.3438  -4.3308  -4.2995
    -4.2859  -4.2770  -4.2352  -4.2041  -4.1717  -4.1437  -4.1332  -4.0019
    -3.9554  -3.7515  -3.6500  -3.5583  -3.5379  -3.3627  -3.2750  -3.1807
    -3.1190  -3.0162  -2.9902  -2.8882  -2.8235  -2.7412  -2.6164  -2.5897
    -2.4064  -2.3954  -2.3295

          k = 0.0000-0.5303 0.0000 (128388 PWs)   bands (ev):

   -92.4403 -92.4325 -92.4020 -92.3995 -92.3962 -92.3902 -92.3880 -92.3752
   -92.3744 -92.3716 -92.3696 -92.3688 -92.3686 -92.3635 -92.3616 -92.3563
   -92.3558 -92.3504 -92.3493 -92.3492 -92.3489 -92.3472 -92.3460 -92.3407
   -92.3406 -92.3345 -92.3341 -92.3227 -92.3107 -92.3039 -92.2984 -92.2956
   -92.2820 -92.2612 -92.2560 -92.2487 -92.2439 -92.2392 -92.2362 -92.2322
   -92.2316 -92.2304 -92.2286 -92.2255 -92.2232 -92.2229 -92.2209 -92.2194
   -92.2184 -92.2174 -92.2156 -92.2149 -92.2122 -92.2096 -92.2073 -92.2068
   -92.2052 -92.2037 -92.2002 -92.1983 -92.1907 -92.1875 -92.1762 -92.1726
   -58.6256 -58.6163 -58.5952 -58.5875 -58.5816 -58.5794 -58.5775 -58.5763
   -58.5715 -58.5647 -58.5626 -58.5582 -58.5570 -58.5538 -58.5529 -58.5524
   -58.5506 -58.5496 -58.5480 -58.5430 -58.5426 -58.5394 -58.5389 -58.5361
   -58.5353 -58.5343 -58.5319 -58.5203 -58.5199 -58.5136 -58.5098 -58.5077
   -58.5018 -58.4980 -58.4948 -58.4938 -58.4927 -58.4919 -58.4887 -58.4869
   -58.4836 -58.4757 -58.4689 -58.4648 -58.4560 -58.4532 -58.4514 -58.4451
   -58.4415 -58.4362 -58.4351 -58.4348 -58.4314 -58.4272 -58.4256 -58.4222
   -58.4189 -58.4083 -58.4038 -58.4015 -58.3992 -58.3966 -58.3956 -58.3926
   -58.3902 -58.3886 -58.3855 -58.3840 -58.3834 -58.3817 -58.3805 -58.3785
   -58.3754 -58.3747 -58.3733 -58.3710 -58.3666 -58.3654 -58.3634 -58.3611
   -58.3581 -58.3568 -58.3544 -58.3531 -58.3502 -58.3496 -58.3480 -58.3450
   -58.3409 -58.3353 -58.3302 -58.3229 -58.3197 -58.3184 -58.3171 -58.3153
   -58.3128 -58.3090 -58.3084 -58.3040 -58.3034 -58.3022 -58.3011 -58.2980
   -58.2909 -58.2891 -58.2872 -58.2844 -58.2829 -58.2818 -58.2809 -58.2806
   -58.2793 -58.2778 -58.2766 -58.2761 -58.2734 -58.2714 -58.2694 -58.2654
   -58.2640 -58.2629 -58.2606 -58.2598 -58.2557 -58.2545 -58.2533 -58.2489
   -58.2487 -58.2465 -58.2436 -58.2386 -58.2357 -58.2350 -58.2328 -58.2322
   -58.2295 -58.2250 -58.2217 -58.2208 -58.2180 -58.2168 -58.2153 -58.2136
   -58.2112 -58.2083 -58.2058 -58.2049 -58.2040 -58.2021 -58.1977 -58.1953
   -58.1949 -58.1927 -58.1848 -58.1820 -58.1797 -58.1783 -58.1777 -58.1763
   -58.1726 -58.1689 -58.1617 -58.1604 -58.1589 -58.1576 -58.1565 -58.1542
   -58.1518 -58.1504 -58.1502 -58.1483 -58.1462 -58.1456 -58.1439 -58.1435
   -58.1431 -58.1418 -58.1388 -58.1384 -58.1376 -58.1362 -58.1346 -58.1334
   -58.1326 -58.1307 -58.1269 -58.1220 -58.1194 -58.1189 -58.1144 -58.1125
   -20.4772 -12.2565 -11.7930 -11.5864 -10.9805 -10.5994 -10.5732 -10.3512
   -10.1154  -9.8899  -9.7336  -9.6816  -9.5533  -9.4790  -9.3013  -9.1804
    -9.1520  -9.0724  -9.0594  -9.0111  -8.9489  -8.8998  -8.8567  -8.8329
    -8.7693  -8.7122  -8.6898  -8.6470  -8.6321  -8.6244  -8.6140  -8.6011
    -8.5907  -8.5871  -8.5651  -8.5499  -8.5382  -8.4747  -8.4657  -8.4155
    -8.3596  -8.3153  -8.2705  -8.2645  -8.2558  -8.2516  -8.2454  -8.1802
    -8.1684  -8.1628  -8.1582  -8.1565  -8.1439  -8.1367  -8.1324  -8.1236
    -8.0968  -8.0647  -8.0335  -8.0081  -7.9969  -7.9886  -7.9757  -7.9560
    -7.9015  -7.8912  -7.8557  -7.8500  -7.8106  -7.7863  -7.7836  -7.7708
    -7.7240  -7.6577  -7.6269  -7.5455  -7.5423  -7.5197  -7.5146  -7.4987
    -7.4906  -7.4833  -7.4682  -7.4564  -7.4544  -7.4447  -7.4400  -7.4385
    -7.4312  -7.4232  -7.4106  -7.4030  -7.4004  -7.3983  -7.3862  -7.3747
    -7.3724  -7.3611  -7.3530  -7.3006  -7.2965  -7.2796  -7.2693  -7.2561
    -7.2521  -7.2397  -7.2277  -7.2262  -7.2162  -7.2128  -7.2064  -7.2038
    -7.1957  -7.1852  -7.1805  -7.1674  -7.1536  -7.1450  -7.1390  -7.1170
    -7.1058  -7.0907  -7.0118  -6.9955  -6.9800  -6.9258  -6.9170  -6.9082
    -6.8894  -6.8876  -6.8858  -6.8778  -6.8724  -6.8693  -6.8590  -6.8581
    -6.8481  -6.8460  -6.8421  -6.8389  -6.8263  -6.8191  -6.8113  -6.8038
    -6.7947  -6.7888  -6.7744  -6.7722  -6.7653  -6.7280  -6.7209  -6.7079
    -6.6910  -6.6800  -6.6772  -6.6611  -6.6581  -6.6454  -6.6332  -6.6187
    -6.5985  -6.5904  -6.5810  -6.5566  -6.5189  -6.5135  -6.5053  -6.4733
    -6.4411  -6.4104  -6.3905  -6.3834  -6.3696  -6.3662  -6.3555  -6.3461
    -6.3343  -6.3250  -6.2845  -6.2443  -6.1783  -6.1069  -6.0895  -6.0859
    -6.0771  -6.0670  -6.0487  -6.0260  -6.0229  -6.0107  -5.9943  -5.9710
    -5.9576  -5.9360  -5.9300  -5.9200  -5.9174  -5.9087  -5.8850  -5.8782
    -5.8731  -5.8656  -5.8606  -5.8579  -5.8318  -5.8042  -5.7690  -5.7478
    -5.7382  -5.7336  -5.7242  -5.7208  -5.6970  -5.6941  -5.6928  -5.6812
    -5.6470  -5.6442  -5.6282  -5.6003  -5.5876  -5.5848  -5.5814  -5.5803
    -5.5790  -5.5733  -5.5681  -5.5621  -5.5598  -5.5474  -5.5458  -5.5403
    -5.5389  -5.5347  -5.5322  -5.5165  -5.5126  -5.5033  -5.4461  -5.4421
    -5.4346  -5.4256  -5.4158  -5.4133  -5.4070  -5.4047  -5.4020  -5.3881
    -5.3868  -5.3729  -5.3680  -5.3633  -5.3626  -5.3567  -5.3541  -5.3472
    -5.3436  -5.3323  -5.3261  -5.3235  -5.3158  -5.3096  -5.2945  -5.2928
    -5.2863  -5.2792  -5.2592  -5.2557  -5.2399  -5.2340  -5.2238  -5.2196
    -5.2153  -5.2103  -5.1933  -5.1888  -5.1796  -5.1749  -5.1661  -5.1379
    -5.1350  -5.1327  -5.1308  -5.1258  -5.1232  -5.1184  -5.1172  -5.1092
    -5.1074  -5.1024  -5.0960  -5.0953  -5.0875  -5.0843  -5.0756  -5.0736
    -5.0701  -5.0331  -5.0155  -5.0076  -4.9952  -4.9317  -4.9217  -4.8984
    -4.8861  -4.8541  -4.8497  -4.8335  -4.8211  -4.8069  -4.7242  -4.7230
    -4.7056  -4.6999  -4.6963  -4.6796  -4.6610  -4.6545  -4.6444  -4.6205
    -4.6027  -4.5995  -4.5816  -4.5653  -4.5600  -4.5486  -4.5276  -4.4743
    -4.4567  -4.4520  -4.4189  -4.4101  -4.4041  -4.3804  -4.3762  -4.3616
    -4.3495  -4.3397  -4.3206  -4.3082  -4.3059  -4.2897  -4.2855  -4.1623
    -4.0295  -3.9983  -3.8341  -3.7748  -3.6723  -3.5777  -3.3054  -3.2323
    -3.2121  -2.9677  -2.6704  -2.6155  -2.5609  -2.5110  -2.5003  -2.4645
    -2.4150  -2.4007  -2.3777

          k = 0.2500-0.0884 0.0000 (128371 PWs)   bands (ev):

   -92.4404 -92.4325 -92.4022 -92.3990 -92.3964 -92.3929 -92.3839 -92.3773
   -92.3727 -92.3714 -92.3706 -92.3696 -92.3673 -92.3636 -92.3613 -92.3581
   -92.3533 -92.3519 -92.3510 -92.3493 -92.3484 -92.3470 -92.3441 -92.3427
   -92.3391 -92.3367 -92.3322 -92.3226 -92.3108 -92.3038 -92.2983 -92.2957
   -92.2822 -92.2619 -92.2537 -92.2483 -92.2442 -92.2421 -92.2369 -92.2332
   -92.2301 -92.2289 -92.2272 -92.2261 -92.2234 -92.2226 -92.2204 -92.2198
   -92.2188 -92.2170 -92.2157 -92.2149 -92.2131 -92.2105 -92.2081 -92.2079
   -92.2038 -92.2022 -92.1999 -92.1978 -92.1912 -92.1885 -92.1766 -92.1718
   -58.6266 -58.6162 -58.5953 -58.5872 -58.5823 -58.5806 -58.5783 -58.5740
   -58.5699 -58.5651 -58.5612 -58.5584 -58.5575 -58.5564 -58.5538 -58.5534
   -58.5506 -58.5476 -58.5467 -58.5458 -58.5427 -58.5405 -58.5382 -58.5372
   -58.5360 -58.5340 -58.5318 -58.5226 -58.5199 -58.5176 -58.5132 -58.5085
   -58.5082 -58.5016 -58.4989 -58.4956 -58.4949 -58.4912 -58.4880 -58.4847
   -58.4795 -58.4790 -58.4753 -58.4718 -58.4650 -58.4610 -58.4452 -58.4436
   -58.4378 -58.4296 -58.4273 -58.4244 -58.4230 -58.4202 -58.4163 -58.4133
   -58.4115 -58.4060 -58.4035 -58.4005 -58.3989 -58.3977 -58.3951 -58.3946
   -58.3931 -58.3915 -58.3909 -58.3877 -58.3865 -58.3822 -58.3815 -58.3777
   -58.3748 -58.3742 -58.3706 -58.3689 -58.3676 -58.3619 -58.3575 -58.3552
   -58.3517 -58.3493 -58.3473 -58.3449 -58.3439 -58.3416 -58.3372 -58.3336
   -58.3320 -58.3279 -58.3261 -58.3252 -58.3229 -58.3205 -58.3200 -58.3174
   -58.3143 -58.3136 -58.3097 -58.3084 -58.3056 -58.3044 -58.3010 -58.2979
   -58.2972 -58.2954 -58.2933 -58.2920 -58.2894 -58.2889 -58.2859 -58.2836
   -58.2822 -58.2803 -58.2795 -58.2773 -58.2746 -58.2726 -58.2677 -58.2670
   -58.2639 -58.2619 -58.2603 -58.2581 -58.2561 -58.2538 -58.2525 -58.2502
   -58.2492 -58.2456 -58.2452 -58.2425 -58.2397 -58.2381 -58.2370 -58.2333
   -58.2311 -58.2291 -58.2267 -58.2248 -58.2235 -58.2204 -58.2175 -58.2151
   -58.2127 -58.2114 -58.2095 -58.2046 -58.2005 -58.1971 -58.1953 -58.1919
   -58.1909 -58.1888 -58.1878 -58.1858 -58.1829 -58.1802 -58.1781 -58.1757
   -58.1745 -58.1728 -58.1720 -58.1688 -58.1647 -58.1632 -58.1600 -58.1580
   -58.1568 -58.1542 -58.1515 -58.1502 -58.1477 -58.1430 -58.1425 -58.1411
   -58.1398 -58.1383 -58.1346 -58.1337 -58.1294 -58.1285 -58.1271 -58.1252
   -58.1240 -58.1221 -58.1215 -58.1207 -58.1195 -58.1185 -58.1142 -58.1116
   -20.4772 -12.3115 -11.9435 -11.2552 -10.9708 -10.6289 -10.4680 -10.2701
   -10.1886 -10.0036  -9.8102  -9.7535  -9.5986  -9.5089  -9.4043  -9.3319
    -9.1909  -9.1423  -9.1006  -8.9941  -8.9271  -8.9015  -8.8261  -8.8013
    -8.7721  -8.7576  -8.7404  -8.7016  -8.6750  -8.6281  -8.5544  -8.4840
    -8.4497  -8.4234  -8.4098  -8.3992  -8.3921  -8.3791  -8.3734  -8.3599
    -8.3355  -8.3184  -8.3095  -8.2972  -8.2795  -8.2598  -8.2439  -8.2362
    -8.2133  -8.2061  -8.2008  -8.1829  -8.1782  -8.1263  -8.1196  -8.1136
    -8.1034  -8.0960  -8.0816  -8.0388  -8.0156  -7.9611  -7.9433  -7.9324
    -7.9016  -7.8898  -7.8530  -7.8032  -7.7949  -7.7466  -7.6997  -7.6618
    -7.6360  -7.6228  -7.6120  -7.5869  -7.5355  -7.5256  -7.5126  -7.5087
    -7.4988  -7.4898  -7.4832  -7.4736  -7.4681  -7.4597  -7.4501  -7.4471
    -7.4394  -7.4271  -7.4217  -7.4160  -7.4131  -7.3997  -7.3890  -7.3839
    -7.3766  -7.3720  -7.3680  -7.3618  -7.3528  -7.3465  -7.3345  -7.3260
    -7.3016  -7.2845  -7.2752  -7.2706  -7.2608  -7.2546  -7.2417  -7.2184
    -7.2153  -7.2068  -7.2004  -7.1733  -7.1499  -7.1053  -7.0901  -7.0639
    -7.0442  -7.0272  -7.0177  -7.0096  -7.0003  -6.9675  -6.9402  -6.9194
    -6.9133  -6.9042  -6.8980  -6.8857  -6.8835  -6.8700  -6.8669  -6.8599
    -6.8488  -6.8299  -6.8220  -6.8152  -6.8107  -6.8046  -6.7840  -6.7633
    -6.7591  -6.7503  -6.7145  -6.6896  -6.6671  -6.6610  -6.6519  -6.6437
    -6.6345  -6.6207  -6.6168  -6.6104  -6.6096  -6.6027  -6.5922  -6.5852
    -6.5767  -6.5704  -6.5576  -6.5484  -6.5375  -6.5207  -6.5118  -6.4853
    -6.4611  -6.4513  -6.4324  -6.4204  -6.4075  -6.3962  -6.3872  -6.3616
    -6.3536  -6.3420  -6.3262  -6.3158  -6.2841  -6.2680  -6.2452  -6.2286
    -6.2113  -6.1886  -6.1688  -6.1516  -6.1389  -6.0892  -5.9999  -5.9594
    -5.9500  -5.9456  -5.9121  -5.8968  -5.8794  -5.8641  -5.8545  -5.8325
    -5.8131  -5.8004  -5.7961  -5.7885  -5.7810  -5.7663  -5.7639  -5.7533
    -5.7414  -5.7185  -5.7121  -5.7054  -5.6874  -5.6769  -5.6453  -5.6365
    -5.6288  -5.6206  -5.6160  -5.6068  -5.6034  -5.5909  -5.5866  -5.5750
    -5.5720  -5.5661  -5.5545  -5.5486  -5.5191  -5.5059  -5.5023  -5.4984
    -5.4918  -5.4857  -5.4768  -5.4722  -5.4681  -5.4607  -5.4531  -5.4513
    -5.4433  -5.4407  -5.4329  -5.4251  -5.4204  -5.4172  -5.4076  -5.3976
    -5.3924  -5.3844  -5.3778  -5.3718  -5.3672  -5.3606  -5.3521  -5.3491
    -5.3469  -5.3433  -5.3400  -5.3274  -5.3244  -5.3204  -5.3185  -5.3067
    -5.2999  -5.2969  -5.2847  -5.2838  -5.2811  -5.2770  -5.2741  -5.2729
    -5.2631  -5.2590  -5.2407  -5.2355  -5.2301  -5.2220  -5.2122  -5.2079
    -5.1990  -5.1894  -5.1647  -5.1429  -5.1384  -5.1351  -5.1272  -5.1225
    -5.1113  -5.1054  -5.0923  -5.0834  -5.0777  -5.0751  -5.0685  -5.0599
    -5.0405  -5.0302  -5.0072  -5.0056  -5.0036  -4.9962  -4.9800  -4.9766
    -4.9644  -4.9608  -4.9558  -4.9431  -4.9309  -4.9087  -4.8683  -4.8584
    -4.8233  -4.8114  -4.7749  -4.7310  -4.6731  -4.5846  -4.5781  -4.5578
    -4.5393  -4.5377  -4.5024  -4.4986  -4.4852  -4.4545  -4.4235  -4.4184
    -4.4108  -4.3979  -4.3871  -4.3702  -4.3648  -4.3438  -4.3308  -4.2995
    -4.2859  -4.2770  -4.2352  -4.2041  -4.1717  -4.1438  -4.1332  -4.0019
    -3.9554  -3.7515  -3.6500  -3.5583  -3.5379  -3.3627  -3.2750  -3.1807
    -3.1190  -3.0162  -2.9902  -2.8882  -2.8235  -2.7411  -2.6164  -2.5896
    -2.4061  -2.3950  -2.3290

          k = 0.2500 0.1768 0.0000 (128340 PWs)   bands (ev):

   -92.4403 -92.4325 -92.4022 -92.3987 -92.3968 -92.3920 -92.3840 -92.3768
   -92.3760 -92.3727 -92.3715 -92.3697 -92.3657 -92.3598 -92.3583 -92.3576
   -92.3569 -92.3550 -92.3502 -92.3494 -92.3475 -92.3472 -92.3440 -92.3409
   -92.3403 -92.3354 -92.3336 -92.3227 -92.3107 -92.3039 -92.2984 -92.2957
   -92.2821 -92.2613 -92.2539 -92.2491 -92.2458 -92.2425 -92.2370 -92.2310
   -92.2298 -92.2271 -92.2260 -92.2247 -92.2238 -92.2224 -92.2212 -92.2205
   -92.2187 -92.2185 -92.2165 -92.2142 -92.2135 -92.2124 -92.2094 -92.2071
   -92.2042 -92.1999 -92.1997 -92.1988 -92.1904 -92.1879 -92.1769 -92.1721
   -58.6260 -58.6164 -58.5948 -58.5876 -58.5817 -58.5809 -58.5777 -58.5711
   -58.5705 -58.5656 -58.5618 -58.5605 -58.5579 -58.5567 -58.5529 -58.5520
   -58.5496 -58.5474 -58.5454 -58.5446 -58.5429 -58.5425 -58.5400 -58.5368
   -58.5350 -58.5344 -58.5307 -58.5204 -58.5194 -58.5160 -58.5130 -58.5082
   -58.5023 -58.4971 -58.4964 -58.4946 -58.4914 -58.4910 -58.4867 -58.4749
   -58.4738 -58.4724 -58.4711 -58.4701 -58.4698 -58.4596 -58.4444 -58.4431
   -58.4389 -58.4368 -58.4327 -58.4302 -58.4286 -58.4243 -58.4234 -58.4176
   -58.4161 -58.4144 -58.4099 -58.4088 -58.4057 -58.4017 -58.3959 -58.3952
   -58.3923 -58.3912 -58.3908 -58.3901 -58.3884 -58.3864 -58.3835 -58.3790
   -58.3780 -58.3756 -58.3717 -58.3711 -58.3627 -58.3623 -58.3590 -58.3588
   -58.3566 -58.3521 -58.3502 -58.3484 -58.3434 -58.3407 -58.3394 -58.3353
   -58.3306 -58.3300 -58.3280 -58.3263 -58.3220 -58.3201 -58.3183 -58.3158
   -58.3145 -58.3138 -58.3077 -58.3053 -58.3050 -58.3015 -58.2995 -58.2982
   -58.2975 -58.2961 -58.2956 -58.2923 -58.2908 -58.2886 -58.2873 -58.2862
   -58.2820 -58.2820 -58.2754 -58.2724 -58.2677 -58.2666 -58.2642 -58.2640
   -58.2635 -58.2592 -58.2586 -58.2578 -58.2541 -58.2527 -58.2516 -58.2515
   -58.2483 -58.2435 -58.2431 -58.2397 -58.2384 -58.2338 -58.2292 -58.2268
   -58.2264 -58.2261 -58.2241 -58.2209 -58.2207 -58.2170 -58.2165 -58.2104
   -58.2093 -58.2090 -58.2077 -58.2067 -58.2045 -58.2017 -58.1992 -58.1912
   -58.1906 -58.1859 -58.1858 -58.1811 -58.1771 -58.1771 -58.1754 -58.1725
   -58.1718 -58.1698 -58.1690 -58.1675 -58.1660 -58.1617 -58.1611 -58.1587
   -58.1581 -58.1566 -58.1512 -58.1498 -58.1491 -58.1448 -58.1427 -58.1409
   -58.1406 -58.1395 -58.1369 -58.1341 -58.1333 -58.1299 -58.1290 -58.1278
   -58.1270 -58.1266 -58.1257 -58.1246 -58.1239 -58.1231 -58.1202 -58.1142
   -20.4772 -12.3011 -11.9117 -11.1462 -10.8829 -10.8469 -10.7235 -10.3350
   -10.0256  -9.9889  -9.8334  -9.7893  -9.5634  -9.4691  -9.4397  -9.2966
    -9.1791  -9.0487  -9.0215  -8.9147  -8.8258  -8.8204  -8.8112  -8.7719
    -8.7585  -8.7057  -8.6921  -8.6919  -8.6703  -8.5954  -8.5807  -8.5680
    -8.4882  -8.4635  -8.4602  -8.4476  -8.3877  -8.3721  -8.3713  -8.3554
    -8.3358  -8.3256  -8.3231  -8.3076  -8.3013  -8.2987  -8.2914  -8.2890
    -8.2524  -8.2502  -8.2205  -8.2093  -8.1953  -8.1879  -8.1483  -8.1224
    -8.1172  -8.0666  -8.0517  -8.0393  -7.9572  -7.9561  -7.9197  -7.9142
    -7.8900  -7.8367  -7.8220  -7.8171  -7.7838  -7.7829  -7.7426  -7.7121
    -7.6483  -7.6340  -7.6160  -7.5550  -7.5483  -7.5400  -7.5380  -7.5223
    -7.5160  -7.5142  -7.5103  -7.5097  -7.5015  -7.4990  -7.4904  -7.4846
    -7.4834  -7.4636  -7.4503  -7.4378  -7.4091  -7.3951  -7.3810  -7.3680
    -7.3603  -7.3328  -7.3300  -7.3113  -7.3103  -7.3053  -7.2998  -7.2904
    -7.2781  -7.2633  -7.2553  -7.2486  -7.2239  -7.2110  -7.1840  -7.1733
    -7.1663  -7.1531  -7.1407  -7.1127  -7.1057  -7.1025  -7.1018  -7.0966
    -7.0907  -7.0789  -7.0747  -7.0606  -7.0532  -7.0351  -7.0018  -6.9978
    -6.9844  -6.9517  -6.9246  -6.9050  -6.8959  -6.8905  -6.8861  -6.8758
    -6.8652  -6.8492  -6.8332  -6.8135  -6.8021  -6.8001  -6.7920  -6.7790
    -6.7623  -6.7570  -6.7386  -6.7290  -6.7235  -6.7038  -6.6924  -6.6544
    -6.6515  -6.6300  -6.6273  -6.6114  -6.6006  -6.5976  -6.5943  -6.5755
    -6.5692  -6.5446  -6.5263  -6.5120  -6.5019  -6.4954  -6.4879  -6.4833
    -6.4785  -6.4733  -6.4616  -6.4610  -6.4481  -6.4422  -6.4400  -6.4247
    -6.4106  -6.4020  -6.3623  -6.3552  -6.3248  -6.2364  -6.1855  -6.1655
    -6.1555  -6.1235  -6.1174  -6.0538  -6.0297  -6.0250  -5.9861  -5.9736
    -5.9532  -5.9318  -5.9144  -5.9031  -5.8981  -5.8673  -5.8658  -5.8258
    -5.8168  -5.8048  -5.7957  -5.7856  -5.7824  -5.7677  -5.7647  -5.7380
    -5.7261  -5.7214  -5.7090  -5.7072  -5.6998  -5.6781  -5.6750  -5.6702
    -5.6689  -5.6549  -5.6248  -5.6199  -5.5885  -5.5778  -5.5710  -5.5583
    -5.5557  -5.5493  -5.5478  -5.5414  -5.5288  -5.5231  -5.5207  -5.5149
    -5.4963  -5.4949  -5.4756  -5.4720  -5.4644  -5.4587  -5.4546  -5.4468
    -5.4448  -5.4353  -5.4294  -5.4250  -5.4174  -5.4059  -5.3900  -5.3785
    -5.3714  -5.3668  -5.3619  -5.3546  -5.3533  -5.3402  -5.3301  -5.3211
    -5.3079  -5.3003  -5.2972  -5.2962  -5.2904  -5.2836  -5.2732  -5.2673
    -5.2538  -5.2487  -5.2367  -5.2355  -5.2289  -5.2225  -5.2214  -5.2159
    -5.2123  -5.2109  -5.2080  -5.2074  -5.1949  -5.1938  -5.1809  -5.1805
    -5.1741  -5.1489  -5.1486  -5.1406  -5.1379  -5.1337  -5.1289  -5.1260
    -5.1098  -5.1072  -5.0987  -5.0969  -5.0837  -5.0775  -5.0593  -5.0573
    -5.0489  -5.0297  -5.0274  -5.0192  -4.9776  -4.9760  -4.9570  -4.9513
    -4.9316  -4.9218  -4.9178  -4.9118  -4.9038  -4.8468  -4.8267  -4.8111
    -4.7888  -4.7877  -4.7752  -4.7598  -4.6370  -4.6184  -4.6145  -4.5540
    -4.5471  -4.5396  -4.5149  -4.4539  -4.4449  -4.4292  -4.4119  -4.3931
    -4.3859  -4.3834  -4.3679  -4.3530  -4.3439  -4.3412  -4.3215  -4.2755
    -4.2582  -4.2018  -4.1988  -4.1656  -4.1030  -4.0579  -4.0503  -3.9616
    -3.9532  -3.8397  -3.7300  -3.5740  -3.4731  -3.3904  -3.3792  -3.3549
    -3.3099  -3.2536  -3.2509  -3.1979  -3.1719  -3.0527  -3.0301  -2.8454
    -2.7102  -2.6192  -2.5757

          k = 0.2500-0.6187 0.0000 (128424 PWs)   bands (ev):

   -92.4403 -92.4325 -92.4019 -92.3993 -92.3965 -92.3894 -92.3868 -92.3804
   -92.3748 -92.3717 -92.3697 -92.3696 -92.3630 -92.3627 -92.3603 -92.3587
   -92.3554 -92.3529 -92.3513 -92.3503 -92.3476 -92.3450 -92.3433 -92.3423
   -92.3395 -92.3360 -92.3338 -92.3227 -92.3107 -92.3041 -92.2984 -92.2956
   -92.2819 -92.2601 -92.2564 -92.2514 -92.2439 -92.2403 -92.2341 -92.2319
   -92.2302 -92.2294 -92.2275 -92.2261 -92.2243 -92.2221 -92.2212 -92.2199
   -92.2192 -92.2175 -92.2155 -92.2142 -92.2124 -92.2107 -92.2096 -92.2066
   -92.2058 -92.2017 -92.2005 -92.1984 -92.1899 -92.1867 -92.1767 -92.1728
   -58.6250 -58.6165 -58.5947 -58.5879 -58.5813 -58.5797 -58.5764 -58.5747
   -58.5712 -58.5681 -58.5594 -58.5589 -58.5575 -58.5564 -58.5518 -58.5506
   -58.5497 -58.5485 -58.5470 -58.5437 -58.5433 -58.5411 -58.5384 -58.5376
   -58.5363 -58.5324 -58.5290 -58.5218 -58.5187 -58.5134 -58.5074 -58.5068
   -58.5009 -58.4928 -58.4891 -58.4874 -58.4866 -58.4853 -58.4847 -58.4824
   -58.4771 -58.4733 -58.4696 -58.4617 -58.4595 -58.4565 -58.4485 -58.4473
   -58.4454 -58.4442 -58.4421 -58.4389 -58.4351 -58.4322 -58.4276 -58.4231
   -58.4209 -58.4186 -58.4119 -58.4079 -58.4041 -58.4031 -58.3983 -58.3969
   -58.3933 -58.3924 -58.3915 -58.3859 -58.3832 -58.3816 -58.3785 -58.3765
   -58.3758 -58.3742 -58.3725 -58.3715 -58.3700 -58.3691 -58.3674 -58.3625
   -58.3598 -58.3572 -58.3557 -58.3530 -58.3487 -58.3466 -58.3444 -58.3422
   -58.3381 -58.3376 -58.3351 -58.3322 -58.3269 -58.3222 -58.3176 -58.3166
   -58.3134 -58.3113 -58.3075 -58.3062 -58.3012 -58.2985 -58.2973 -58.2959
   -58.2911 -58.2888 -58.2871 -58.2863 -58.2833 -58.2820 -58.2812 -58.2784
   -58.2779 -58.2758 -58.2734 -58.2720 -58.2704 -58.2680 -58.2647 -58.2637
   -58.2620 -58.2598 -58.2574 -58.2552 -58.2536 -58.2524 -58.2509 -58.2491
   -58.2477 -58.2425 -58.2419 -58.2376 -58.2351 -58.2333 -58.2283 -58.2264
   -58.2253 -58.2239 -58.2191 -58.2181 -58.2170 -58.2163 -58.2143 -58.2135
   -58.2119 -58.2093 -58.2066 -58.2026 -58.1997 -58.1980 -58.1970 -58.1926
   -58.1902 -58.1874 -58.1853 -58.1827 -58.1804 -58.1740 -58.1712 -58.1707
   -58.1677 -58.1655 -58.1622 -58.1611 -58.1595 -58.1580 -58.1571 -58.1545
   -58.1528 -58.1513 -58.1503 -58.1480 -58.1479 -58.1465 -58.1459 -58.1449
   -58.1439 -58.1426 -58.1416 -58.1394 -58.1378 -58.1373 -58.1369 -58.1355
   -58.1344 -58.1327 -58.1316 -58.1264 -58.1254 -58.1247 -58.1230 -58.1170
   -20.4772 -12.2534 -11.7395 -11.4563 -11.1680 -10.8608 -10.3973 -10.3528
   -10.1052  -9.9305  -9.8400  -9.6909  -9.5950  -9.2482  -9.1750  -9.1159
    -9.0900  -9.0586  -8.9999  -8.9947  -8.9587  -8.8643  -8.7936  -8.7907
    -8.7686  -8.7552  -8.7227  -8.6732  -8.6556  -8.6353  -8.6211  -8.6015
    -8.5831  -8.5794  -8.5528  -8.5134  -8.4841  -8.4697  -8.4604  -8.4499
    -8.4302  -8.4124  -8.3747  -8.3610  -8.3475  -8.3276  -8.2697  -8.2438
    -8.2365  -8.2137  -8.1711  -8.1558  -8.1302  -8.0971  -8.0848  -8.0642
    -8.0305  -8.0115  -7.9969  -7.9871  -7.9735  -7.9519  -7.9350  -7.9228
    -7.8926  -7.8751  -7.8581  -7.8406  -7.8199  -7.8127  -7.7755  -7.7324
    -7.7137  -7.7056  -7.6986  -7.6238  -7.5849  -7.5632  -7.5481  -7.5341
    -7.5299  -7.5215  -7.5091  -7.5024  -7.4947  -7.4808  -7.4451  -7.4243
    -7.4059  -7.3885  -7.3819  -7.3736  -7.3657  -7.3465  -7.3403  -7.3279
    -7.3200  -7.3117  -7.3059  -7.2978  -7.2915  -7.2835  -7.2791  -7.2673
    -7.2587  -7.2394  -7.2322  -7.2220  -7.2030  -7.1896  -7.1852  -7.1746
    -7.1671  -7.1655  -7.1471  -7.1247  -7.1178  -7.1136  -7.0886  -7.0819
    -7.0681  -7.0637  -7.0549  -7.0483  -7.0385  -7.0267  -7.0263  -7.0096
    -7.0026  -6.9979  -6.9921  -6.9830  -6.9747  -6.9658  -6.9445  -6.9295
    -6.9145  -6.9050  -6.8776  -6.8659  -6.8299  -6.7849  -6.7701  -6.7594
    -6.7452  -6.7426  -6.7324  -6.7272  -6.7103  -6.7033  -6.6971  -6.6936
    -6.6787  -6.6670  -6.6604  -6.6559  -6.6536  -6.6393  -6.6324  -6.6170
    -6.5946  -6.5884  -6.5853  -6.5800  -6.5408  -6.5286  -6.4947  -6.4690
    -6.4548  -6.4342  -6.4245  -6.3907  -6.3648  -6.3574  -6.3447  -6.3036
    -6.2883  -6.2603  -6.2362  -6.2132  -6.1767  -6.1614  -6.1554  -6.1144
    -6.1022  -6.0782  -6.0562  -6.0281  -6.0095  -5.9999  -5.9936  -5.9835
    -5.9593  -5.9465  -5.9438  -5.9367  -5.9283  -5.9106  -5.8786  -5.8617
    -5.8548  -5.8447  -5.8301  -5.8105  -5.7973  -5.7855  -5.7708  -5.7557
    -5.7483  -5.7299  -5.7222  -5.7123  -5.6970  -5.6913  -5.6868  -5.6798
    -5.6669  -5.6468  -5.6375  -5.6315  -5.6167  -5.5952  -5.5874  -5.5835
    -5.5756  -5.5718  -5.5671  -5.5540  -5.5468  -5.5416  -5.5351  -5.5282
    -5.5188  -5.5154  -5.5000  -5.4878  -5.4728  -5.4683  -5.4620  -5.4534
    -5.4354  -5.4322  -5.4221  -5.4149  -5.4062  -5.3999  -5.3913  -5.3793
    -5.3738  -5.3621  -5.3576  -5.3496  -5.3404  -5.3340  -5.3310  -5.3265
    -5.3150  -5.3024  -5.2909  -5.2853  -5.2787  -5.2747  -5.2648  -5.2585
    -5.2517  -5.2462  -5.2431  -5.2372  -5.2325  -5.2235  -5.2186  -5.2029
    -5.1925  -5.1906  -5.1835  -5.1787  -5.1761  -5.1667  -5.1621  -5.1535
    -5.1490  -5.1456  -5.1377  -5.1359  -5.1271  -5.1249  -5.1148  -5.1054
    -5.0910  -5.0732  -5.0643  -5.0538  -5.0374  -5.0292  -5.0229  -5.0197
    -5.0068  -4.9808  -4.9615  -4.9318  -4.9277  -4.9130  -4.9040  -4.8685
    -4.8547  -4.8311  -4.8165  -4.7844  -4.7761  -4.7600  -4.7320  -4.7169
    -4.7133  -4.7068  -4.6974  -4.6597  -4.6425  -4.6223  -4.6166  -4.5981
    -4.5885  -4.5586  -4.5478  -4.5148  -4.5024  -4.4992  -4.4894  -4.4774
    -4.4620  -4.4369  -4.4176  -4.4067  -4.4010  -4.3906  -4.3808  -4.3540
    -4.3381  -4.3245  -4.3014  -4.2945  -4.2707  -4.2134  -4.1783  -4.1655
    -4.1122  -4.0056  -3.8933  -3.7495  -3.6800  -3.6047  -3.5401  -3.4479
    -3.4091  -3.2735  -3.2522  -3.1142  -2.9428  -2.8872  -2.7079  -2.6568
    -2.6037  -2.5581  -2.4391

          k = 0.2500-0.3536 0.0000 (128397 PWs)   bands (ev):

   -92.4403 -92.4325 -92.4020 -92.3995 -92.3962 -92.3914 -92.3839 -92.3824
   -92.3716 -92.3696 -92.3696 -92.3683 -92.3662 -92.3653 -92.3630 -92.3588
   -92.3520 -92.3516 -92.3516 -92.3505 -92.3470 -92.3466 -92.3439 -92.3421
   -92.3388 -92.3378 -92.3325 -92.3226 -92.3107 -92.3040 -92.2984 -92.2956
   -92.2821 -92.2610 -92.2557 -92.2511 -92.2413 -92.2389 -92.2356 -92.2335
   -92.2325 -92.2301 -92.2276 -92.2263 -92.2254 -92.2217 -92.2206 -92.2196
   -92.2182 -92.2181 -92.2149 -92.2138 -92.2121 -92.2085 -92.2080 -92.2075
   -92.2051 -92.2041 -92.2009 -92.1982 -92.1902 -92.1875 -92.1764 -92.1724
   -58.6256 -58.6163 -58.5952 -58.5874 -58.5819 -58.5794 -58.5771 -58.5759
   -58.5705 -58.5691 -58.5593 -58.5579 -58.5562 -58.5541 -58.5529 -58.5522
   -58.5515 -58.5491 -58.5480 -58.5442 -58.5413 -58.5407 -58.5392 -58.5374
   -58.5358 -58.5323 -58.5296 -58.5240 -58.5175 -58.5159 -58.5116 -58.5065
   -58.5018 -58.4981 -58.4963 -58.4944 -58.4887 -58.4872 -58.4835 -58.4821
   -58.4807 -58.4798 -58.4767 -58.4702 -58.4688 -58.4599 -58.4464 -58.4452
   -58.4384 -58.4369 -58.4298 -58.4265 -58.4243 -58.4198 -58.4155 -58.4134
   -58.4126 -58.4100 -58.4093 -58.4076 -58.4046 -58.4020 -58.3993 -58.3977
   -58.3954 -58.3942 -58.3916 -58.3908 -58.3902 -58.3865 -58.3843 -58.3810
   -58.3788 -58.3764 -58.3737 -58.3667 -58.3653 -58.3623 -58.3583 -58.3561
   -58.3543 -58.3508 -58.3503 -58.3485 -58.3459 -58.3433 -58.3403 -58.3384
   -58.3350 -58.3325 -58.3289 -58.3274 -58.3233 -58.3205 -58.3182 -58.3157
   -58.3135 -58.3131 -58.3116 -58.3107 -58.3094 -58.3045 -58.3014 -58.2949
   -58.2947 -58.2910 -58.2868 -58.2852 -58.2850 -58.2831 -58.2808 -58.2802
   -58.2791 -58.2784 -58.2772 -58.2769 -58.2758 -58.2731 -58.2686 -58.2657
   -58.2637 -58.2624 -58.2615 -58.2572 -58.2557 -58.2548 -58.2528 -58.2516
   -58.2483 -58.2465 -58.2390 -58.2380 -58.2351 -58.2329 -58.2311 -58.2297
   -58.2236 -58.2222 -58.2204 -58.2200 -58.2180 -58.2159 -58.2146 -58.2138
   -58.2117 -58.2084 -58.2043 -58.2039 -58.2009 -58.2005 -58.1982 -58.1970
   -58.1933 -58.1920 -58.1903 -58.1866 -58.1803 -58.1781 -58.1771 -58.1748
   -58.1731 -58.1716 -58.1655 -58.1640 -58.1638 -58.1624 -58.1600 -58.1578
   -58.1533 -58.1525 -58.1501 -58.1490 -58.1463 -58.1445 -58.1437 -58.1422
   -58.1407 -58.1399 -58.1384 -58.1358 -58.1343 -58.1302 -58.1290 -58.1279
   -58.1275 -58.1262 -58.1244 -58.1242 -58.1237 -58.1231 -58.1195 -58.1163
   -20.4772 -12.2619 -11.8357 -11.3202 -11.2614 -10.8653 -10.3362 -10.1770
    -9.9422  -9.8381  -9.7905  -9.6972  -9.6409  -9.5805  -9.4280  -9.3964
    -9.1292  -8.9257  -8.9096  -8.8960  -8.8882  -8.8726  -8.8601  -8.8225
    -8.8162  -8.7401  -8.7359  -8.7329  -8.6997  -8.6790  -8.6441  -8.6273
    -8.6144  -8.5553  -8.4835  -8.4619  -8.4515  -8.4374  -8.4152  -8.4093
    -8.3877  -8.3807  -8.3739  -8.3596  -8.3249  -8.3002  -8.2659  -8.2354
    -8.2245  -8.2072  -8.1896  -8.1736  -8.1429  -8.1335  -8.0638  -8.0522
    -8.0029  -7.9972  -7.9965  -7.9709  -7.9592  -7.9525  -7.9487  -7.9382
    -7.8883  -7.8865  -7.8586  -7.8326  -7.8243  -7.8021  -7.7481  -7.7351
    -7.6545  -7.6444  -7.6216  -7.5902  -7.5779  -7.5399  -7.5373  -7.5228
    -7.5223  -7.4901  -7.4766  -7.4680  -7.4665  -7.4625  -7.4394  -7.4368
    -7.4337  -7.4204  -7.4144  -7.4119  -7.4055  -7.4027  -7.3852  -7.3661
    -7.3522  -7.3443  -7.3204  -7.3166  -7.3126  -7.2993  -7.2952  -7.2828
    -7.2673  -7.2601  -7.2584  -7.2476  -7.2390  -7.2277  -7.1879  -7.1576
    -7.1505  -7.1417  -7.1385  -7.1325  -7.1222  -7.1170  -7.1145  -7.1044
    -7.0917  -7.0896  -7.0783  -7.0438  -7.0253  -7.0132  -6.9986  -6.9943
    -6.9647  -6.9458  -6.9310  -6.8917  -6.8653  -6.8626  -6.8578  -6.8236
    -6.8217  -6.8073  -6.8000  -6.7885  -6.7871  -6.7840  -6.7763  -6.7741
    -6.7698  -6.7662  -6.7607  -6.7579  -6.7534  -6.7512  -6.7343  -6.7224
    -6.7209  -6.7132  -6.7020  -6.6835  -6.6646  -6.6541  -6.6369  -6.6062
    -6.5789  -6.5559  -6.5500  -6.5200  -6.5144  -6.4983  -6.4669  -6.4364
    -6.4243  -6.4180  -6.4063  -6.3977  -6.3791  -6.3458  -6.3153  -6.2977
    -6.2885  -6.2416  -6.2059  -6.1934  -6.1823  -6.1521  -6.1456  -6.1340
    -6.1274  -6.0792  -6.0604  -6.0484  -6.0444  -6.0281  -6.0109  -6.0085
    -6.0051  -6.0034  -5.9905  -5.9614  -5.9468  -5.9271  -5.9050  -5.8747
    -5.8492  -5.8472  -5.8318  -5.8165  -5.8045  -5.7811  -5.7730  -5.7571
    -5.7519  -5.7433  -5.7376  -5.7345  -5.7166  -5.6997  -5.6750  -5.6491
    -5.6371  -5.6347  -5.6292  -5.6223  -5.6111  -5.5975  -5.5817  -5.5747
    -5.5539  -5.5408  -5.5375  -5.5287  -5.5217  -5.5157  -5.5136  -5.5074
    -5.4769  -5.4762  -5.4705  -5.4672  -5.4596  -5.4465  -5.4368  -5.4327
    -5.4268  -5.4220  -5.4076  -5.4066  -5.4019  -5.3977  -5.3852  -5.3835
    -5.3738  -5.3699  -5.3685  -5.3599  -5.3578  -5.3504  -5.3469  -5.3391
    -5.3289  -5.3273  -5.3238  -5.3133  -5.3114  -5.3046  -5.3015  -5.2990
    -5.2899  -5.2888  -5.2781  -5.2750  -5.2736  -5.2709  -5.2692  -5.2498
    -5.2416  -5.2388  -5.2348  -5.2121  -5.2099  -5.2011  -5.1970  -5.1924
    -5.1900  -5.1881  -5.1788  -5.1738  -5.1710  -5.1584  -5.1429  -5.1405
    -5.1223  -5.0936  -5.0911  -5.0819  -5.0741  -5.0702  -5.0564  -5.0409
    -5.0183  -5.0077  -4.9840  -4.9552  -4.9444  -4.9362  -4.9244  -4.9149
    -4.9103  -4.9016  -4.8890  -4.8760  -4.8698  -4.8507  -4.8363  -4.7981
    -4.7819  -4.7754  -4.7476  -4.7335  -4.7267  -4.6824  -4.6645  -4.6168
    -4.5842  -4.5556  -4.5188  -4.4989  -4.4958  -4.4942  -4.4880  -4.4810
    -4.4654  -4.4509  -4.4365  -4.4284  -4.4163  -4.4154  -4.4081  -4.3999
    -4.3697  -4.3634  -4.3608  -4.3454  -4.1513  -4.1281  -3.9716  -3.8365
    -3.8162  -3.7520  -3.7371  -3.5936  -3.5250  -3.5213  -3.4432  -3.4092
    -3.3728  -3.3299  -3.2015  -3.0922  -2.9693  -2.8337  -2.7929  -2.6197
    -2.5325  -2.2106  -1.9670

          k =-0.5000 0.1768 0.0000 (128388 PWs)   bands (ev):

   -92.4403 -92.4325 -92.4020 -92.3995 -92.3962 -92.3902 -92.3880 -92.3752
   -92.3744 -92.3716 -92.3696 -92.3688 -92.3686 -92.3635 -92.3616 -92.3563
   -92.3558 -92.3503 -92.3494 -92.3492 -92.3489 -92.3472 -92.3460 -92.3407
   -92.3405 -92.3345 -92.3341 -92.3227 -92.3107 -92.3039 -92.2984 -92.2956
   -92.2820 -92.2612 -92.2561 -92.2487 -92.2439 -92.2392 -92.2361 -92.2323
   -92.2316 -92.2303 -92.2285 -92.2255 -92.2232 -92.2230 -92.2210 -92.2194
[...]
    -1.4285  -1.3493  -1.3335  -1.3020  -1.1863  -1.1446  -1.0558  -1.0033
    -0.9469  -0.8586  -0.7976

          k =-0.5000-0.3536 0.0000 (128560 PWs)   bands (ev):

   -89.8426 -89.8410 -89.4969 -89.4961 -89.4492 -89.4456 -89.4263 -89.4206
   -89.4038 -89.3979 -89.3814 -89.3783 -89.3708 -89.3696 -89.3694 -89.3663
   -89.3592 -89.3571 -89.3545 -89.3509 -89.3483 -89.3473 -89.3467 -89.3441
   -89.3410 -89.3376 -89.3359 -89.3318 -89.3305 -89.3290 -89.3287 -89.3276
   -89.3274 -89.3251 -89.3250 -89.3090 -89.3076 -89.3053 -89.3050 -89.2986
   -89.2966 -89.2881 -89.2880 -89.2878 -89.2865 -89.2864 -89.2858 -89.2829
   -89.2791 -89.2718 -89.2664 -89.2662 -89.2659 -89.2658 -89.2655 -89.2644
   -89.2643 -89.2635 -89.2617 -89.2606 -89.2436 -89.2433 -89.2427 -89.2404
   -56.2767 -56.2616 -55.9349 -55.9300 -55.7844 -55.7679 -55.7284 -55.7279
   -55.7176 -55.6937 -55.6664 -55.6597 -55.6595 -55.6535 -55.6522 -55.6493
   -55.6479 -55.6463 -55.6411 -55.6389 -55.6353 -55.6349 -55.6339 -55.6308
   -55.6291 -55.6247 -55.6231 -55.6195 -55.6184 -55.6131 -55.6085 -55.6077
   -55.6054 -55.6032 -55.6026 -55.5987 -55.5937 -55.5905 -55.5884 -55.5876
   -55.5868 -55.5818 -55.5804 -55.5756 -55.5732 -55.5706 -55.5684 -55.5676
   -55.5611 -55.5545 -55.5538 -55.5480 -55.5466 -55.5456 -55.5436 -55.5406
   -55.5406 -55.5404 -55.5397 -55.5393 -55.5342 -55.5332 -55.5312 -55.5309
   -55.5295 -55.5293 -55.5223 -55.5203 -55.5160 -55.5124 -55.5089 -55.5067
   -55.5015 -55.4939 -55.4907 -55.4889 -55.4846 -55.4806 -55.4739 -55.4725
   -55.4710 -55.4704 -55.4623 -55.4610 -55.4576 -55.4517 -55.4501 -55.4500
   -55.4443 -55.4432 -55.4415 -55.4382 -55.4378 -55.4331 -55.4310 -55.4301
   -55.4298 -55.4272 -55.4237 -55.4229 -55.4216 -55.4200 -55.4121 -55.4115
   -55.4057 -55.4035 -55.4033 -55.4007 -55.3947 -55.3942 -55.3919 -55.3911
   -55.3896 -55.3889 -55.3872 -55.3856 -55.3846 -55.3826 -55.3811 -55.3769
   -55.3756 -55.3748 -55.3729 -55.3696 -55.3650 -55.3645 -55.3634 -55.3627
   -55.3573 -55.3569 -55.3564 -55.3523 -55.3509 -55.3499 -55.3480 -55.3428
   -55.3422 -55.3414 -55.3383 -55.3369 -55.3349 -55.3345 -55.3325 -55.3323
   -55.3316 -55.3303 -55.3275 -55.3266 -55.3254 -55.3249 -55.3243 -55.3233
   -55.3214 -55.3181 -55.3156 -55.3144 -55.3109 -55.3080 -55.3077 -55.3057
   -55.3048 -55.3025 -55.3024 -55.3018 -55.3008 -55.2998 -55.2994 -55.2987
   -55.2981 -55.2971 -55.2964 -55.2960 -55.2938 -55.2936 -55.2902 -55.2890
   -55.2867 -55.2851 -55.2849 -55.2841 -55.2834 -55.2781 -55.2776 -55.2772
   -55.2758 -55.2741 -55.2730 -55.2727 -55.2707 -55.2688 -55.2668 -55.2662
   -20.5281 -12.0442 -11.3607 -11.3271 -10.8139 -10.7860 -10.3897 -10.0920
    -9.6742  -9.5858  -9.2827  -9.1568  -9.1319  -8.7569  -8.7123  -8.6791
    -8.6440  -8.2893  -8.0881  -7.9169  -7.9076  -7.8956  -7.8757  -7.8644
    -7.8258  -7.7926  -7.7724  -7.7679  -7.7306  -7.7233  -7.5016  -7.3712
    -7.3475  -7.3396  -7.3377  -7.2983  -7.2411  -7.1454  -7.0513  -6.8893
    -6.8695  -6.8656  -6.8351  -6.8315  -6.8022  -6.7822  -6.7410  -6.7268
    -6.7231  -6.6661  -6.6254  -6.5966  -6.5899  -6.5674  -6.5452  -6.5132
    -6.4739  -6.3295  -6.3218  -6.3018  -6.2900  -6.2792  -6.2409  -6.0695
    -6.0371  -6.0147  -6.0013  -5.9848  -5.9726  -5.8906  -5.8692  -5.8511
    -5.8253  -5.8066  -5.7867  -5.7754  -5.7734  -5.7641  -5.7477  -5.7473
    -5.7293  -5.7153  -5.7113  -5.6722  -5.6679  -5.6587  -5.6561  -5.6460
    -5.6379  -5.6199  -5.6072  -5.5613  -5.5330  -5.5156  -5.4379  -5.4302
    -5.4215  -5.3623  -5.3170  -5.3045  -5.2978  -5.2963  -5.2882  -5.2786
    -5.2655  -5.2595  -5.2528  -5.2524  -5.2266  -5.2257  -5.2184  -5.2157
    -5.2099  -5.1995  -5.1898  -5.1806  -5.1786  -5.1748  -5.1628  -5.1571
    -5.1541  -5.1492  -5.1424  -5.1353  -5.1237  -5.1226  -5.1129  -5.1017
    -5.0890  -5.0693  -5.0688  -5.0622  -5.0609  -5.0487  -5.0422  -5.0330
    -5.0318  -5.0315  -5.0021  -4.9992  -4.9938  -4.9431  -4.9264  -4.8696
    -4.8292  -4.8000  -4.7838  -4.7697  -4.7685  -4.7682  -4.7492  -4.7463
    -4.7373  -4.7196  -4.6686  -4.6568  -4.6178  -4.6099  -4.6007  -4.5878
    -4.5851  -4.5721  -4.5682  -4.5386  -4.5265  -4.5243  -4.4903  -4.4765
    -4.3869  -4.3582  -4.3370  -4.3194  -4.3011  -4.2920  -4.2798  -4.2693
    -4.2565  -4.2561  -4.2507  -4.2115  -4.2112  -4.2068  -4.1774  -4.1600
    -4.1524  -4.1478  -4.1469  -4.1147  -4.0940  -3.9406  -3.8793  -3.8692
    -3.8542  -3.7543  -3.7528  -3.7249  -3.5846  -3.5410  -3.4970  -3.4827
    -3.4619  -3.4253  -3.4118  -3.4028  -3.3926  -3.3662  -3.3603  -3.3305
    -3.3184  -3.3103  -3.2986  -3.2575  -3.2351  -3.2090  -3.1971  -3.1856
    -3.1808  -3.1690  -3.1607  -3.1184  -3.1084  -3.1014  -3.0738  -3.0240
    -3.0179  -3.0054  -2.9973  -2.9957  -2.9880  -2.9818  -2.9802  -2.9663
    -2.9598  -2.9562  -2.9207  -2.9020  -2.8984  -2.8825  -2.8343  -2.8336
    -2.8158  -2.8061  -2.8015  -2.7960  -2.7717  -2.7452  -2.6985  -2.6828
    -2.6781  -2.6749  -2.6360  -2.6301  -2.5970  -2.5850  -2.5733  -2.5602
    -2.5579  -2.5571  -2.5536  -2.5405  -2.5277  -2.5240  -2.5074  -2.5010
    -2.4969  -2.4913  -2.4892  -2.4780  -2.4757  -2.4709  -2.4619  -2.4462
    -2.4368  -2.4336  -2.4297  -2.4122  -2.4027  -2.3954  -2.3899  -2.3845
    -2.3815  -2.3797  -2.3730  -2.3722  -2.3690  -2.3532  -2.3428  -2.3416
    -2.3304  -2.3166  -2.3137  -2.3092  -2.3059  -2.2991  -2.2916  -2.2910
    -2.2845  -2.2639  -2.2570  -2.2504  -2.2173  -2.1992  -2.1933  -2.1849
    -2.1761  -2.1664  -2.1657  -2.1544  -2.1512  -2.1507  -2.1304  -2.1207
    -2.1188  -2.1120  -2.1117  -2.1046  -2.0979  -2.0957  -2.0910  -2.0866
    -2.0814  -2.0775  -2.0738  -2.0577  -2.0524  -2.0442  -2.0413  -2.0368
    -2.0312  -2.0273  -2.0152  -2.0142  -2.0111  -2.0046  -1.9953  -1.9801
    -1.9515  -1.9307  -1.9299  -1.9117  -1.9104  -1.8873  -1.8294  -1.8153
    -1.6987  -1.6982  -1.6953  -1.6779  -1.5574  -1.4926  -1.4798  -1.4717
    -1.4618  -1.4326  -1.4115  -1.4111  -1.3965  -1.3822  -1.3734  -1.2664
    -1.1518  -1.1300  -1.0599

     the Fermi energy is    -4.2298 ev

!    total energy              =  -21094.96241069 Ry
     estimated scf accuracy    <          6.7E-11 Ry
     smearing contrib. (-TS)   =       0.00176428 Ry
     internal energy E=F+TS    =  -21094.96417497 Ry

     The total energy is F=E-TS. E is the sum of the following terms:
     one-electron contribution = -744782.97785704 Ry
     hartree contribution      =  372226.54160206 Ry
     xc contribution           =   -2234.99861285 Ry
     ewald contribution        =  358571.31739451 Ry
     Dispersion Correction     =      -1.39935102 Ry
     one-center paw contrib.   =   -4873.44735063 Ry

     total magnetization       =   160.56 Bohr mag/cell
     absolute magnetization    =   167.33 Bohr mag/cell

     convergence has been achieved in  17 iterations

     negative rho (up, down):  1.187E-02 1.614E-02

     Forces acting on atoms (cartesian axes, Ry/au):

     atom    1 type  1   force =     0.00061714   -0.00022678    0.00911683
     atom    2 type  1   force =     0.00147212   -0.00221045   -0.01351848
     atom    3 type  1   force =    -0.00057063   -0.00032648    0.00920918
     atom    4 type  1   force =     0.00077734    0.00086755   -0.00837861
     atom    5 type  1   force =     0.00000870    0.00000317   -0.00002080
     atom    6 type  1   force =     0.00000135   -0.00000690   -0.00002428
     atom    7 type  1   force =    -0.00002593   -0.00002886   -0.00001651
     atom    8 type  1   force =    -0.00000485    0.00001808   -0.00003173
     atom    9 type  1   force =     0.00001976   -0.00000249    0.00983292
     atom   10 type  1   force =    -0.00018580   -0.00012733    0.00914700
     atom   11 type  1   force =    -0.00020563    0.00138140   -0.00742443
     atom   12 type  1   force =     0.00081165    0.00063489   -0.01168666
     atom   13 type  1   force =     0.00000674    0.00000482   -0.00005625
     atom   14 type  1   force =    -0.00001309   -0.00001294   -0.00000917
     atom   15 type  1   force =     0.00012575    0.00005801   -0.00006742
     atom   16 type  1   force =     0.00003885    0.00002481    0.00001647
     atom   17 type  1   force =    -0.00049113   -0.00041654    0.00915838
     atom   18 type  1   force =     0.00108916    0.00049650   -0.00836998
     atom   19 type  1   force =     0.00053204    0.00036204    0.00929150
     atom   20 type  1   force =     0.00048584   -0.00092777   -0.01107990
     atom   21 type  1   force =    -0.00003455   -0.00001740   -0.00001999
     atom   22 type  1   force =     0.00003005   -0.00001614   -0.00003579
     atom   23 type  1   force =     0.00003083    0.00003270   -0.00001979
     atom   24 type  1   force =    -0.00011721    0.00013631    0.00010919
     atom   25 type  1   force =    -0.00001337   -0.00003724    0.00722194
     atom   26 type  1   force =    -0.00065553    0.00081110    0.01009297
     atom   27 type  1   force =    -0.00009944   -0.00011873   -0.00642345
     atom   28 type  1   force =    -0.00106463    0.00069979   -0.00689323
     atom   29 type  1   force =    -0.00000490   -0.00000197    0.00004911
     atom   30 type  1   force =    -0.00000091   -0.00000972   -0.00003516
     atom   31 type  1   force =    -0.00003160   -0.00002802   -0.00000014
     atom   32 type  1   force =    -0.00010087   -0.00010608   -0.00004016
     atom   33 type  1   force =    -0.00045221    0.00021122    0.00897477
     atom   34 type  1   force =    -0.00062174   -0.00077006   -0.00849300
     atom   35 type  1   force =     0.00001601    0.00064615    0.00914140
     atom   36 type  1   force =    -0.00168209    0.00223485   -0.01348957
     atom   37 type  1   force =    -0.00000327   -0.00001205   -0.00003096
     atom   38 type  1   force =     0.00003465   -0.00000201   -0.00002926
     atom   39 type  1   force =     0.00000703    0.00000107   -0.00002563
     atom   40 type  1   force =    -0.00000407    0.00000064   -0.00003709
     atom   41 type  1   force =     0.00011729    0.00004934    0.00830796
     atom   42 type  1   force =     0.00054982   -0.00085706    0.01018065
     atom   43 type  1   force =    -0.00119281   -0.00075496   -0.01133502
     atom   44 type  1   force =     0.00028792   -0.00122250   -0.00688188
     atom   45 type  1   force =    -0.00000480   -0.00000116   -0.00001594
     atom   46 type  1   force =    -0.00000522   -0.00000410   -0.00003064
     atom   47 type  1   force =    -0.00006975   -0.00005636   -0.00003687
     atom   48 type  1   force =    -0.00013125   -0.00006947   -0.00003766
     atom   49 type  1   force =     0.00053142    0.00036557    0.00936360
     atom   50 type  1   force =    -0.00064977    0.00066425   -0.01108400
     atom   51 type  1   force =     0.00007677   -0.00050916    0.00896446
     atom   52 type  1   force =    -0.00093301   -0.00027344   -0.00847172
     atom   53 type  1   force =     0.00004459    0.00001459   -0.00001510
     atom   54 type  1   force =     0.00009122   -0.00016010    0.00011087
     atom   55 type  1   force =    -0.00001049   -0.00000258   -0.00002878
     atom   56 type  1   force =     0.00002186    0.00002750   -0.00001899
     atom   57 type  1   force =    -0.00004587   -0.00001246    0.00982873
     atom   58 type  1   force =    -0.00003532   -0.00001271    0.00933628
     atom   59 type  1   force =     0.00121102   -0.00063400   -0.00740361
     atom   60 type  1   force =     0.00025879    0.00014095   -0.00639208
     atom   61 type  1   force =     0.00001097   -0.00000292   -0.00005428
     atom   62 type  1   force =     0.00002146    0.00001542   -0.00000240
     atom   63 type  1   force =     0.00010822    0.00009455   -0.00006518
     atom   64 type  1   force =     0.00002394    0.00000187    0.00002295
     atom   65 type  2   force =     0.00000113   -0.00000791    0.00006866
     atom   66 type  3   force =    -0.00000354   -0.00001013   -0.00036373
     atom   67 type  3   force =     0.00000384   -0.00000213   -0.00009915

     Total force =     0.000617     Total SCF correction =     0.000039
     Energy error            =      7.0E-07
     Gradient error          =      3.6E-04

     bfgs converged in   9 scf cycles and   8 bfgs steps
     (criteria: energy <  7.3E-07 Ry, force <  3.9E-04 Ry/Bohr)

     End of BFGS Geometry Optimization

     Final energy   =  -21094.9624106889 Ry

     File ./Fe_NH_H_paper_480c_ESM_std.bfgs deleted, as requested
Begin final coordinates

ATOMIC_POSITIONS (angstrom)
Fe            1.6549129530        1.1702001330        0.0000000000    0   0   0
Fe            0.0000000000        0.0000000000        2.0269842320    0   0   0
Fe            4.9647388580        3.5106003990        0.0000000000    0   0   0
Fe            3.3098259060        2.3404002660        2.0269842320    0   0   0
Fe            1.6768458554        1.1694689318        4.0244548995
Fe            3.3213145816        9.3550713197        6.0025289199
Fe            4.9763400507        3.5248008878        4.0421769016
Fe            3.3701923168        2.3344770622        6.0106574094
Fe            2.4823638580        3.5106003990        0.0000000000    0   0   0
Fe            4.1372879530        1.1702001330        0.0000000000    0   0   0
Fe            0.8274509060        2.3404002660        2.0269842320    0   0   0
Fe            2.4823750000        0.0000000000        2.0269842320    0   0   0
Fe            2.4828645466        3.5097183395        4.0412421862
Fe            4.1617066441        1.1876205952        4.0331987006
Fe            0.8653804911        2.3213441997        5.9996029255
Fe            2.4977103806        0.0109564906        6.0114181671
Fe            6.6196629530        1.1702001330        0.0000000000    0   0   0
Fe            4.9647500000        0.0000000000        2.0269842320    0   0   0
Fe            9.9294888580        3.5106003990        0.0000000000    0   0   0
Fe            8.2745759060        2.3404002660        2.0269842320    0   0   0
Fe            6.6368398688        1.1764291451        4.0419798340
Fe            4.9792632359        0.0587579452        6.0109507787
Fe            9.9173060760        3.4951895623        4.0400253532
Fe            8.3657591295        2.2111477734        5.9855843353
Fe            7.4471138580        3.5106003990        0.0000000000    0   0   0
Fe            9.1020379530        1.1702001330        0.0000000000    0   0   0
Fe            5.7922009060        2.3404002660        2.0269842320    0   0   0
Fe            7.4471250000        0.0000000000        2.0269842320    0   0   0
Fe            7.4466801112        3.5100579915        4.0003709041
Fe            9.1207890831        1.1417489467        4.0133146495
Fe            5.8866258408        2.4068170141        6.0498456406
Fe           10.7703232128        9.3211891462        6.0001188418
Fe            3.3098147640        5.8510006640        0.0000000000    0   0   0
Fe            1.6549018110        4.6808005310        2.0269842320    0   0   0
Fe            6.6196406700        8.1914009300        0.0000000000    0   0   0
Fe            4.9647277170        7.0212007970        2.0269842320    0   0   0
Fe            3.2888357809        5.8516552568        4.0274025755
Fe           11.5254021061        4.6785317630        6.0071219008
Fe            6.6264166019        8.2123298287        4.0246011268
Fe            4.9625821155        7.0343376055        6.0023399623
Fe            4.1372656700        8.1914009300        0.0000000000    0   0   0
Fe            5.7921897640        5.8510006640        0.0000000000    0   0   0
Fe           12.4118527170        7.0212007970        2.0269842320    0   0   0
Fe            4.1372768110        4.6808005310        2.0269842320    0   0   0
Fe            4.1362829721        8.1908006212        4.0162167625
Fe            5.7717210847        5.8780519898        4.0133801917
Fe           12.3857159318        7.0026691674        6.0132409398
Fe            4.1037346631        4.7070607998        6.0006145832
Fe            8.2745647640        5.8510006640        0.0000000000    0   0   0
Fe            6.6196518110        4.6808005310        2.0269842320    0   0   0
Fe           11.5843906700        8.1914009300        0.0000000000    0   0   0
Fe            9.9294777170        7.0212007970        2.0269842320    0   0   0
Fe            8.2560096613        5.8446915108        4.0401550844
Fe            6.5284429109        4.8096184451        5.9854624788
Fe           11.5781175396        8.1713271517        4.0273090534
Fe            9.9079096029        6.9660056330        6.0069925730
Fe            9.1020156700        8.1914009300        0.0000000000    0   0   0
Fe           10.7569397640        5.8510006640        0.0000000000    0   0   0
Fe            7.4471027170        7.0212007970        2.0269842320    0   0   0
Fe            9.1020268110        4.6808005310        2.0269842320    0   0   0
Fe            9.1014808511        8.1923734466        4.0413047896
Fe           10.7319430085        5.8334047846        4.0310609872
Fe            7.4418817739        7.0632850736        5.9999738852
Fe            9.0098336668        4.6153010728        6.0490386631
N             7.4483658868        3.5113665236        6.9982006543
H             7.4500025987        3.5127423997        8.0265363081
H             4.5633146490        8.4927289510        6.9439847203
End final coordinates



     Writing output data file ./Fe_NH_H_paper_480c_ESM_std.save/

     init_run     :     30.56s CPU     31.64s WALL (       1 calls)
     electrons    :  16131.71s CPU  16429.31s WALL (       9 calls)
     update_pot   :     46.86s CPU     47.10s WALL (       8 calls)
     forces       :    161.20s CPU    163.76s WALL (       9 calls)

     Called by init_run:
     wfcinit      :     20.62s CPU     21.42s WALL (       1 calls)
     potinit      :      2.81s CPU      2.90s WALL (       1 calls)
     hinit0       :      5.17s CPU      5.27s WALL (       1 calls)

     Called by electrons:
     c_bands      :  14447.20s CPU  14688.24s WALL (     173 calls)
     sum_band     :    836.68s CPU    872.21s WALL (     173 calls)
     v_of_rho     :    147.00s CPU    148.78s WALL (     174 calls)
     newd         :     30.44s CPU     30.79s WALL (     174 calls)
     PAW_pot      :     33.43s CPU     33.75s WALL (     182 calls)
     mix_rho      :    597.05s CPU    608.04s WALL (     173 calls)

     Called by c_bands:
     init_us_2    :     75.11s CPU     80.20s WALL (    1092 calls)
     cegterg      :  12720.49s CPU  12888.59s WALL (     519 calls)

     Called by *egterg:
     cdiaghg      :   3003.32s CPU   3023.78s WALL (    3585 calls)
     h_psi        :   4092.78s CPU   4154.77s WALL (    3636 calls)
     s_psi        :   1060.33s CPU   1067.10s WALL (    3636 calls)
     g_psi        :     20.58s CPU     20.91s WALL (    3114 calls)

     Called by h_psi:
     h_psi:calbec :   1161.69s CPU   1169.18s WALL (    3636 calls)
     vloc_psi     :   1833.96s CPU   1855.00s WALL (    3636 calls)
     add_vuspsi   :   1063.99s CPU   1070.71s WALL (    3636 calls)

     General routines
     calbec       :   1657.82s CPU   1668.14s WALL (    4287 calls)
     fft          :     98.49s CPU     99.47s WALL (    4491 calls)
     ffts         :    270.22s CPU    272.70s WALL (  102134 calls)
     fftw         :   1984.03s CPU   2007.29s WALL ( 2169689 calls)
     interpolate  :     11.53s CPU     11.65s WALL (     348 calls)
     davcio       :      0.60s CPU     83.88s WALL (    4370 calls)

     Parallel routines
     fft_scatt_xy :    272.27s CPU    275.34s WALL ( 2276314 calls)
     fft_scatt_yz :   1096.20s CPU   1109.17s WALL ( 2276314 calls)

     PWSCF        :      4h33m CPU      4h38m WALL


   This run was terminated on:  22:20: 4   8Jul2022            

=------------------------------------------------------------------------------=
   JOB DONE.
=------------------------------------------------------------------------------=
