     Message from routine get_command_line:
     unexpected argument # 4     :-in

     Program PWSCF v.6.7MaX starts on  1Jul2022 at 13: 8:44 

     This program is part of the open-source Quantum ESPRESSO suite
     for quantum simulation of materials; please cite
         "P. Giannozzi et al., J. Phys.:Condens. Matter 21 395502 (2009);
         "P. Giannozzi et al., J. Phys.:Condens. Matter 29 465901 (2017);
          URL http://www.quantum-espresso.org", 
     in publications or presentations arising from this work. More details at
     http://www.quantum-espresso.org/quote

     Parallel version (MPI), running on   120 processors

     MPI processes distributed on     1 nodes
     K-points division:     npool     =       8
     R & G space division:  proc/nbgrp/npool/nimage =      15
     Waiting for input...
     Reading input from standard input
Warning: card &CELL ignored
Warning: card / ignored

     Current dimensions of program PWSCF are:
     Max number of different atomic species (ntypx) = 10
     Max number of k-points (npk) =  40000
     Max angular momentum in pseudopotentials (lmaxx) =  3

     IMPORTANT: XC functional enforced from input :
     Exchange-correlation= PBE
                           (   1   4   3   4   0   0   0)
     Any further DFT definition will be discarded
     Please, verify this is what you really want


     -------------------------------------------------
     Parameters for Dispersion (Grimme-D2) Correction:
     -------------------------------------------------
       atom      VdW radius       C_6     

        N          2.640         42.670
        H          1.892          4.857

     Subspace diagonalization in iterative solution of the eigenvalue problem:
     one sub-group per band group will be used
     scalapack distributed-memory algorithm (size of sub-group:  3*  3 procs)


     Parallelization info
     --------------------
     sticks:   dense  smooth     PW     G-vecs:    dense   smooth      PW
     Min        3636    1818    468               639190   225950   29545
     Max        3637    1819    470               639197   225953   29547
     Sum       54553   27281   7033              9587919  3389267  443191



     bravais-lattice index     =            0
     lattice parameter (alat)  =      37.7945  a.u.
     unit-cell volume          =   53986.6760 (a.u.)^3
     number of atoms/cell      =            3
     number of atomic types    =            2
     number of electrons       =         7.00
     number of Kohn-Sham states=            8
     kinetic-energy cutoff     =      60.0000  Ry
     charge density cutoff     =     480.0000  Ry
     scf convergence threshold =      1.0E-08
     mixing beta               =       0.7000
     number of iterations used =           10  plain     mixing
     energy convergence thresh.=      7.3E-07
     force convergence thresh. =      3.9E-04
     Exchange-correlation= PBE
                           (   1   4   3   4   0   0   0)
     nstep                     =           50


     Effective Screening Medium Method
     =================================
     Boundary Conditions: Metal-Slab-Metal
     field strength                   =     0.02 Ry/a.u.
     grid points for fit at edges     =        4 


     celldm(1)=  37.794522  celldm(2)=   0.000000  celldm(3)=   0.000000
     celldm(4)=   0.000000  celldm(5)=   0.000000  celldm(6)=   0.000000

     crystal axes: (cart. coord. in units of alat)
               a(1) = (   1.000000   0.000000   0.000000 )  
               a(2) = (   0.000000   1.000000   0.000000 )  
               a(3) = (   0.000000   0.000000   1.000000 )  

     reciprocal axes: (cart. coord. in units 2 pi/alat)
               b(1) = (  1.000000  0.000000  0.000000 )  
               b(2) = (  0.000000  1.000000  0.000000 )  
               b(3) = (  0.000000  0.000000  1.000000 )  


     PseudoPot. # 1 for N  read from file:
     ../../SSSP/N.pbe-n-radius_5.UPF
     MD5 check sum: 16739722b17309cd8fe442a2ace49922
     Pseudo is Ultrasoft + core correction, Zval =  5.0
     Generated using "atomic" code by A. Dal Corso  v.5.1
     Using radial grid of 1085 points,  4 beta functions with: 
                l(1) =   0
                l(2) =   0
                l(3) =   1
                l(4) =   1
     Q(r) pseudized with 0 coefficients 


     PseudoPot. # 2 for H  read from file:
     ../../SSSP/H.pbe-rrkjus_psl.1.0.0.UPF
     MD5 check sum: f52b6d4d1c606e5624b1dc7b2218f220
     Pseudo is Ultrasoft, Zval =  1.0
     Generated using "atomic" code by A. Dal Corso  v.5.1
     Using radial grid of  929 points,  2 beta functions with: 
                l(1) =   0
                l(2) =   0
     Q(r) pseudized with 0 coefficients 


     atomic species   valence    mass     pseudopotential
        N              5.00    14.00700     N ( 1.00)
        H              1.00     1.00800     H ( 1.00)

     Starting magnetic structure 
     atomic species   magnetization
        N            0.100
        H            0.100

     No symmetry found



   Cartesian axes

     site n.     atom                  positions (alat units)
         1           N   tau(   1) = (   0.5000000   0.5000000   0.0000000  )
         2           H   tau(   2) = (   0.5000000   0.5404449  -0.0324140  )
         3           H   tau(   3) = (   0.5000000   0.4595551  -0.0324140  )

     number of k points=    10  Methfessel-Paxton smearing, width (Ry)=  0.0100
                       cart. coord. in units 2pi/alat
        k(    1) = (   0.0000000   0.0000000   0.0000000), wk =   0.0625000
        k(    2) = (   0.0000000   0.2500000   0.0000000), wk =   0.1250000
        k(    3) = (   0.0000000  -0.5000000   0.0000000), wk =   0.0625000
        k(    4) = (   0.2500000   0.0000000   0.0000000), wk =   0.1250000
        k(    5) = (   0.2500000   0.2500000   0.0000000), wk =   0.1250000
        k(    6) = (   0.2500000  -0.5000000   0.0000000), wk =   0.1250000
        k(    7) = (   0.2500000  -0.2500000   0.0000000), wk =   0.1250000
        k(    8) = (  -0.5000000   0.0000000   0.0000000), wk =   0.0625000
        k(    9) = (  -0.5000000   0.2500000   0.0000000), wk =   0.1250000
        k(   10) = (  -0.5000000  -0.5000000   0.0000000), wk =   0.0625000

     Dense  grid:  9587919 G-vectors     FFT dimensions: ( 270, 270, 270)

     Smooth grid:  3389267 G-vectors     FFT dimensions: ( 192, 192, 192)

     Estimated max dynamical RAM per process >     388.03 MB

     Estimated total dynamical RAM >      45.47 GB
     Generating pointlists ...
     new r_m :   0.0214 (alat units)  0.8081 (a.u.) for type    1
     new r_m :   0.0214 (alat units)  0.8081 (a.u.) for type    2

     Initial potential from superposition of free atoms

     starting charge    6.99997, renormalised to    7.00000

     negative rho (up, down):  9.679E-05 7.919E-05
     Starting wfcs are    6 randomized atomic wfcs +    2 random wfcs

     total cpu time spent up to now is       22.3 secs

     Self-consistent Calculation

     iteration #  1     ecut=    60.00 Ry     beta= 0.70
     CG style diagonalization
     c_bands:  2 eigenvalues not converged
     c_bands:  3 eigenvalues not converged
     c_bands:  2 eigenvalues not converged
     ethr =  1.00E-04,  avg # of iterations = 13.1

     negative rho (up, down):  2.197E-04 1.459E-04

     total cpu time spent up to now is       59.2 secs

     total energy              =     -22.31666627 Ry
     estimated scf accuracy    <       0.32759654 Ry

     total magnetization       =     1.00 Bohr mag/cell
     absolute magnetization    =     1.01 Bohr mag/cell

     iteration #  2     ecut=    60.00 Ry     beta= 0.70
     CG style diagonalization
     ethr =  4.68E-03,  avg # of iterations =  3.4

     negative rho (up, down):  1.900E-04 1.761E-04

     total cpu time spent up to now is       77.8 secs

     total energy              =     -22.36211211 Ry
     estimated scf accuracy    <       0.11679709 Ry

     total magnetization       =     1.00 Bohr mag/cell
     absolute magnetization    =     1.05 Bohr mag/cell

     iteration #  3     ecut=    60.00 Ry     beta= 0.70
     CG style diagonalization
     ethr =  1.67E-03,  avg # of iterations =  3.4

     negative rho (up, down):  2.215E-04 1.624E-04

     total cpu time spent up to now is       96.5 secs

     total energy              =     -22.42040205 Ry
     estimated scf accuracy    <       0.00223891 Ry

     total magnetization       =     1.00 Bohr mag/cell
     absolute magnetization    =     1.05 Bohr mag/cell

     iteration #  4     ecut=    60.00 Ry     beta= 0.70
     CG style diagonalization
     ethr =  3.20E-05,  avg # of iterations =  6.3

     negative rho (up, down):  2.276E-04 1.581E-04

     total cpu time spent up to now is      121.0 secs

     total energy              =     -22.42131028 Ry
     estimated scf accuracy    <       0.00067080 Ry

     total magnetization       =     1.00 Bohr mag/cell
     absolute magnetization    =     1.07 Bohr mag/cell

     iteration #  5     ecut=    60.00 Ry     beta= 0.70
     CG style diagonalization
     ethr =  9.58E-06,  avg # of iterations =  5.4

     negative rho (up, down):  2.329E-04 1.623E-04

     total cpu time spent up to now is      143.7 secs

     total energy              =     -22.42126529 Ry
     estimated scf accuracy    <       0.00002431 Ry

     total magnetization       =     1.00 Bohr mag/cell
     absolute magnetization    =     1.07 Bohr mag/cell

     iteration #  6     ecut=    60.00 Ry     beta= 0.70
     CG style diagonalization
     ethr =  3.47E-07,  avg # of iterations =  6.4

     negative rho (up, down):  2.341E-04 1.633E-04

     total cpu time spent up to now is      168.4 secs

     total energy              =     -22.42128751 Ry
     estimated scf accuracy    <       0.00000907 Ry

     total magnetization       =     1.00 Bohr mag/cell
     absolute magnetization    =     1.07 Bohr mag/cell

     iteration #  7     ecut=    60.00 Ry     beta= 0.70
     CG style diagonalization
     ethr =  1.30E-07,  avg # of iterations =  4.5

     negative rho (up, down):  2.344E-04 1.631E-04

     total cpu time spent up to now is      189.5 secs

     total energy              =     -22.42129133 Ry
     estimated scf accuracy    <       0.00000079 Ry

     total magnetization       =     1.00 Bohr mag/cell
     absolute magnetization    =     1.07 Bohr mag/cell

     iteration #  8     ecut=    60.00 Ry     beta= 0.70
     CG style diagonalization
     ethr =  1.13E-08,  avg # of iterations =  3.9

     negative rho (up, down):  2.345E-04 1.629E-04

     total cpu time spent up to now is      209.7 secs

     total energy              =     -22.42129166 Ry
     estimated scf accuracy    <       0.00000004 Ry

     total magnetization       =     1.00 Bohr mag/cell
     absolute magnetization    =     1.07 Bohr mag/cell

     iteration #  9     ecut=    60.00 Ry     beta= 0.70
     CG style diagonalization
     ethr =  5.46E-10,  avg # of iterations =  4.2

     negative rho (up, down):  2.346E-04 1.629E-04

     total cpu time spent up to now is      230.7 secs

     total energy              =     -22.42129174 Ry
     estimated scf accuracy    <       0.00000014 Ry

     total magnetization       =     1.00 Bohr mag/cell
     absolute magnetization    =     1.07 Bohr mag/cell

     iteration # 10     ecut=    60.00 Ry     beta= 0.70
     CG style diagonalization
     ethr =  5.46E-10,  avg # of iterations =  3.5

     negative rho (up, down):  2.346E-04 1.629E-04

     total cpu time spent up to now is      250.0 secs

     total energy              =     -22.42129175 Ry
     estimated scf accuracy    <       0.00000002 Ry

     total magnetization       =     1.00 Bohr mag/cell
     absolute magnetization    =     1.07 Bohr mag/cell

     iteration # 11     ecut=    60.00 Ry     beta= 0.70
     CG style diagonalization
     ethr =  3.46E-10,  avg # of iterations =  3.5

     negative rho (up, down):  2.346E-04 1.628E-04

     Magnetic moment per site:
     atom:    1    charge:    1.3468    magn:    0.2677    constr:    0.0000
     atom:    2    charge:    0.4516    magn:   -0.0052    constr:    0.0000
     atom:    3    charge:    0.4516    magn:   -0.0052    constr:    0.0000

     total cpu time spent up to now is      267.2 secs

     End of self-consistent calculation

 ------ SPIN UP ------------


          k = 0.0000 0.0000 0.0000 (423701 PWs)   bands (ev):

   -17.0757  -7.4048  -3.7332  -3.4259   1.5835   1.9576   1.9588   1.9638

          k = 0.0000 0.2500 0.0000 (423725 PWs)   bands (ev):

   -17.0757  -7.4048  -3.7332  -3.4259   1.6076   1.7953   1.9832   1.9838

          k = 0.0000-0.5000 0.0000 (423542 PWs)   bands (ev):

   -17.0757  -7.4048  -3.7332  -3.4259   1.6742   1.6813   2.0521   2.0559

          k = 0.2500 0.0000 0.0000 (423725 PWs)   bands (ev):

   -17.0757  -7.4048  -3.7332  -3.4259   1.6069   1.7951   1.9836   1.9849

          k = 0.2500 0.2500 0.0000 (423766 PWs)   bands (ev):

   -17.0757  -7.4048  -3.7332  -3.4259   1.6306   1.8174   1.8211   2.0105

          k = 0.2500-0.5000 0.0000 (423782 PWs)   bands (ev):

   -17.0757  -7.4048  -3.7332  -3.4259   1.6974   1.7048   1.8854   1.8936

          k = 0.2500-0.2500 0.0000 (423766 PWs)   bands (ev):

   -17.0757  -7.4048  -3.7332  -3.4259   1.6307   1.8178   1.8201   2.0078

          k =-0.5000 0.0000 0.0000 (423542 PWs)   bands (ev):

   -17.0757  -7.4048  -3.7332  -3.4259   1.6767   1.6790   2.0540   2.0557

          k =-0.5000 0.2500 0.0000 (423782 PWs)   bands (ev):

   -17.0757  -7.4048  -3.7332  -3.4259   1.7004   1.7017   1.8889   1.8906

          k =-0.5000-0.5000 0.0000 (423708 PWs)   bands (ev):

   -17.0757  -7.4048  -3.7332  -3.4259   1.7676   1.7688   1.7728   1.7775

 ------ SPIN DOWN ----------


          k = 0.0000 0.0000 0.0000 (423701 PWs)   bands (ev):

   -15.8126  -7.0397  -3.1523  -0.2479   1.5865   1.9611   1.9622   1.9655

          k = 0.0000 0.2500 0.0000 (423725 PWs)   bands (ev):

   -15.8126  -7.0397  -3.1523  -0.2479   1.6093   1.7977   1.9859   1.9868

          k = 0.0000-0.5000 0.0000 (423542 PWs)   bands (ev):

   -15.8126  -7.0397  -3.1523  -0.2479   1.6761   1.6839   2.0524   2.0599

          k = 0.2500 0.0000 0.0000 (423725 PWs)   bands (ev):

   -15.8126  -7.0397  -3.1523  -0.2479   1.6093   1.7977   1.9865   1.9868

          k = 0.2500 0.2500 0.0000 (423766 PWs)   bands (ev):

   -15.8126  -7.0397  -3.1523  -0.2479   1.6327   1.8204   1.8221   2.0090

          k = 0.2500-0.5000 0.0000 (423782 PWs)   bands (ev):

   -15.8126  -7.0397  -3.1523  -0.2479   1.7000   1.7072   1.8882   1.8952

          k = 0.2500-0.2500 0.0000 (423766 PWs)   bands (ev):

   -15.8126  -7.0397  -3.1523  -0.2479   1.6328   1.8201   1.8225   2.0095

          k =-0.5000 0.0000 0.0000 (423542 PWs)   bands (ev):

   -15.8126  -7.0397  -3.1523  -0.2479   1.6800   1.6805   2.0563   2.0573

          k =-0.5000 0.2500 0.0000 (423782 PWs)   bands (ev):

   -15.8126  -7.0397  -3.1523  -0.2479   1.7029   1.7035   1.8915   1.8919

          k =-0.5000-0.5000 0.0000 (423708 PWs)   bands (ev):

   -15.8126  -7.0397  -3.1523  -0.2479   1.7686   1.7718   1.7770   1.7787

     the Fermi energy is    -3.0379 ev

!    total energy              =     -22.42129175 Ry
     estimated scf accuracy    <          2.5E-09 Ry
     smearing contrib. (-TS)   =       0.00029446 Ry
     internal energy E=F+TS    =     -22.42158622 Ry

     The total energy is F=E-TS. E is the sum of the following terms:
     one-electron contribution =     -50.95816850 Ry
     hartree contribution      =      27.51924474 Ry
     xc contribution           =      -6.71745154 Ry
     ewald contribution        =       7.73488743 Ry
     Dispersion Correction     =      -0.00009835 Ry

     total magnetization       =     1.00 Bohr mag/cell
     absolute magnetization    =     1.07 Bohr mag/cell

     convergence has been achieved in  11 iterations

     negative rho (up, down):  2.346E-04 1.628E-04

     Forces acting on atoms (cartesian axes, Ry/au):

     atom    1 type  1   force =    -0.00000005    0.00000004    0.00120105
     atom    2 type  2   force =     0.00000003   -0.00206895   -0.00059003
     atom    3 type  2   force =     0.00000002    0.00206890   -0.00059007

     Total force =     0.003043     Total SCF correction =     0.000022

     BFGS Geometry Optimization
     Energy error            =      0.0E+00
     Gradient error          =      2.1E-03

     number of scf cycles    =   1
     number of bfgs steps    =   0

     energy   new            =     -22.4212917548 Ry

     new trust radius        =       0.0021514373 bohr
     new conv_thr            =       0.0000000100 Ry


ATOMIC_POSITIONS (angstrom)
N            10.0000000000       10.0000000000        0.0000000000    0   0   0
H            10.0000000167       10.8078039473       -0.6485930866
H            10.0000000112        9.1921960804       -0.6485931061



     Writing output data file ./NH2_ESM_p25.save/
     NEW-OLD atomic charge density approx. for the potential

     negative rho (up, down):  1.789E-04 1.994E-04
     Generating pointlists ...

     total cpu time spent up to now is      289.8 secs

     Self-consistent Calculation

     iteration #  1     ecut=    60.00 Ry     beta= 0.70
     CG style diagonalization
     ethr =  1.00E-06,  avg # of iterations =  2.3

     Threshold (ethr) on eigenvalues was too large:
     Diagonalizing with lowered threshold

     CG style diagonalization
     ethr =  7.03E-09,  avg # of iterations =  2.5

     negative rho (up, down):  2.211E-04 1.717E-04

     total cpu time spent up to now is      314.0 secs

     total energy              =     -22.42129888 Ry
     estimated scf accuracy    <       0.00000065 Ry

     total magnetization       =     1.00 Bohr mag/cell
     absolute magnetization    =     1.07 Bohr mag/cell

     iteration #  2     ecut=    60.00 Ry     beta= 0.70
     CG style diagonalization
     ethr =  9.23E-09,  avg # of iterations =  3.5

     negative rho (up, down):  2.293E-04 1.667E-04

     total cpu time spent up to now is      332.8 secs

     total energy              =     -22.42129904 Ry
     estimated scf accuracy    <       0.00000009 Ry

     total magnetization       =     1.00 Bohr mag/cell
     absolute magnetization    =     1.07 Bohr mag/cell

     iteration #  3     ecut=    60.00 Ry     beta= 0.70
     CG style diagonalization
     ethr =  1.29E-09,  avg # of iterations =  3.4

     negative rho (up, down):  2.347E-04 1.630E-04

     Magnetic moment per site:
     atom:    1    charge:    1.3471    magn:    0.2677    constr:    0.0000
     atom:    2    charge:    0.4521    magn:   -0.0052    constr:    0.0000
     atom:    3    charge:    0.4521    magn:   -0.0052    constr:    0.0000

     total cpu time spent up to now is      349.8 secs

     End of self-consistent calculation

 ------ SPIN UP ------------


          k = 0.0000 0.0000 0.0000 (423701 PWs)   bands (ev):

   -17.0839  -7.4048  -3.7384  -3.4274   1.5834   1.9574   1.9586   1.9635

          k = 0.0000 0.2500 0.0000 (423725 PWs)   bands (ev):

   -17.0839  -7.4048  -3.7384  -3.4273   1.6073   1.7952   1.9831   1.9836

          k = 0.0000-0.5000 0.0000 (423542 PWs)   bands (ev):

   -17.0839  -7.4048  -3.7384  -3.4273   1.6740   1.6812   2.0519   2.0557

          k = 0.2500 0.0000 0.0000 (423725 PWs)   bands (ev):

   -17.0839  -7.4048  -3.7384  -3.4274   1.6068   1.7950   1.9834   1.9847

          k = 0.2500 0.2500 0.0000 (423766 PWs)   bands (ev):

   -17.0839  -7.4048  -3.7384  -3.4274   1.6305   1.8172   1.8207   2.0095

          k = 0.2500-0.5000 0.0000 (423782 PWs)   bands (ev):

   -17.0839  -7.4048  -3.7384  -3.4274   1.6973   1.7047   1.8853   1.8933

          k = 0.2500-0.2500 0.0000 (423766 PWs)   bands (ev):

   -17.0839  -7.4048  -3.7384  -3.4274   1.6305   1.8176   1.8199   2.0075

          k =-0.5000 0.0000 0.0000 (423542 PWs)   bands (ev):

   -17.0839  -7.4048  -3.7384  -3.4273   1.6765   1.6788   2.0538   2.0554

          k =-0.5000 0.2500 0.0000 (423782 PWs)   bands (ev):

   -17.0839  -7.4048  -3.7384  -3.4273   1.7002   1.7016   1.8886   1.8904

          k =-0.5000-0.5000 0.0000 (423708 PWs)   bands (ev):

   -17.0839  -7.4048  -3.7384  -3.4273   1.7674   1.7686   1.7727   1.7774

 ------ SPIN DOWN ----------


          k = 0.0000 0.0000 0.0000 (423701 PWs)   bands (ev):

   -15.8212  -7.0395  -3.1570  -0.2492   1.5865   1.9611   1.9621   1.9654

          k = 0.0000 0.2500 0.0000 (423725 PWs)   bands (ev):

   -15.8212  -7.0395  -3.1570  -0.2492   1.6093   1.7977   1.9858   1.9867

          k = 0.0000-0.5000 0.0000 (423542 PWs)   bands (ev):

   -15.8212  -7.0395  -3.1570  -0.2492   1.6761   1.6839   2.0524   2.0600

          k = 0.2500 0.0000 0.0000 (423725 PWs)   bands (ev):

   -15.8212  -7.0395  -3.1570  -0.2492   1.6093   1.7977   1.9864   1.9868

          k = 0.2500 0.2500 0.0000 (423766 PWs)   bands (ev):

   -15.8212  -7.0395  -3.1570  -0.2492   1.6328   1.8203   1.8222   2.0091

          k = 0.2500-0.5000 0.0000 (423782 PWs)   bands (ev):

   -15.8212  -7.0395  -3.1570  -0.2492   1.6999   1.7073   1.8881   1.8953

          k = 0.2500-0.2500 0.0000 (423766 PWs)   bands (ev):

   -15.8212  -7.0395  -3.1570  -0.2492   1.6329   1.8201   1.8225   2.0095

          k =-0.5000 0.0000 0.0000 (423542 PWs)   bands (ev):

   -15.8212  -7.0395  -3.1570  -0.2492   1.6799   1.6806   2.0563   2.0573

          k =-0.5000 0.2500 0.0000 (423782 PWs)   bands (ev):

   -15.8212  -7.0395  -3.1570  -0.2492   1.7029   1.7037   1.8915   1.8919

          k =-0.5000-0.5000 0.0000 (423708 PWs)   bands (ev):

   -15.8212  -7.0395  -3.1570  -0.2492   1.7686   1.7718   1.7770   1.7787

     the Fermi energy is    -3.0426 ev

!    total energy              =     -22.42129907 Ry
     estimated scf accuracy    <          5.6E-09 Ry
     smearing contrib. (-TS)   =       0.00029502 Ry
     internal energy E=F+TS    =     -22.42159408 Ry

     The total energy is F=E-TS. E is the sum of the following terms:
     one-electron contribution =     -50.97052256 Ry
     hartree contribution      =      27.52539963 Ry
     xc contribution           =      -6.71860842 Ry
     ewald contribution        =       7.74223436 Ry
     Dispersion Correction     =      -0.00009710 Ry

     total magnetization       =     1.00 Bohr mag/cell
     absolute magnetization    =     1.07 Bohr mag/cell

     convergence has been achieved in   3 iterations

     negative rho (up, down):  2.347E-04 1.630E-04

     Forces acting on atoms (cartesian axes, Ry/au):

     atom    1 type  1   force =     0.00000006    0.00000001    0.00194877
     atom    2 type  2   force =    -0.00000003   -0.00100476   -0.00097864
     atom    3 type  2   force =    -0.00000003    0.00100475   -0.00097865

     Total force =     0.001984     Total SCF correction =     0.000025
     Energy error            =      7.3E-06
     Gradient error          =      1.0E-03

     number of scf cycles    =   2
     number of bfgs steps    =   1

     energy   old            =     -22.4212917548 Ry
     energy   new            =     -22.4212990672 Ry

     CASE: energy  _new < energy  _old

     new trust radius        =       0.0023665810 bohr
     new conv_thr            =       0.0000000003 Ry


ATOMIC_POSITIONS (angstrom)
N            10.0000000000       10.0000000000        0.0000000000    0   0   0
H            10.0000000004       10.8068050505       -0.6493484423
H             9.9999999928        9.1931949627       -0.6493484733



     Writing output data file ./NH2_ESM_p25.save/
     NEW-OLD atomic charge density approx. for the potential

     negative rho (up, down):  1.790E-04 1.995E-04
     Generating pointlists ...

     total cpu time spent up to now is      371.3 secs

     Self-consistent Calculation

     iteration #  1     ecut=    60.00 Ry     beta= 0.70
     CG style diagonalization
     ethr =  1.00E-06,  avg # of iterations =  2.3

     Threshold (ethr) on eigenvalues was too large:
     Diagonalizing with lowered threshold

     CG style diagonalization
     ethr =  2.94E-09,  avg # of iterations =  2.8

     negative rho (up, down):  2.208E-04 1.715E-04

     total cpu time spent up to now is      395.7 secs

     total energy              =     -22.42130438 Ry
     estimated scf accuracy    <       0.00000026 Ry

     total magnetization       =     1.00 Bohr mag/cell
     absolute magnetization    =     1.07 Bohr mag/cell

     iteration #  2     ecut=    60.00 Ry     beta= 0.70
     CG style diagonalization
     ethr =  3.64E-09,  avg # of iterations =  3.2

     negative rho (up, down):  2.316E-04 1.644E-04

     total cpu time spent up to now is      413.8 secs

     total energy              =     -22.42130442 Ry
     estimated scf accuracy    <       0.00000002 Ry

     total magnetization       =     1.00 Bohr mag/cell
     absolute magnetization    =     1.07 Bohr mag/cell

     iteration #  3     ecut=    60.00 Ry     beta= 0.70
     CG style diagonalization
     ethr =  2.52E-10,  avg # of iterations =  3.4

     negative rho (up, down):  2.340E-04 1.634E-04

     total cpu time spent up to now is      432.4 secs

     total energy              =     -22.42130442 Ry
     estimated scf accuracy    <          1.5E-09 Ry

     total magnetization       =     1.00 Bohr mag/cell
     absolute magnetization    =     1.07 Bohr mag/cell

     iteration #  4     ecut=    60.00 Ry     beta= 0.70
     CG style diagonalization
     ethr =  2.18E-11,  avg # of iterations =  3.5

     negative rho (up, down):  2.348E-04 1.631E-04

     Magnetic moment per site:
     atom:    1    charge:    1.3472    magn:    0.2677    constr:    0.0000
     atom:    2    charge:    0.4524    magn:   -0.0052    constr:    0.0000
     atom:    3    charge:    0.4524    magn:   -0.0052    constr:    0.0000

     total cpu time spent up to now is      449.6 secs

     End of self-consistent calculation

 ------ SPIN UP ------------


          k = 0.0000 0.0000 0.0000 (423701 PWs)   bands (ev):

   -17.0886  -7.4002  -3.7439  -3.4277   1.5835   1.9575   1.9587   1.9635

          k = 0.0000 0.2500 0.0000 (423725 PWs)   bands (ev):

   -17.0886  -7.4002  -3.7439  -3.4277   1.6072   1.7952   1.9831   1.9836

          k = 0.0000-0.5000 0.0000 (423542 PWs)   bands (ev):

   -17.0886  -7.4002  -3.7439  -3.4277   1.6740   1.6812   2.0520   2.0558

          k = 0.2500 0.0000 0.0000 (423725 PWs)   bands (ev):

   -17.0886  -7.4002  -3.7439  -3.4277   1.6069   1.7950   1.9833   1.9847

          k = 0.2500 0.2500 0.0000 (423766 PWs)   bands (ev):

   -17.0886  -7.4002  -3.7439  -3.4277   1.6305   1.8173   1.8206   2.0090

          k = 0.2500-0.5000 0.0000 (423782 PWs)   bands (ev):

   -17.0886  -7.4002  -3.7439  -3.4277   1.6974   1.7047   1.8854   1.8932

          k = 0.2500-0.2500 0.0000 (423766 PWs)   bands (ev):

   -17.0886  -7.4002  -3.7439  -3.4277   1.6305   1.8175   1.8200   2.0075

          k =-0.5000 0.0000 0.0000 (423542 PWs)   bands (ev):

   -17.0886  -7.4002  -3.7439  -3.4276   1.6766   1.6787   2.0537   2.0554

          k =-0.5000 0.2500 0.0000 (423782 PWs)   bands (ev):

   -17.0886  -7.4002  -3.7439  -3.4277   1.7002   1.7017   1.8886   1.8903

          k =-0.5000-0.5000 0.0000 (423708 PWs)   bands (ev):

   -17.0886  -7.4002  -3.7439  -3.4277   1.7674   1.7686   1.7728   1.7774

 ------ SPIN DOWN ----------


          k = 0.0000 0.0000 0.0000 (423701 PWs)   bands (ev):

   -15.8262  -7.0347  -3.1620  -0.2495   1.5862   1.9610   1.9618   1.9651

          k = 0.0000 0.2500 0.0000 (423725 PWs)   bands (ev):

   -15.8262  -7.0347  -3.1621  -0.2495   1.6092   1.7976   1.9856   1.9865

          k = 0.0000-0.5000 0.0000 (423542 PWs)   bands (ev):

   -15.8262  -7.0347  -3.1620  -0.2495   1.6760   1.6838   2.0523   2.0598

          k = 0.2500 0.0000 0.0000 (423725 PWs)   bands (ev):

   -15.8262  -7.0347  -3.1620  -0.2495   1.6092   1.7975   1.9860   1.9866

          k = 0.2500 0.2500 0.0000 (423766 PWs)   bands (ev):

   -15.8262  -7.0347  -3.1621  -0.2495   1.6327   1.8200   1.8220   2.0089

          k = 0.2500-0.5000 0.0000 (423782 PWs)   bands (ev):

   -15.8262  -7.0347  -3.1621  -0.2495   1.6997   1.7072   1.8879   1.8952

          k = 0.2500-0.2500 0.0000 (423766 PWs)   bands (ev):

   -15.8262  -7.0347  -3.1621  -0.2495   1.6327   1.8199   1.8223   2.0093

          k =-0.5000 0.0000 0.0000 (423542 PWs)   bands (ev):

   -15.8262  -7.0347  -3.1620  -0.2495   1.6798   1.6803   2.0561   2.0570

          k =-0.5000 0.2500 0.0000 (423782 PWs)   bands (ev):

   -15.8262  -7.0347  -3.1621  -0.2495   1.7029   1.7035   1.8913   1.8917

          k =-0.5000-0.5000 0.0000 (423708 PWs)   bands (ev):

   -15.8262  -7.0347  -3.1621  -0.2495   1.7685   1.7715   1.7768   1.7786

     the Fermi energy is    -3.0477 ev

!    total energy              =     -22.42130442 Ry
     estimated scf accuracy    <          1.7E-10 Ry
     smearing contrib. (-TS)   =       0.00029595 Ry
     internal energy E=F+TS    =     -22.42160037 Ry

     The total energy is F=E-TS. E is the sum of the following terms:
     one-electron contribution =     -50.97657729 Ry
     hartree contribution      =      27.52818564 Ry
     xc contribution           =      -6.71910727 Ry
     ewald contribution        =       7.74599454 Ry
     Dispersion Correction     =      -0.00009598 Ry

     total magnetization       =     1.00 Bohr mag/cell
     absolute magnetization    =     1.07 Bohr mag/cell

     convergence has been achieved in   4 iterations

     negative rho (up, down):  2.348E-04 1.631E-04

     Forces acting on atoms (cartesian axes, Ry/au):

     atom    1 type  1   force =     0.00000000   -0.00000001    0.00205076
     atom    2 type  2   force =    -0.00000000   -0.00029922   -0.00102668
     atom    3 type  2   force =    -0.00000000    0.00029923   -0.00102667

     Total force =     0.001512     Total SCF correction =     0.000005
     Energy error            =      5.4E-06
     Gradient error          =      1.0E-03

     number of scf cycles    =   3
     number of bfgs steps    =   2

     energy   old            =     -22.4212990672 Ry
     energy   new            =     -22.4213044216 Ry

     CASE: energy  _new < energy  _old

     new trust radius        =       0.0035498715 bohr
     new conv_thr            =       0.0000000003 Ry


ATOMIC_POSITIONS (angstrom)
N            10.0000000000       10.0000000000        0.0000000000    0   0   0
H            10.0000000042       10.8055876998       -0.6507791279
H             9.9999999930        9.1944123066       -0.6507791645



     Writing output data file ./NH2_ESM_p25.save/
     NEW-OLD atomic charge density approx. for the potential

     negative rho (up, down):  1.790E-04 1.996E-04
     Generating pointlists ...

     total cpu time spent up to now is      471.7 secs

     Self-consistent Calculation

     iteration #  1     ecut=    60.00 Ry     beta= 0.70
     CG style diagonalization
     ethr =  1.00E-06,  avg # of iterations =  2.4

     Threshold (ethr) on eigenvalues was too large:
     Diagonalizing with lowered threshold

     CG style diagonalization
     ethr =  5.99E-09,  avg # of iterations =  2.6

     negative rho (up, down):  2.208E-04 1.715E-04

     total cpu time spent up to now is      496.2 secs

     total energy              =     -22.42130916 Ry
     estimated scf accuracy    <       0.00000043 Ry

     total magnetization       =     1.00 Bohr mag/cell
     absolute magnetization    =     1.08 Bohr mag/cell

     iteration #  2     ecut=    60.00 Ry     beta= 0.70
     CG style diagonalization
     ethr =  6.20E-09,  avg # of iterations =  3.2

     negative rho (up, down):  2.319E-04 1.641E-04

     total cpu time spent up to now is      514.3 secs

     total energy              =     -22.42130924 Ry
     estimated scf accuracy    <       0.00000004 Ry

     total magnetization       =     1.00 Bohr mag/cell
     absolute magnetization    =     1.08 Bohr mag/cell

     iteration #  3     ecut=    60.00 Ry     beta= 0.70
     CG style diagonalization
     ethr =  6.18E-10,  avg # of iterations =  3.4

     negative rho (up, down):  2.341E-04 1.632E-04

     total cpu time spent up to now is      532.9 secs

     total energy              =     -22.42130925 Ry
     estimated scf accuracy    <          4.3E-09 Ry

     total magnetization       =     1.00 Bohr mag/cell
     absolute magnetization    =     1.08 Bohr mag/cell

     iteration #  4     ecut=    60.00 Ry     beta= 0.70
     CG style diagonalization
     ethr =  6.21E-11,  avg # of iterations =  3.4

     negative rho (up, down):  2.347E-04 1.631E-04

     total cpu time spent up to now is      551.6 secs

     total energy              =     -22.42130925 Ry
     estimated scf accuracy    <          5.2E-10 Ry

     total magnetization       =     1.00 Bohr mag/cell
     absolute magnetization    =     1.08 Bohr mag/cell

     iteration #  5     ecut=    60.00 Ry     beta= 0.70
     CG style diagonalization
     ethr =  7.43E-12,  avg # of iterations =  3.5

     negative rho (up, down):  2.348E-04 1.631E-04

     Magnetic moment per site:
     atom:    1    charge:    1.3472    magn:    0.2677    constr:    0.0000
     atom:    2    charge:    0.4525    magn:   -0.0052    constr:    0.0000
     atom:    3    charge:    0.4525    magn:   -0.0052    constr:    0.0000

     total cpu time spent up to now is      568.8 secs

     End of self-consistent calculation

 ------ SPIN UP ------------


          k = 0.0000 0.0000 0.0000 (423701 PWs)   bands (ev):

   -17.0925  -7.3905  -3.7529  -3.4282   1.5835   1.9575   1.9588   1.9634

          k = 0.0000 0.2500 0.0000 (423725 PWs)   bands (ev):

   -17.0925  -7.3905  -3.7529  -3.4282   1.6071   1.7952   1.9831   1.9835

          k = 0.0000-0.5000 0.0000 (423542 PWs)   bands (ev):

   -17.0925  -7.3905  -3.7529  -3.4282   1.6740   1.6812   2.0519   2.0558

          k = 0.2500 0.0000 0.0000 (423725 PWs)   bands (ev):

   -17.0925  -7.3905  -3.7529  -3.4282   1.6070   1.7950   1.9832   1.9846

          k = 0.2500 0.2500 0.0000 (423766 PWs)   bands (ev):

   -17.0925  -7.3905  -3.7529  -3.4282   1.6305   1.8173   1.8204   2.0087

          k = 0.2500-0.5000 0.0000 (423782 PWs)   bands (ev):

   -17.0925  -7.3905  -3.7530  -3.4282   1.6974   1.7047   1.8854   1.8931

          k = 0.2500-0.2500 0.0000 (423766 PWs)   bands (ev):

   -17.0925  -7.3905  -3.7529  -3.4282   1.6305   1.8175   1.8200   2.0074

          k =-0.5000 0.0000 0.0000 (423542 PWs)   bands (ev):

   -17.0925  -7.3905  -3.7529  -3.4282   1.6767   1.6786   2.0536   2.0553

          k =-0.5000 0.2500 0.0000 (423782 PWs)   bands (ev):

   -17.0925  -7.3905  -3.7530  -3.4282   1.7002   1.7017   1.8885   1.8902

          k =-0.5000-0.5000 0.0000 (423708 PWs)   bands (ev):

   -17.0925  -7.3905  -3.7529  -3.4282   1.7674   1.7686   1.7729   1.7774

 ------ SPIN DOWN ----------


          k = 0.0000 0.0000 0.0000 (423701 PWs)   bands (ev):

   -15.8303  -7.0248  -3.1704  -0.2500   1.5861   1.9610   1.9616   1.9650

          k = 0.0000 0.2500 0.0000 (423725 PWs)   bands (ev):

   -15.8303  -7.0248  -3.1704  -0.2500   1.6092   1.7976   1.9855   1.9864

          k = 0.0000-0.5000 0.0000 (423542 PWs)   bands (ev):

   -15.8303  -7.0248  -3.1704  -0.2500   1.6760   1.6838   2.0523   2.0598

          k = 0.2500 0.0000 0.0000 (423725 PWs)   bands (ev):

   -15.8303  -7.0248  -3.1704  -0.2500   1.6093   1.7975   1.9858   1.9865

          k = 0.2500 0.2500 0.0000 (423766 PWs)   bands (ev):

   -15.8303  -7.0248  -3.1704  -0.2500   1.6327   1.8199   1.8221   2.0090

          k = 0.2500-0.5000 0.0000 (423782 PWs)   bands (ev):

   -15.8303  -7.0248  -3.1704  -0.2500   1.6996   1.7072   1.8878   1.8952

          k = 0.2500-0.2500 0.0000 (423766 PWs)   bands (ev):

   -15.8303  -7.0248  -3.1704  -0.2500   1.6327   1.8198   1.8223   2.0093

          k =-0.5000 0.0000 0.0000 (423542 PWs)   bands (ev):

   -15.8303  -7.0248  -3.1704  -0.2500   1.6797   1.6803   2.0560   2.0570

          k =-0.5000 0.2500 0.0000 (423782 PWs)   bands (ev):

   -15.8303  -7.0248  -3.1704  -0.2500   1.7029   1.7035   1.8913   1.8917

          k =-0.5000-0.5000 0.0000 (423708 PWs)   bands (ev):

   -15.8303  -7.0248  -3.1704  -0.2500   1.7685   1.7715   1.7768   1.7786

     the Fermi energy is    -3.0561 ev

!    total energy              =     -22.42130925 Ry
     estimated scf accuracy    <          9.3E-12 Ry
     smearing contrib. (-TS)   =       0.00029782 Ry
     internal energy E=F+TS    =     -22.42160707 Ry

     The total energy is F=E-TS. E is the sum of the following terms:
     one-electron contribution =     -50.97880451 Ry
     hartree contribution      =      27.52919511 Ry
     xc contribution           =      -6.71926544 Ry
     ewald contribution        =       7.74736242 Ry
     Dispersion Correction     =      -0.00009464 Ry

     total magnetization       =     1.00 Bohr mag/cell
     absolute magnetization    =     1.08 Bohr mag/cell

     convergence has been achieved in   5 iterations

     negative rho (up, down):  2.348E-04 1.631E-04

     Forces acting on atoms (cartesian axes, Ry/au):

     atom    1 type  1   force =     0.00000000   -0.00000002    0.00149519
     atom    2 type  2   force =    -0.00000000    0.00029129   -0.00074733
     atom    3 type  2   force =    -0.00000000   -0.00029127   -0.00074731

     Total force =     0.001134     Total SCF correction =     0.000001
     Energy error            =      4.8E-06
     Gradient error          =      7.5E-04

     number of scf cycles    =   4
     number of bfgs steps    =   3

     energy   old            =     -22.4213044216 Ry
     energy   new            =     -22.4213092456 Ry

     CASE: energy  _new < energy  _old

     new trust radius        =       0.0026049035 bohr
     new conv_thr            =       0.0000000002 Ry


ATOMIC_POSITIONS (angstrom)
N            10.0000000000       10.0000000000        0.0000000000    0   0   0
H            10.0000000114       10.8049575308       -0.6520051078
H             9.9999999966        9.1950424808       -0.6520051405



     Writing output data file ./NH2_ESM_p25.save/
     NEW-OLD atomic charge density approx. for the potential

     negative rho (up, down):  1.790E-04 1.996E-04
     Generating pointlists ...

     total cpu time spent up to now is      590.8 secs

     Self-consistent Calculation

     iteration #  1     ecut=    60.00 Ry     beta= 0.70
     CG style diagonalization
     ethr =  1.00E-06,  avg # of iterations =  2.2

     Threshold (ethr) on eigenvalues was too large:
     Diagonalizing with lowered threshold

     CG style diagonalization
     ethr =  3.77E-09,  avg # of iterations =  2.8

     negative rho (up, down):  2.208E-04 1.715E-04

     total cpu time spent up to now is      615.4 secs

     total energy              =     -22.42131077 Ry
     estimated scf accuracy    <       0.00000042 Ry

     total magnetization       =     1.00 Bohr mag/cell
     absolute magnetization    =     1.08 Bohr mag/cell

     iteration #  2     ecut=    60.00 Ry     beta= 0.70
     CG style diagonalization
     ethr =  6.07E-09,  avg # of iterations =  3.4

     negative rho (up, down):  2.289E-04 1.671E-04

     total cpu time spent up to now is      634.0 secs

     total energy              =     -22.42131083 Ry
     estimated scf accuracy    <       0.00000012 Ry

     total magnetization       =     1.00 Bohr mag/cell
     absolute magnetization    =     1.08 Bohr mag/cell

     iteration #  3     ecut=    60.00 Ry     beta= 0.70
     CG style diagonalization
     ethr =  1.75E-09,  avg # of iterations =  3.4

     negative rho (up, down):  2.341E-04 1.631E-04

     total cpu time spent up to now is      652.7 secs

     total energy              =     -22.42131089 Ry
     estimated scf accuracy    <          7.1E-09 Ry

     total magnetization       =     1.00 Bohr mag/cell
     absolute magnetization    =     1.08 Bohr mag/cell

     iteration #  4     ecut=    60.00 Ry     beta= 0.70
     CG style diagonalization
     ethr =  1.01E-10,  avg # of iterations =  3.1

     negative rho (up, down):  2.346E-04 1.630E-04

     total cpu time spent up to now is      670.7 secs

     total energy              =     -22.42131089 Ry
     estimated scf accuracy    <          3.4E-10 Ry

     total magnetization       =     1.00 Bohr mag/cell
     absolute magnetization    =     1.08 Bohr mag/cell

     iteration #  5     ecut=    60.00 Ry     beta= 0.70
     CG style diagonalization
     ethr =  4.91E-12,  avg # of iterations =  3.4

     negative rho (up, down):  2.348E-04 1.630E-04

     Magnetic moment per site:
     atom:    1    charge:    1.3470    magn:    0.2678    constr:    0.0000
     atom:    2    charge:    0.4524    magn:   -0.0052    constr:    0.0000
     atom:    3    charge:    0.4524    magn:   -0.0052    constr:    0.0000

     total cpu time spent up to now is      687.7 secs

     End of self-consistent calculation

 ------ SPIN UP ------------


          k = 0.0000 0.0000 0.0000 (423701 PWs)   bands (ev):

   -17.0924  -7.3813  -3.7594  -3.4282   1.5835   1.9575   1.9588   1.9633

          k = 0.0000 0.2500 0.0000 (423725 PWs)   bands (ev):

   -17.0924  -7.3813  -3.7594  -3.4282   1.6071   1.7952   1.9831   1.9835

          k = 0.0000-0.5000 0.0000 (423542 PWs)   bands (ev):

   -17.0924  -7.3813  -3.7594  -3.4282   1.6740   1.6812   2.0519   2.0558

          k = 0.2500 0.0000 0.0000 (423725 PWs)   bands (ev):

   -17.0924  -7.3813  -3.7594  -3.4282   1.6070   1.7950   1.9831   1.9845

          k = 0.2500 0.2500 0.0000 (423766 PWs)   bands (ev):

   -17.0924  -7.3813  -3.7594  -3.4282   1.6305   1.8173   1.8203   2.0084

          k = 0.2500-0.5000 0.0000 (423782 PWs)   bands (ev):

   -17.0924  -7.3813  -3.7594  -3.4282   1.6974   1.7047   1.8855   1.8930

          k = 0.2500-0.2500 0.0000 (423766 PWs)   bands (ev):

   -17.0924  -7.3813  -3.7594  -3.4282   1.6305   1.8174   1.8200   2.0073

          k =-0.5000 0.0000 0.0000 (423542 PWs)   bands (ev):

   -17.0924  -7.3813  -3.7594  -3.4282   1.6767   1.6785   2.0535   2.0553

          k =-0.5000 0.2500 0.0000 (423782 PWs)   bands (ev):

   -17.0924  -7.3813  -3.7594  -3.4282   1.7002   1.7018   1.8885   1.8902

          k =-0.5000-0.5000 0.0000 (423708 PWs)   bands (ev):

   -17.0924  -7.3813  -3.7594  -3.4282   1.7674   1.7685   1.7729   1.7775

 ------ SPIN DOWN ----------


          k = 0.0000 0.0000 0.0000 (423701 PWs)   bands (ev):

   -15.8302  -7.0155  -3.1764  -0.2498   1.5860   1.9610   1.9615   1.9649

          k = 0.0000 0.2500 0.0000 (423725 PWs)   bands (ev):

   -15.8302  -7.0155  -3.1764  -0.2498   1.6093   1.7975   1.9855   1.9862

          k = 0.0000-0.5000 0.0000 (423542 PWs)   bands (ev):

   -15.8302  -7.0155  -3.1764  -0.2498   1.6760   1.6838   2.0523   2.0598

          k = 0.2500 0.0000 0.0000 (423725 PWs)   bands (ev):

   -15.8302  -7.0155  -3.1764  -0.2498   1.6093   1.7974   1.9857   1.9865

          k = 0.2500 0.2500 0.0000 (423766 PWs)   bands (ev):

   -15.8302  -7.0155  -3.1764  -0.2498   1.6327   1.8199   1.8221   2.0090

          k = 0.2500-0.5000 0.0000 (423782 PWs)   bands (ev):

   -15.8302  -7.0155  -3.1764  -0.2498   1.6996   1.7072   1.8877   1.8952

          k = 0.2500-0.2500 0.0000 (423766 PWs)   bands (ev):

   -15.8302  -7.0155  -3.1764  -0.2498   1.6328   1.8198   1.8222   2.0093

          k =-0.5000 0.0000 0.0000 (423542 PWs)   bands (ev):

   -15.8302  -7.0155  -3.1764  -0.2498   1.6797   1.6802   2.0559   2.0569

          k =-0.5000 0.2500 0.0000 (423782 PWs)   bands (ev):

   -15.8302  -7.0155  -3.1764  -0.2498   1.7029   1.7036   1.8913   1.8917

          k =-0.5000-0.5000 0.0000 (423708 PWs)   bands (ev):

   -15.8302  -7.0155  -3.1764  -0.2498   1.7686   1.7715   1.7768   1.7786

     the Fermi energy is    -3.0622 ev

!    total energy              =     -22.42131089 Ry
     estimated scf accuracy    <          2.8E-11 Ry
     smearing contrib. (-TS)   =       0.00029957 Ry
     internal energy E=F+TS    =     -22.42161046 Ry

     The total energy is F=E-TS. E is the sum of the following terms:
     one-electron contribution =     -50.97486056 Ry
     hartree contribution      =      27.52720033 Ry
     xc contribution           =      -6.71886616 Ry
     ewald contribution        =       7.74500990 Ry
     Dispersion Correction     =      -0.00009396 Ry

     total magnetization       =     1.00 Bohr mag/cell
     absolute magnetization    =     1.08 Bohr mag/cell

     convergence has been achieved in   5 iterations

     negative rho (up, down):  2.348E-04 1.630E-04

     Forces acting on atoms (cartesian axes, Ry/au):

     atom    1 type  1   force =     0.00000000   -0.00000001    0.00056227
     atom    2 type  2   force =    -0.00000000    0.00033464   -0.00028186
     atom    3 type  2   force =    -0.00000000   -0.00033463   -0.00028185

     Total force =     0.000619     Total SCF correction =     0.000001
     Energy error            =      1.6E-06
     Gradient error          =      3.3E-04

     number of scf cycles    =   5
     number of bfgs steps    =   4

     energy   old            =     -22.4213092456 Ry
     energy   new            =     -22.4213108900 Ry

     CASE: energy  _new < energy  _old

     new trust radius        =       0.0005585767 bohr
     new conv_thr            =            1.0E-10 Ry


ATOMIC_POSITIONS (angstrom)
N            10.0000000000       10.0000000000        0.0000000000    0   0   0
H            10.0000000146       10.8049967218       -0.6522980842
H             9.9999999987        9.1950032958       -0.6522981121



     Writing output data file ./NH2_ESM_p25.save/
     NEW-OLD atomic charge density approx. for the potential

     negative rho (up, down):  1.787E-04 1.993E-04
     Generating pointlists ...

     total cpu time spent up to now is      709.7 secs

     Self-consistent Calculation

     iteration #  1     ecut=    60.00 Ry     beta= 0.70
     CG style diagonalization
     ethr =  1.00E-06,  avg # of iterations =  2.0

     Threshold (ethr) on eigenvalues was too large:
     Diagonalizing with lowered threshold

     CG style diagonalization
     ethr =  3.98E-10,  avg # of iterations =  3.1

     negative rho (up, down):  2.207E-04 1.713E-04

     total cpu time spent up to now is      734.5 secs

     total energy              =     -22.42131109 Ry
     estimated scf accuracy    <       0.00000008 Ry

     total magnetization       =     1.00 Bohr mag/cell
     absolute magnetization    =     1.08 Bohr mag/cell

     iteration #  2     ecut=    60.00 Ry     beta= 0.70
     CG style diagonalization
     ethr =  1.20E-09,  avg # of iterations =  3.4

     negative rho (up, down):  2.283E-04 1.675E-04

     total cpu time spent up to now is      753.1 secs

     total energy              =     -22.42131110 Ry
     estimated scf accuracy    <       0.00000003 Ry

     total magnetization       =     1.00 Bohr mag/cell
     absolute magnetization    =     1.08 Bohr mag/cell

     iteration #  3     ecut=    60.00 Ry     beta= 0.70
     CG style diagonalization
     ethr =  4.63E-10,  avg # of iterations =  3.4

     negative rho (up, down):  2.336E-04 1.635E-04

     total cpu time spent up to now is      771.8 secs

     total energy              =     -22.42131112 Ry
     estimated scf accuracy    <          4.7E-10 Ry

     total magnetization       =     1.00 Bohr mag/cell
     absolute magnetization    =     1.08 Bohr mag/cell

     iteration #  4     ecut=    60.00 Ry     beta= 0.70
     CG style diagonalization
     ethr =  6.71E-12,  avg # of iterations =  3.4

     negative rho (up, down):  2.344E-04 1.631E-04

     total cpu time spent up to now is      790.5 secs

     total energy              =     -22.42131112 Ry
     estimated scf accuracy    <          1.4E-10 Ry

     total magnetization       =     1.00 Bohr mag/cell
     absolute magnetization    =     1.08 Bohr mag/cell

     iteration #  5     ecut=    60.00 Ry     beta= 0.70
     CG style diagonalization
     ethr =  2.02E-12,  avg # of iterations =  3.3

     negative rho (up, down):  2.347E-04 1.630E-04

     Magnetic moment per site:
     atom:    1    charge:    1.3469    magn:    0.2678    constr:    0.0000
     atom:    2    charge:    0.4522    magn:   -0.0052    constr:    0.0000
     atom:    3    charge:    0.4522    magn:   -0.0052    constr:    0.0000

     total cpu time spent up to now is      807.2 secs

     End of self-consistent calculation

 ------ SPIN UP ------------


          k = 0.0000 0.0000 0.0000 (423701 PWs)   bands (ev):

   -17.0908  -7.3787  -3.7603  -3.4280   1.5835   1.9575   1.9588   1.9632

          k = 0.0000 0.2500 0.0000 (423725 PWs)   bands (ev):

   -17.0908  -7.3787  -3.7603  -3.4280   1.6070   1.7952   1.9830   1.9835

          k = 0.0000-0.5000 0.0000 (423542 PWs)   bands (ev):

   -17.0908  -7.3787  -3.7603  -3.4280   1.6740   1.6812   2.0519   2.0558

          k = 0.2500 0.0000 0.0000 (423725 PWs)   bands (ev):

   -17.0908  -7.3787  -3.7603  -3.4280   1.6070   1.7950   1.9830   1.9844

          k = 0.2500 0.2500 0.0000 (423766 PWs)   bands (ev):

   -17.0908  -7.3787  -3.7603  -3.4280   1.6305   1.8172   1.8202   2.0081

          k = 0.2500-0.5000 0.0000 (423782 PWs)   bands (ev):

   -17.0908  -7.3787  -3.7603  -3.4280   1.6974   1.7047   1.8855   1.8929

          k = 0.2500-0.2500 0.0000 (423766 PWs)   bands (ev):

   -17.0908  -7.3787  -3.7603  -3.4280   1.6305   1.8173   1.8200   2.0072

          k =-0.5000 0.0000 0.0000 (423542 PWs)   bands (ev):

   -17.0908  -7.3787  -3.7603  -3.4280   1.6767   1.6785   2.0535   2.0553

          k =-0.5000 0.2500 0.0000 (423782 PWs)   bands (ev):

   -17.0908  -7.3787  -3.7603  -3.4280   1.7002   1.7018   1.8884   1.8902

          k =-0.5000-0.5000 0.0000 (423708 PWs)   bands (ev):

   -17.0908  -7.3787  -3.7603  -3.4280   1.7674   1.7685   1.7729   1.7774

 ------ SPIN DOWN ----------


          k = 0.0000 0.0000 0.0000 (423701 PWs)   bands (ev):

   -15.8285  -7.0129  -3.1773  -0.2496   1.5860   1.9610   1.9614   1.9648

          k = 0.0000 0.2500 0.0000 (423725 PWs)   bands (ev):

   -15.8285  -7.0129  -3.1773  -0.2496   1.6093   1.7975   1.9854   1.9862

          k = 0.0000-0.5000 0.0000 (423542 PWs)   bands (ev):

   -15.8285  -7.0129  -3.1773  -0.2496   1.6760   1.6838   2.0523   2.0598

          k = 0.2500 0.0000 0.0000 (423725 PWs)   bands (ev):

   -15.8285  -7.0129  -3.1773  -0.2496   1.6093   1.7974   1.9855   1.9864

          k = 0.2500 0.2500 0.0000 (423766 PWs)   bands (ev):

   -15.8285  -7.0129  -3.1773  -0.2496   1.6328   1.8198   1.8221   2.0090

          k = 0.2500-0.5000 0.0000 (423782 PWs)   bands (ev):

   -15.8285  -7.0129  -3.1773  -0.2496   1.6996   1.7072   1.8877   1.8952

          k = 0.2500-0.2500 0.0000 (423766 PWs)   bands (ev):

   -15.8285  -7.0129  -3.1773  -0.2496   1.6328   1.8198   1.8222   2.0092

          k =-0.5000 0.0000 0.0000 (423542 PWs)   bands (ev):

   -15.8285  -7.0129  -3.1773  -0.2496   1.6796   1.6802   2.0558   2.0569

          k =-0.5000 0.2500 0.0000 (423782 PWs)   bands (ev):

   -15.8285  -7.0129  -3.1773  -0.2496   1.7030   1.7036   1.8913   1.8917

          k =-0.5000-0.5000 0.0000 (423708 PWs)   bands (ev):

   -15.8285  -7.0129  -3.1773  -0.2496   1.7686   1.7715   1.7768   1.7786

     the Fermi energy is    -3.0631 ev

!    total energy              =     -22.42131112 Ry
     estimated scf accuracy    <          3.9E-12 Ry
     smearing contrib. (-TS)   =       0.00029991 Ry
     internal energy E=F+TS    =     -22.42161103 Ry

     The total energy is F=E-TS. E is the sum of the following terms:
     one-electron contribution =     -50.97126198 Ry
     hartree contribution      =      27.52543699 Ry
     xc contribution           =      -6.71853007 Ry
     ewald contribution        =       7.74283804 Ry
     Dispersion Correction     =      -0.00009401 Ry

     total magnetization       =     1.00 Bohr mag/cell
     absolute magnetization    =     1.08 Bohr mag/cell

     convergence has been achieved in   5 iterations

     negative rho (up, down):  2.347E-04 1.630E-04

     Forces acting on atoms (cartesian axes, Ry/au):

     atom    1 type  1   force =     0.00000000   -0.00000000    0.00013331
     atom    2 type  2   force =    -0.00000000    0.00013180   -0.00006733
     atom    3 type  2   force =    -0.00000000   -0.00013179   -0.00006733

     Total force =     0.000209     Total SCF correction =     0.000001
     Energy error            =      2.3E-07
     Gradient error          =      1.3E-04

     bfgs converged in   6 scf cycles and   5 bfgs steps
     (criteria: energy <  7.3E-07 Ry, force <  3.9E-04 Ry/Bohr)

     End of BFGS Geometry Optimization

     Final energy   =     -22.4213111168 Ry

     File ./NH2_ESM_p25.bfgs deleted, as requested
Begin final coordinates

ATOMIC_POSITIONS (angstrom)
N            10.0000000000       10.0000000000        0.0000000000    0   0   0
H            10.0000000146       10.8049967218       -0.6522980842
H             9.9999999987        9.1950032958       -0.6522981121
End final coordinates



     Writing output data file ./NH2_ESM_p25.save/

     init_run     :     20.60s CPU     22.09s WALL (       1 calls)
     electrons    :    640.89s CPU    686.39s WALL (       6 calls)
     update_pot   :     39.47s CPU     41.80s WALL (       5 calls)
     forces       :     52.17s CPU     55.77s WALL (       6 calls)

     Called by init_run:
     wfcinit      :      1.48s CPU      1.86s WALL (       1 calls)
     potinit      :      7.56s CPU      8.21s WALL (       1 calls)
     hinit0       :      1.81s CPU      1.99s WALL (       1 calls)

     Called by electrons:
     c_bands      :    262.76s CPU    267.35s WALL (      38 calls)
     sum_band     :     85.87s CPU     88.80s WALL (      38 calls)
     v_of_rho     :    226.14s CPU    245.61s WALL (      39 calls)
     newd         :     27.66s CPU     29.35s WALL (      39 calls)
     mix_rho      :     37.81s CPU     45.74s WALL (      38 calls)

     Called by c_bands:
     init_us_2    :      1.46s CPU      1.53s WALL (     249 calls)
     ccgdiagg     :    212.97s CPU    215.92s WALL (     114 calls)
     wfcrot       :     45.90s CPU     46.49s WALL (      84 calls)

     Called by *cgdiagg:
     h_psi        :    226.68s CPU    229.78s WALL (    2869 calls)
     s_psi        :     11.81s CPU     11.99s WALL (    5654 calls)

     Called by h_psi:
     h_psi:calbec :      8.65s CPU      8.76s WALL (    2869 calls)
     vloc_psi     :    206.52s CPU    209.29s WALL (    2869 calls)
     add_vuspsi   :     10.39s CPU     10.54s WALL (    2869 calls)
     hs_1psi      :    190.01s CPU    192.67s WALL (    2785 calls)
     s_1psi       :     13.26s CPU     13.41s WALL (    2785 calls)

     General routines
     calbec       :     16.64s CPU     16.93s WALL (    5840 calls)
     fft          :    246.07s CPU    252.70s WALL (    1068 calls)
     ffts         :     12.35s CPU     12.47s WALL (     154 calls)
     fftw         :    194.14s CPU    196.58s WALL (    7826 calls)
     interpolate  :     26.71s CPU     28.79s WALL (      78 calls)
     davcio       :      0.09s CPU      4.96s WALL (     596 calls)

     Parallel routines
     fft_scatt_xy :     72.37s CPU     73.22s WALL (    9048 calls)
     fft_scatt_yz :    156.21s CPU    158.04s WALL (    9048 calls)

     PWSCF        :  12m45.75s CPU  13m39.89s WALL


   This run was terminated on:  13:22:24   1Jul2022            

=------------------------------------------------------------------------------=
   JOB DONE.
=------------------------------------------------------------------------------=
