
     Program PHONON v.6.7MaX starts on 20Sep2022 at 23: 0:54 

     This program is part of the open-source Quantum ESPRESSO suite
     for quantum simulation of materials; please cite
         "P. Giannozzi et al., J. Phys.:Condens. Matter 21 395502 (2009);
         "P. Giannozzi et al., J. Phys.:Condens. Matter 29 465901 (2017);
          URL http://www.quantum-espresso.org", 
     in publications or presentations arising from this work. More details at
     http://www.quantum-espresso.org/quote

     Parallel version (MPI), running on   120 processors

     MPI processes distributed on     1 nodes
     K-points division:     npool     =       8
     R & G space division:  proc/nbgrp/npool/nimage =      15
     Waiting for input...
     Reading input from standard input

     Reading xml data from directory:

     ./NH_ESM_p25.save/

     IMPORTANT: XC functional enforced from input :
     Exchange-correlation= PBE
                           (   1   4   3   4   0   0   0)
     Any further DFT definition will be discarded
     Please, verify this is what you really want


     Parallelization info
     --------------------
     sticks:   dense  smooth     PW     G-vecs:    dense   smooth      PW
     Min        3636    1818    468               639190   225950   29545
     Max        3637    1819    470               639197   225953   29547
     Sum       54553   27281   7033              9587919  3389267  443191


     negative rho (up, down):  2.790E-04 1.232E-04
     Reading collected, re-writing distributed wavefunctions

     Calculation of q =    0.0000000   0.0000000   0.0000000

     phonons (vibrational modes) for NH                                         

     bravais-lattice index     =            0
     lattice parameter (alat)  =      37.7945  a.u.
     unit-cell volume          =   53986.6760 (a.u.)^3
     number of atoms/cell      =            2
     number of atomic types    =            2
     kinetic-energy cut-off    =      60.0000  Ry
     charge density cut-off    =     480.0000  Ry
     convergence threshold     =      1.0E-12
     beta                      =       0.7000
     number of iterations used =            4
     Exchange-correlation= PBE
                           (   1   4   3   4   0   0   0)


     celldm(1)=   37.79452  celldm(2)=    0.00000  celldm(3)=    0.00000
     celldm(4)=    0.00000  celldm(5)=    0.00000  celldm(6)=    0.00000

     crystal axes: (cart. coord. in units of alat)
               a(1) = (  1.0000  0.0000  0.0000 )  
               a(2) = (  0.0000  1.0000  0.0000 )  
               a(3) = (  0.0000  0.0000  1.0000 )  

     reciprocal axes: (cart. coord. in units 2 pi/alat)
               b(1) = (  1.0000  0.0000  0.0000 )  
               b(2) = (  0.0000  1.0000  0.0000 )  
               b(3) = (  0.0000  0.0000  1.0000 )  


     Atoms inside the unit cell: 

     Cartesian axes

     site n.  atom      mass           positions (alat units)
        1     N   14.0067   tau(    1) = (    0.50000    0.50000    0.00000  )
        2     H    1.0078   tau(    2) = (    0.50015    0.49994   -0.05244  )

     Computing dynamical matrix for 
                    q = (   0.0000000   0.0000000   0.0000000 )

      2 Sym.Ops. (with q -> -q+G )


     G cutoff =17367.5767  ( 639197 G-vectors)     FFT grid: (270,270,270)
     G cutoff = 8683.7884  ( 225950 G-vectors)  smooth grid: (192,192,192)

     number of k points=    20  Methfessel-Paxton smearing, width (Ry)=  0.0100
                       cart. coord. in units 2pi/alat
        k(    1) = (   0.0000000   0.0000000   0.0000000), wk =   0.0625000
        k(    2) = (   0.0000000   0.2500000   0.0000000), wk =   0.1250000
        k(    3) = (   0.0000000  -0.5000000   0.0000000), wk =   0.0625000
        k(    4) = (   0.2500000   0.0000000   0.0000000), wk =   0.1250000
        k(    5) = (   0.2500000   0.2500000   0.0000000), wk =   0.1250000
        k(    6) = (   0.2500000  -0.5000000   0.0000000), wk =   0.1250000
        k(    7) = (   0.2500000  -0.2500000   0.0000000), wk =   0.1250000
        k(    8) = (  -0.5000000   0.0000000   0.0000000), wk =   0.0625000
        k(    9) = (  -0.5000000   0.2500000   0.0000000), wk =   0.1250000
        k(   10) = (  -0.5000000  -0.5000000   0.0000000), wk =   0.0625000
        k(   11) = (   0.0000000   0.0000000   0.0000000), wk =   0.0625000
        k(   12) = (   0.0000000   0.2500000   0.0000000), wk =   0.1250000
        k(   13) = (   0.0000000  -0.5000000   0.0000000), wk =   0.0625000
        k(   14) = (   0.2500000   0.0000000   0.0000000), wk =   0.1250000
        k(   15) = (   0.2500000   0.2500000   0.0000000), wk =   0.1250000
        k(   16) = (   0.2500000  -0.5000000   0.0000000), wk =   0.1250000
        k(   17) = (   0.2500000  -0.2500000   0.0000000), wk =   0.1250000
        k(   18) = (  -0.5000000   0.0000000   0.0000000), wk =   0.0625000
        k(   19) = (  -0.5000000   0.2500000   0.0000000), wk =   0.1250000
        k(   20) = (  -0.5000000  -0.5000000   0.0000000), wk =   0.0625000

     PseudoPot. # 1 for N  read from file:
     ../../SSSP/N.pbe-n-radius_5.UPF
     MD5 check sum: 16739722b17309cd8fe442a2ace49922
     Pseudo is Ultrasoft + core correction, Zval =  5.0
     Generated using "atomic" code by A. Dal Corso  v.5.1
     Using radial grid of 1085 points,  4 beta functions with: 
                l(1) =   0
                l(2) =   0
                l(3) =   1
                l(4) =   1
     Q(r) pseudized with 0 coefficients 


     PseudoPot. # 2 for H  read from file:
     ../../SSSP/H.pbe-rrkjus_psl.1.0.0.UPF
     MD5 check sum: f52b6d4d1c606e5624b1dc7b2218f220
     Pseudo is Ultrasoft, Zval =  1.0
     Generated using "atomic" code by A. Dal Corso  v.5.1
     Using radial grid of  929 points,  2 beta functions with: 
                l(1) =   0
                l(2) =   0
     Q(r) pseudized with 0 coefficients 


     Mode symmetry, C_1 (1)     point group:


     Atomic displacements:
     There are    6 irreducible representations

     Representation     1      1 modes -  To be done

     Representation     2      1 modes -  To be done

     Representation     3      1 modes -  To be done

     Representation     4      1 modes -  To be done

     Representation     5      1 modes -  To be done

     Representation     6      1 modes -  To be done



     Alpha used in Ewald sum =   2.8000

     -------------------------------------------------
     Parameters for Dispersion (Grimme-D2) Correction:
     -------------------------------------------------
       atom      VdW radius       C_6     

        N          2.640         42.670
        H          1.892          4.857

     Calculating the D2 contribution to the dynamical matrix.
     D2 energy =       -0.00000239 Ry
     Done.


     negative rho (up, down):  2.790E-04 1.232E-04
     PHONON       :   2m27.22s CPU   2m34.56s WALL



     Representation #   1 mode #   1

     Self-consistent Calculation

     Pert. #  1: Fermi energy shift (Ry) =     0.0000E+00     0.0000E+00

      iter #   1 total cpu time :   196.7 secs   av.it.:  10.2
      thresh= 1.000E-02 alpha_mix =  0.700 |ddv_scf|^2 =  3.274E-08

     Pert. #  1: Fermi energy shift (Ry) =     0.0000E+00     0.0000E+00

      iter #   2 total cpu time :   240.1 secs   av.it.:  21.2
      thresh= 1.809E-05 alpha_mix =  0.700 |ddv_scf|^2 =  5.040E-09

     Pert. #  1: Fermi energy shift (Ry) =     0.0000E+00     0.0000E+00

      iter #   3 total cpu time :   282.6 secs   av.it.:  21.4
      thresh= 7.099E-06 alpha_mix =  0.700 |ddv_scf|^2 =  1.703E-08

     Pert. #  1: Fermi energy shift (Ry) =     0.0000E+00     0.0000E+00

      iter #   4 total cpu time :   328.6 secs   av.it.:  16.9
      thresh= 1.305E-05 alpha_mix =  0.700 |ddv_scf|^2 =  1.915E-08

     Pert. #  1: Fermi energy shift (Ry) =     0.0000E+00     0.0000E+00

      iter #   5 total cpu time :   375.3 secs   av.it.:  22.1
      thresh= 1.384E-05 alpha_mix =  0.700 |ddv_scf|^2 =  1.915E-10

     Pert. #  1: Fermi energy shift (Ry) =     0.0000E+00     0.0000E+00

      iter #   6 total cpu time :   430.8 secs   av.it.:  21.4
      thresh= 1.384E-06 alpha_mix =  0.700 |ddv_scf|^2 =  5.728E-11

     Pert. #  1: Fermi energy shift (Ry) =     0.0000E+00     0.0000E+00

      iter #   7 total cpu time :   515.8 secs   av.it.:  21.5
      thresh= 7.568E-07 alpha_mix =  0.700 |ddv_scf|^2 =  2.475E-11

     Pert. #  1: Fermi energy shift (Ry) =     0.0000E+00     0.0000E+00

      iter #   8 total cpu time :   558.8 secs   av.it.:  22.4
      thresh= 4.975E-07 alpha_mix =  0.700 |ddv_scf|^2 =  3.900E-14

     End of self-consistent calculation

     Convergence has been achieved 


     Representation #   2 mode #   2

     Self-consistent Calculation

     Pert. #  1: Fermi energy shift (Ry) =     0.0000E+00     0.0000E+00

      iter #   1 total cpu time :   614.3 secs   av.it.:  10.2
      thresh= 1.000E-02 alpha_mix =  0.700 |ddv_scf|^2 =  3.889E-08

     Pert. #  1: Fermi energy shift (Ry) =     0.0000E+00     0.0000E+00

      iter #   2 total cpu time :   658.2 secs   av.it.:  21.1
      thresh= 1.972E-05 alpha_mix =  0.700 |ddv_scf|^2 =  5.168E-09

     Pert. #  1: Fermi energy shift (Ry) =     0.0000E+00     0.0000E+00

      iter #   3 total cpu time :   700.8 secs   av.it.:  21.4
      thresh= 7.189E-06 alpha_mix =  0.700 |ddv_scf|^2 =  2.112E-08

     Pert. #  1: Fermi energy shift (Ry) =     0.0000E+00     0.0000E+00

      iter #   4 total cpu time :   745.6 secs   av.it.:  15.2
      thresh= 1.453E-05 alpha_mix =  0.700 |ddv_scf|^2 =  2.320E-08

     Pert. #  1: Fermi energy shift (Ry) =     0.0000E+00     0.0000E+00

      iter #   5 total cpu time :   791.2 secs   av.it.:  21.1
      thresh= 1.523E-05 alpha_mix =  0.700 |ddv_scf|^2 =  2.382E-10

     Pert. #  1: Fermi energy shift (Ry) =     0.0000E+00     0.0000E+00

      iter #   6 total cpu time :   840.9 secs   av.it.:  21.2
      thresh= 1.543E-06 alpha_mix =  0.700 |ddv_scf|^2 =  5.373E-11

     Pert. #  1: Fermi energy shift (Ry) =     0.0000E+00     0.0000E+00

      iter #   7 total cpu time :   886.8 secs   av.it.:  21.5
      thresh= 7.330E-07 alpha_mix =  0.700 |ddv_scf|^2 =  1.839E-11

     Pert. #  1: Fermi energy shift (Ry) =     0.0000E+00     0.0000E+00

      iter #   8 total cpu time :   935.0 secs   av.it.:  21.3
      thresh= 4.288E-07 alpha_mix =  0.700 |ddv_scf|^2 =  3.573E-14

     End of self-consistent calculation

     Convergence has been achieved 


     Representation #   3 mode #   3

     Self-consistent Calculation

     Pert. #  1: Fermi energy shift (Ry) =     0.0000E+00     0.0000E+00

      iter #   1 total cpu time :   990.3 secs   av.it.:   9.0
      thresh= 1.000E-02 alpha_mix =  0.700 |ddv_scf|^2 =  5.759E-09

     Pert. #  1: Fermi energy shift (Ry) =     0.0000E+00     0.0000E+00

      iter #   2 total cpu time :  1035.3 secs   av.it.:  23.2
      thresh= 7.589E-06 alpha_mix =  0.700 |ddv_scf|^2 =  1.952E-09

     Pert. #  1: Fermi energy shift (Ry) =     0.0000E+00     0.0000E+00

      iter #   3 total cpu time :  1080.1 secs   av.it.:  23.0
      thresh= 4.419E-06 alpha_mix =  0.700 |ddv_scf|^2 =  2.719E-09

     Pert. #  1: Fermi energy shift (Ry) =     0.0000E+00     0.0000E+00

      iter #   4 total cpu time :  1126.9 secs   av.it.:  20.4
      thresh= 5.214E-06 alpha_mix =  0.700 |ddv_scf|^2 =  3.008E-10

     Pert. #  1: Fermi energy shift (Ry) =     0.0000E+00     0.0000E+00

      iter #   5 total cpu time :  1170.5 secs   av.it.:  21.5
      thresh= 1.734E-06 alpha_mix =  0.700 |ddv_scf|^2 =  3.656E-12

     Pert. #  1: Fermi energy shift (Ry) =     0.0000E+00     0.0000E+00

      iter #   6 total cpu time :  1218.7 secs   av.it.:  22.0
      thresh= 1.912E-07 alpha_mix =  0.700 |ddv_scf|^2 =  3.508E-13

     End of self-consistent calculation

     Convergence has been achieved 


     Representation #   4 mode #   4

     Self-consistent Calculation

     Pert. #  1: Fermi energy shift (Ry) =     0.0000E+00     0.0000E+00

      iter #   1 total cpu time :  1272.2 secs   av.it.:   7.0
      thresh= 1.000E-02 alpha_mix =  0.700 |ddv_scf|^2 =  1.149E-09

     Pert. #  1: Fermi energy shift (Ry) =     0.0000E+00     0.0000E+00

      iter #   2 total cpu time :  1316.1 secs   av.it.:  21.2
      thresh= 3.390E-06 alpha_mix =  0.700 |ddv_scf|^2 =  1.808E-09

     Pert. #  1: Fermi energy shift (Ry) =     0.0000E+00     0.0000E+00

      iter #   3 total cpu time :  1359.6 secs   av.it.:  20.8
      thresh= 4.252E-06 alpha_mix =  0.700 |ddv_scf|^2 =  1.014E-09

     Pert. #  1: Fermi energy shift (Ry) =     0.0000E+00     0.0000E+00

      iter #   4 total cpu time :  1405.9 secs   av.it.:  23.1
      thresh= 3.184E-06 alpha_mix =  0.700 |ddv_scf|^2 =  2.191E-10

     Pert. #  1: Fermi energy shift (Ry) =     0.0000E+00     0.0000E+00

      iter #   5 total cpu time :  1454.0 secs   av.it.:  22.6
      thresh= 1.480E-06 alpha_mix =  0.700 |ddv_scf|^2 =  5.303E-11

     Pert. #  1: Fermi energy shift (Ry) =     0.0000E+00     0.0000E+00

      iter #   6 total cpu time :  1500.4 secs   av.it.:  22.1
      thresh= 7.282E-07 alpha_mix =  0.700 |ddv_scf|^2 =  2.929E-12

     Pert. #  1: Fermi energy shift (Ry) =     0.0000E+00     0.0000E+00

      iter #   7 total cpu time :  1550.8 secs   av.it.:  22.5
      thresh= 1.711E-07 alpha_mix =  0.700 |ddv_scf|^2 =  1.678E-13

     End of self-consistent calculation

     Convergence has been achieved 


     Representation #   5 mode #   5

     Self-consistent Calculation

     Pert. #  1: Fermi energy shift (Ry) =     0.0000E+00     0.0000E+00

      iter #   1 total cpu time :  1603.6 secs   av.it.:   7.0
      thresh= 1.000E-02 alpha_mix =  0.700 |ddv_scf|^2 =  1.368E-09

     Pert. #  1: Fermi energy shift (Ry) =     0.0000E+00     0.0000E+00

      iter #   2 total cpu time :  1646.0 secs   av.it.:  19.6
      thresh= 3.698E-06 alpha_mix =  0.700 |ddv_scf|^2 =  2.135E-09

     Pert. #  1: Fermi energy shift (Ry) =     0.0000E+00     0.0000E+00

      iter #   3 total cpu time :  1689.4 secs   av.it.:  20.7
      thresh= 4.621E-06 alpha_mix =  0.700 |ddv_scf|^2 =  1.076E-09

     Pert. #  1: Fermi energy shift (Ry) =     0.0000E+00     0.0000E+00

      iter #   4 total cpu time :  1735.7 secs   av.it.:  22.7
      thresh= 3.280E-06 alpha_mix =  0.700 |ddv_scf|^2 =  2.560E-10

     Pert. #  1: Fermi energy shift (Ry) =     0.0000E+00     0.0000E+00

      iter #   5 total cpu time :  1782.0 secs   av.it.:  22.6
      thresh= 1.600E-06 alpha_mix =  0.700 |ddv_scf|^2 =  8.983E-11

     Pert. #  1: Fermi energy shift (Ry) =     0.0000E+00     0.0000E+00

      iter #   6 total cpu time :  1833.1 secs   av.it.:  21.9
      thresh= 9.478E-07 alpha_mix =  0.700 |ddv_scf|^2 =  1.026E-12

     Pert. #  1: Fermi energy shift (Ry) =     0.0000E+00     0.0000E+00

      iter #   7 total cpu time :  1877.0 secs   av.it.:  22.5
      thresh= 1.013E-07 alpha_mix =  0.700 |ddv_scf|^2 =  1.389E-13

     End of self-consistent calculation

     Convergence has been achieved 


     Representation #   6 mode #   6

     Self-consistent Calculation

     Pert. #  1: Fermi energy shift (Ry) =     0.0000E+00     0.0000E+00

      iter #   1 total cpu time :  1929.9 secs   av.it.:   7.0
      thresh= 1.000E-02 alpha_mix =  0.700 |ddv_scf|^2 =  2.339E-09

     Pert. #  1: Fermi energy shift (Ry) =     0.0000E+00     0.0000E+00

      iter #   2 total cpu time :  1973.5 secs   av.it.:  22.6
      thresh= 4.837E-06 alpha_mix =  0.700 |ddv_scf|^2 =  3.579E-09

     Pert. #  1: Fermi energy shift (Ry) =     0.0000E+00     0.0000E+00

      iter #   3 total cpu time :  2017.5 secs   av.it.:  20.0
      thresh= 5.983E-06 alpha_mix =  0.700 |ddv_scf|^2 =  1.024E-10

     Pert. #  1: Fermi energy shift (Ry) =     0.0000E+00     0.0000E+00

      iter #   4 total cpu time :  2062.8 secs   av.it.:  21.4
      thresh= 1.012E-06 alpha_mix =  0.700 |ddv_scf|^2 =  1.003E-11

     Pert. #  1: Fermi energy shift (Ry) =     0.0000E+00     0.0000E+00

      iter #   5 total cpu time :  2108.6 secs   av.it.:  21.2
      thresh= 3.167E-07 alpha_mix =  0.700 |ddv_scf|^2 =  1.301E-12

     Pert. #  1: Fermi energy shift (Ry) =     0.0000E+00     0.0000E+00

      iter #   6 total cpu time :  2156.4 secs   av.it.:  22.3
      thresh= 1.141E-07 alpha_mix =  0.700 |ddv_scf|^2 =  2.464E-13

     End of self-consistent calculation

     Convergence has been achieved 

     Number of q in the star =    1
     List of q in the star:
          1   0.000000000   0.000000000   0.000000000

     Diagonalizing the dynamical matrix

     q = (    0.000000000   0.000000000   0.000000000 ) 

 **************************************************************************
     freq (    1) =     -48.812620 [THz] =   -1628.213753 [cm-1]
     freq (    2) =     -48.755291 [THz] =   -1626.301454 [cm-1]
     freq (    3) =     -46.494070 [THz] =   -1550.875237 [cm-1]
     freq (    4) =      75.387594 [THz] =    2514.659449 [cm-1]
     freq (    5) =     107.082000 [THz] =    3571.871037 [cm-1]
     freq (    6) =     107.313351 [THz] =    3579.588090 [cm-1]
 **************************************************************************

     Mode symmetry, C_1 (1)     point group:

     freq (   1-   1) =      -1628.2  [cm-1]   --> A               I+R
     freq (   2-   2) =      -1626.3  [cm-1]   --> A               I+R
     freq (   3-   3) =      -1550.9  [cm-1]   --> A               I+R
     freq (   4-   4) =       2514.7  [cm-1]   --> A               I+R
     freq (   5-   5) =       3571.9  [cm-1]   --> A               I+R
     freq (   6-   6) =       3579.6  [cm-1]   --> A               I+R

     PHONON       :  31m16.21s CPU  36m16.35s WALL

     INITIALIZATION: 
     phq_setup    :     12.72s CPU     14.25s WALL (       1 calls)
     phq_init     :    116.85s CPU    119.93s WALL (       1 calls)

     phq_init     :    116.85s CPU    119.93s WALL (       1 calls)
     set_drhoc    :     23.57s CPU     23.67s WALL (       3 calls)
     init_vloc    :      0.31s CPU      0.31s WALL (       1 calls)
     init_us_1    :      0.04s CPU      0.04s WALL (       1 calls)
     newd         :      1.21s CPU      1.29s WALL (       1 calls)
     dvanqq       :     43.25s CPU     43.74s WALL (       1 calls)
     drho         :     28.78s CPU     30.57s WALL (       1 calls)

     DYNAMICAL MATRIX:
     dynmat0      :     22.79s CPU     23.49s WALL (       1 calls)
     phqscf       :   1728.95s CPU   2016.28s WALL (       1 calls)
     dynmatrix    :      0.04s CPU      0.14s WALL (       1 calls)

     phqscf       :   1728.95s CPU   2016.28s WALL (       1 calls)
     solve_linter :   1724.48s CPU   1997.42s WALL (       6 calls)
     drhodv       :      4.47s CPU      4.65s WALL (       6 calls)

     dynmat0      :     22.79s CPU     23.49s WALL (       1 calls)
     dynmat_us    :      0.99s CPU      1.04s WALL (       1 calls)
     d2ionq       :      0.20s CPU      0.20s WALL (       1 calls)
     dynmatcc     :     21.51s CPU     22.16s WALL (       1 calls)

     dynmat_us    :      0.99s CPU      1.04s WALL (       1 calls)
     addusdynmat  :      0.00s CPU      0.00s WALL (       1 calls)

     phqscf       :   1728.95s CPU   2016.28s WALL (       1 calls)
     solve_linter :   1724.48s CPU   1997.42s WALL (       6 calls)

     solve_linter :   1724.48s CPU   1997.42s WALL (       6 calls)
     dvqpsi_us    :     10.65s CPU     10.87s WALL (      18 calls)
     ortho        :      2.41s CPU      2.45s WALL (     126 calls)
     cgsolve      :    659.46s CPU    666.96s WALL (     126 calls)
     incdrhoscf   :     29.78s CPU     30.16s WALL (     126 calls)
     addusddens   :     61.80s CPU     66.19s WALL (      48 calls)
     vpsifft      :     27.23s CPU     27.72s WALL (     108 calls)
     dv_of_drho   :    284.84s CPU    298.02s WALL (      42 calls)
     mix_pot      :     41.55s CPU    107.72s WALL (      42 calls)
     ef_shift     :     40.15s CPU     40.81s WALL (      48 calls)
     localdos     :     29.16s CPU     30.32s WALL (       6 calls)
     psymdvscf    :    196.24s CPU    332.99s WALL (      42 calls)
     newdq        :    125.10s CPU    131.27s WALL (      42 calls)
     adddvscf     :      0.71s CPU      0.73s WALL (     108 calls)
     drhodvus     :      4.59s CPU     16.21s WALL (       6 calls)

     dvqpsi_us    :     10.65s CPU     10.87s WALL (      18 calls)
     dvqpsi_us_on :      0.17s CPU      0.17s WALL (      18 calls)

     cgsolve      :    659.46s CPU    666.96s WALL (     126 calls)
     ch_psi       :    639.36s CPU    646.62s WALL (    3176 calls)

     ch_psi       :    639.36s CPU    646.62s WALL (    3176 calls)
     h_psi        :    587.12s CPU    593.76s WALL (    3176 calls)
     last         :     36.96s CPU     37.39s WALL (    3176 calls)

     h_psi        :    587.12s CPU    593.76s WALL (    3176 calls)
     add_vuspsi   :      9.05s CPU      9.15s WALL (    3176 calls)

     incdrhoscf   :     29.78s CPU     30.16s WALL (     126 calls)
     addusdbec    :      1.00s CPU      1.00s WALL (     144 calls)

     drhodvus     :      4.59s CPU     16.21s WALL (       6 calls)

      General routines
     calbec       :     21.63s CPU     21.96s WALL (    6742 calls)
     fft          :    437.55s CPU    446.83s WALL (    1661 calls)
     ffts         :     23.18s CPU     23.68s WALL (     326 calls)
     fftw         :    532.34s CPU    538.26s WALL (   22543 calls)
     davcio       :      0.21s CPU     77.51s WALL (     972 calls)
     write_rec    :      0.00s CPU     26.06s WALL (      48 calls)


     PHONON       :  31m16.21s CPU  36m16.35s WALL


   This run was terminated on:  23:37:11  20Sep2022            

=------------------------------------------------------------------------------=
   JOB DONE.
=------------------------------------------------------------------------------=
