     Message from routine get_command_line:
     unexpected argument # 4     :-in

     Program PWSCF v.6.7MaX starts on  1Jul2022 at  0:14:12 

     This program is part of the open-source Quantum ESPRESSO suite
     for quantum simulation of materials; please cite
         "P. Giannozzi et al., J. Phys.:Condens. Matter 21 395502 (2009);
         "P. Giannozzi et al., J. Phys.:Condens. Matter 29 465901 (2017);
          URL http://www.quantum-espresso.org", 
     in publications or presentations arising from this work. More details at
     http://www.quantum-espresso.org/quote

     Parallel version (MPI), running on   120 processors

     MPI processes distributed on     1 nodes
     K-points division:     npool     =       8
     R & G space division:  proc/nbgrp/npool/nimage =      15
     Waiting for input...
     Reading input from standard input
Warning: card &CELL ignored
Warning: card / ignored

     Current dimensions of program PWSCF are:
     Max number of different atomic species (ntypx) = 10
     Max number of k-points (npk) =  40000
     Max angular momentum in pseudopotentials (lmaxx) =  3

     IMPORTANT: XC functional enforced from input :
     Exchange-correlation= PBE
                           (   1   4   3   4   0   0   0)
     Any further DFT definition will be discarded
     Please, verify this is what you really want


     -------------------------------------------------
     Parameters for Dispersion (Grimme-D2) Correction:
     -------------------------------------------------
       atom      VdW radius       C_6     

        N          2.640         42.670
        H          1.892          4.857

     Subspace diagonalization in iterative solution of the eigenvalue problem:
     one sub-group per band group will be used
     scalapack distributed-memory algorithm (size of sub-group:  3*  3 procs)


     Parallelization info
     --------------------
     sticks:   dense  smooth     PW     G-vecs:    dense   smooth      PW
     Min        3636    1818    468               639190   225950   29545
     Max        3637    1819    470               639197   225953   29547
     Sum       54553   27281   7033              9587919  3389267  443191



     bravais-lattice index     =            0
     lattice parameter (alat)  =      37.7945  a.u.
     unit-cell volume          =   53986.6760 (a.u.)^3
     number of atoms/cell      =            2
     number of atomic types    =            2
     number of electrons       =         6.00
     number of Kohn-Sham states=            7
     kinetic-energy cutoff     =      60.0000  Ry
     charge density cutoff     =     480.0000  Ry
     scf convergence threshold =      1.0E-08
     mixing beta               =       0.7000
     number of iterations used =           10  plain     mixing
     energy convergence thresh.=      7.3E-07
     force convergence thresh. =      3.9E-04
     Exchange-correlation= PBE
                           (   1   4   3   4   0   0   0)
     nstep                     =           50


     Effective Screening Medium Method
     =================================
     Boundary Conditions: Metal-Slab-Metal
     field strength                   =     0.02 Ry/a.u.
     grid points for fit at edges     =        4 


     celldm(1)=  37.794522  celldm(2)=   0.000000  celldm(3)=   0.000000
     celldm(4)=   0.000000  celldm(5)=   0.000000  celldm(6)=   0.000000

     crystal axes: (cart. coord. in units of alat)
               a(1) = (   1.000000   0.000000   0.000000 )  
               a(2) = (   0.000000   1.000000   0.000000 )  
               a(3) = (   0.000000   0.000000   1.000000 )  

     reciprocal axes: (cart. coord. in units 2 pi/alat)
               b(1) = (  1.000000  0.000000  0.000000 )  
               b(2) = (  0.000000  1.000000  0.000000 )  
               b(3) = (  0.000000  0.000000  1.000000 )  


     PseudoPot. # 1 for N  read from file:
     ../../SSSP/N.pbe-n-radius_5.UPF
     MD5 check sum: 16739722b17309cd8fe442a2ace49922
     Pseudo is Ultrasoft + core correction, Zval =  5.0
     Generated using "atomic" code by A. Dal Corso  v.5.1
     Using radial grid of 1085 points,  4 beta functions with: 
                l(1) =   0
                l(2) =   0
                l(3) =   1
                l(4) =   1
     Q(r) pseudized with 0 coefficients 


     PseudoPot. # 2 for H  read from file:
     ../../SSSP/H.pbe-rrkjus_psl.1.0.0.UPF
     MD5 check sum: f52b6d4d1c606e5624b1dc7b2218f220
     Pseudo is Ultrasoft, Zval =  1.0
     Generated using "atomic" code by A. Dal Corso  v.5.1
     Using radial grid of  929 points,  2 beta functions with: 
                l(1) =   0
                l(2) =   0
     Q(r) pseudized with 0 coefficients 


     atomic species   valence    mass     pseudopotential
        N              5.00    14.00700     N ( 1.00)
        H              1.00     1.00800     H ( 1.00)

     Starting magnetic structure 
     atomic species   magnetization
        N            0.100
        H            0.100

     No symmetry found



   Cartesian axes

     site n.     atom                  positions (alat units)
         1           N   tau(   1) = (   0.5000000   0.5000000   0.0000000  )
         2           H   tau(   2) = (   0.5000000   0.5525081   0.0000000  )

     number of k points=    10  Methfessel-Paxton smearing, width (Ry)=  0.0100
                       cart. coord. in units 2pi/alat
        k(    1) = (   0.0000000   0.0000000   0.0000000), wk =   0.0625000
        k(    2) = (   0.0000000   0.2500000   0.0000000), wk =   0.1250000
        k(    3) = (   0.0000000  -0.5000000   0.0000000), wk =   0.0625000
        k(    4) = (   0.2500000   0.0000000   0.0000000), wk =   0.1250000
        k(    5) = (   0.2500000   0.2500000   0.0000000), wk =   0.1250000
        k(    6) = (   0.2500000  -0.5000000   0.0000000), wk =   0.1250000
        k(    7) = (   0.2500000  -0.2500000   0.0000000), wk =   0.1250000
        k(    8) = (  -0.5000000   0.0000000   0.0000000), wk =   0.0625000
        k(    9) = (  -0.5000000   0.2500000   0.0000000), wk =   0.1250000
        k(   10) = (  -0.5000000  -0.5000000   0.0000000), wk =   0.0625000

     Dense  grid:  9587919 G-vectors     FFT dimensions: ( 270, 270, 270)

     Smooth grid:  3389267 G-vectors     FFT dimensions: ( 192, 192, 192)

     Estimated max dynamical RAM per process >     385.51 MB

     Estimated total dynamical RAM >      45.18 GB
     Generating pointlists ...
     new r_m :   0.0217 (alat units)  0.8186 (a.u.) for type    1
     new r_m :   0.0217 (alat units)  0.8186 (a.u.) for type    2

     Initial potential from superposition of free atoms

     starting charge    5.99998, renormalised to    6.00000

     negative rho (up, down):  9.687E-05 7.925E-05
     Starting wfcs are    5 randomized atomic wfcs +    2 random wfcs

     total cpu time spent up to now is       21.6 secs

     Self-consistent Calculation

     iteration #  1     ecut=    60.00 Ry     beta= 0.70
     Davidson diagonalization with overlap
     c_bands:  3 eigenvalues not converged
     c_bands:  2 eigenvalues not converged
     ethr =  1.00E-04,  avg # of iterations = 20.0

     negative rho (up, down):  2.307E-04 9.323E-05

     total cpu time spent up to now is       51.2 secs

     total energy              =     -21.06272015 Ry
     estimated scf accuracy    <       0.13577056 Ry

     total magnetization       =     2.00 Bohr mag/cell
     absolute magnetization    =     2.00 Bohr mag/cell

     iteration #  2     ecut=    60.00 Ry     beta= 0.70
     Davidson diagonalization with overlap
     ethr =  2.26E-03,  avg # of iterations =  2.0

     negative rho (up, down):  2.356E-04 1.051E-04

     total cpu time spent up to now is       66.5 secs

     total energy              =     -21.08830905 Ry
     estimated scf accuracy    <       0.01663115 Ry

     total magnetization       =     2.00 Bohr mag/cell
     absolute magnetization    =     2.02 Bohr mag/cell

     iteration #  3     ecut=    60.00 Ry     beta= 0.70
     Davidson diagonalization with overlap
     ethr =  2.77E-04,  avg # of iterations =  2.0

     negative rho (up, down):  2.647E-04 1.176E-04

     total cpu time spent up to now is       82.4 secs

     total energy              =     -21.09533823 Ry
     estimated scf accuracy    <       0.00237971 Ry

     total magnetization       =     2.00 Bohr mag/cell
     absolute magnetization    =     2.04 Bohr mag/cell

     iteration #  4     ecut=    60.00 Ry     beta= 0.70
     Davidson diagonalization with overlap
     ethr =  3.97E-05,  avg # of iterations =  2.7

     negative rho (up, down):  2.731E-04 1.209E-04

     total cpu time spent up to now is       98.5 secs

     total energy              =     -21.09588428 Ry
     estimated scf accuracy    <       0.00008806 Ry

     total magnetization       =     2.00 Bohr mag/cell
     absolute magnetization    =     2.04 Bohr mag/cell

     iteration #  5     ecut=    60.00 Ry     beta= 0.70
     Davidson diagonalization with overlap
     ethr =  1.47E-06,  avg # of iterations =  8.3

     negative rho (up, down):  2.770E-04 1.227E-04

     total cpu time spent up to now is      118.5 secs

     total energy              =     -21.09592700 Ry
     estimated scf accuracy    <       0.00000729 Ry

     total magnetization       =     2.00 Bohr mag/cell
     absolute magnetization    =     2.04 Bohr mag/cell

     iteration #  6     ecut=    60.00 Ry     beta= 0.70
     Davidson diagonalization with overlap
     ethr =  1.21E-07,  avg # of iterations =  2.7

     negative rho (up, down):  2.774E-04 1.226E-04

     total cpu time spent up to now is      134.9 secs

     total energy              =     -21.09593050 Ry
     estimated scf accuracy    <       0.00000121 Ry

     total magnetization       =     2.00 Bohr mag/cell
     absolute magnetization    =     2.05 Bohr mag/cell

     iteration #  7     ecut=    60.00 Ry     beta= 0.70
     Davidson diagonalization with overlap
     ethr =  2.02E-08,  avg # of iterations =  2.5

     negative rho (up, down):  2.776E-04 1.226E-04

     total cpu time spent up to now is      151.2 secs

     total energy              =     -21.09593081 Ry
     estimated scf accuracy    <       0.00000005 Ry

     total magnetization       =     2.00 Bohr mag/cell
     absolute magnetization    =     2.05 Bohr mag/cell

     iteration #  8     ecut=    60.00 Ry     beta= 0.70
     Davidson diagonalization with overlap
     ethr =  7.83E-10,  avg # of iterations =  2.5

     negative rho (up, down):  2.776E-04 1.227E-04

     Magnetic moment per site:
     atom:    1    charge:    1.3480    magn:    0.5563    constr:    0.0000
     atom:    2    charge:    0.4613    magn:   -0.0086    constr:    0.0000

     total cpu time spent up to now is      165.4 secs

     End of self-consistent calculation

 ------ SPIN UP ------------


          k = 0.0000 0.0000 0.0000 (423701 PWs)   bands (ev):

   -16.8403  -5.6559  -3.9152  -3.9141   1.5656   1.9351   1.9448

          k = 0.0000 0.2500 0.0000 (423725 PWs)   bands (ev):

   -16.8403  -5.6559  -3.9152  -3.9141   1.5890   1.7777   1.9646

          k = 0.0000-0.5000 0.0000 (423542 PWs)   bands (ev):

   -16.8403  -5.6559  -3.9152  -3.9141   1.6528   1.6669   2.0333

          k = 0.2500 0.0000 0.0000 (423725 PWs)   bands (ev):

   -16.8403  -5.6559  -3.9152  -3.9141   1.5891   1.7774   1.9645

          k = 0.2500 0.2500 0.0000 (423766 PWs)   bands (ev):

   -16.8403  -5.6559  -3.9152  -3.9141   1.6125   1.7980   1.8042

          k = 0.2500-0.5000 0.0000 (423782 PWs)   bands (ev):

   -16.8403  -5.6559  -3.9152  -3.9141   1.6763   1.6906   1.8653

          k = 0.2500-0.2500 0.0000 (423766 PWs)   bands (ev):

   -16.8403  -5.6559  -3.9152  -3.9141   1.6125   1.7979   1.8041

          k =-0.5000 0.0000 0.0000 (423542 PWs)   bands (ev):

   -16.8403  -5.6559  -3.9152  -3.9141   1.6543   1.6654   2.0292

          k =-0.5000 0.2500 0.0000 (423782 PWs)   bands (ev):

   -16.8403  -5.6559  -3.9152  -3.9141   1.6776   1.6887   1.8699

          k =-0.5000-0.5000 0.0000 (423708 PWs)   bands (ev):

   -16.8403  -5.6559  -3.9152  -3.9141   1.7407   1.7555   1.7631

 ------ SPIN DOWN ----------


          k = 0.0000 0.0000 0.0000 (423701 PWs)   bands (ev):

   -14.1501  -4.5609  -0.0709  -0.0655   1.5760   1.9478   1.9527

          k = 0.0000 0.2500 0.0000 (423725 PWs)   bands (ev):

   -14.1501  -4.5609  -0.0709  -0.0655   1.5991   1.7877   1.9751

          k = 0.0000-0.5000 0.0000 (423542 PWs)   bands (ev):

   -14.1501  -4.5609  -0.0709  -0.0655   1.6639   1.6761   2.0411

          k = 0.2500 0.0000 0.0000 (423725 PWs)   bands (ev):

   -14.1501  -4.5609  -0.0709  -0.0655   1.5993   1.7876   1.9750

          k = 0.2500 0.2500 0.0000 (423766 PWs)   bands (ev):

   -14.1501  -4.5609  -0.0709  -0.0655   1.6226   1.8089   1.8133

          k = 0.2500-0.5000 0.0000 (423782 PWs)   bands (ev):

   -14.1501  -4.5609  -0.0709  -0.0655   1.6873   1.6996   1.8790

          k = 0.2500-0.2500 0.0000 (423766 PWs)   bands (ev):

   -14.1501  -4.5609  -0.0709  -0.0655   1.6227   1.8088   1.8136

          k =-0.5000 0.0000 0.0000 (423542 PWs)   bands (ev):

   -14.1501  -4.5609  -0.0709  -0.0655   1.6655   1.6742   2.0425

          k =-0.5000 0.2500 0.0000 (423782 PWs)   bands (ev):

   -14.1501  -4.5609  -0.0709  -0.0655   1.6892   1.6976   1.8852

          k =-0.5000-0.5000 0.0000 (423708 PWs)   bands (ev):

   -14.1501  -4.5609  -0.0709  -0.0655   1.7517   1.7665   1.7682

     the Fermi energy is    -2.5422 ev

!    total energy              =     -21.09593083 Ry
     estimated scf accuracy    <          2.0E-09 Ry
     smearing contrib. (-TS)   =       0.00000000 Ry
     internal energy E=F+TS    =     -21.09593083 Ry

     The total energy is F=E-TS. E is the sum of the following terms:
     one-electron contribution =     -39.08222814 Ry
     hartree contribution      =      21.36773944 Ry
     xc contribution           =      -5.89739865 Ry
     ewald contribution        =       2.51595891 Ry
     Dispersion Correction     =      -0.00000240 Ry

     total magnetization       =     2.00 Bohr mag/cell
     absolute magnetization    =     2.05 Bohr mag/cell

     convergence has been achieved in   8 iterations

     negative rho (up, down):  2.776E-04 1.227E-04

     Forces acting on atoms (cartesian axes, Ry/au):

     atom    1 type  1   force =    -0.00000001   -0.00006329    0.00464142
     atom    2 type  2   force =     0.00000001    0.00006329   -0.00463349

     Total force =     0.004634     Total SCF correction =     0.000003

     BFGS Geometry Optimization
     Energy error            =      0.0E+00
     Gradient error          =      4.6E-03

     number of scf cycles    =   1
     number of bfgs steps    =   0

     energy   new            =     -21.0959308327 Ry

     new trust radius        =       0.0046339227 bohr
     new conv_thr            =       0.0000000100 Ry


ATOMIC_POSITIONS (angstrom)
N            10.0000000000       10.0000000000        0.0000000000    0   0   0
H            10.0000000048       11.0501963985       -0.0024519376



     Writing output data file ./NH_ESM_p25.save/
     NEW-OLD atomic charge density approx. for the potential

     negative rho (up, down):  1.538E-04 2.007E-04
     Generating pointlists ...

     total cpu time spent up to now is      186.6 secs

     Self-consistent Calculation

     iteration #  1     ecut=    60.00 Ry     beta= 0.70
     Davidson diagonalization with overlap
     ethr =  1.00E-06,  avg # of iterations =  2.0

     Threshold (ethr) on eigenvalues was too large:
     Diagonalizing with lowered threshold

     Davidson diagonalization with overlap
     ethr =  1.12E-08,  avg # of iterations =  1.0

     negative rho (up, down):  2.477E-04 1.386E-04

     total cpu time spent up to now is      207.7 secs

     total energy              =     -21.09595209 Ry
     estimated scf accuracy    <       0.00000067 Ry

     total magnetization       =     2.00 Bohr mag/cell
     absolute magnetization    =     2.05 Bohr mag/cell

     iteration #  2     ecut=    60.00 Ry     beta= 0.70
     Davidson diagonalization with overlap
     ethr =  1.12E-08,  avg # of iterations =  1.5

     negative rho (up, down):  2.747E-04 1.207E-04

     total cpu time spent up to now is      222.8 secs

     total energy              =     -21.09595224 Ry
     estimated scf accuracy    <       0.00000008 Ry

     total magnetization       =     2.00 Bohr mag/cell
     absolute magnetization    =     2.05 Bohr mag/cell

     iteration #  3     ecut=    60.00 Ry     beta= 0.70
     Davidson diagonalization with overlap
     ethr =  1.38E-09,  avg # of iterations =  2.5

     negative rho (up, down):  2.776E-04 1.227E-04

     Magnetic moment per site:
     atom:    1    charge:    1.3480    magn:    0.5563    constr:    0.0000
     atom:    2    charge:    0.4613    magn:   -0.0087    constr:    0.0000

     total cpu time spent up to now is      237.0 secs

     End of self-consistent calculation

 ------ SPIN UP ------------


          k = 0.0000 0.0000 0.0000 (423701 PWs)   bands (ev):

   -16.8399  -5.6557  -3.9149  -3.9138   1.5658   1.9352   1.9448

          k = 0.0000 0.2500 0.0000 (423725 PWs)   bands (ev):

   -16.8399  -5.6557  -3.9149  -3.9138   1.5892   1.7778   1.9646

          k = 0.0000-0.5000 0.0000 (423542 PWs)   bands (ev):

   -16.8399  -5.6557  -3.9149  -3.9138   1.6529   1.6670   2.0333

          k = 0.2500 0.0000 0.0000 (423725 PWs)   bands (ev):

   -16.8399  -5.6557  -3.9149  -3.9138   1.5892   1.7776   1.9646

          k = 0.2500 0.2500 0.0000 (423766 PWs)   bands (ev):

   -16.8399  -5.6557  -3.9149  -3.9138   1.6126   1.7981   1.8042

          k = 0.2500-0.5000 0.0000 (423782 PWs)   bands (ev):

   -16.8399  -5.6557  -3.9149  -3.9138   1.6764   1.6906   1.8654

          k = 0.2500-0.2500 0.0000 (423766 PWs)   bands (ev):

   -16.8399  -5.6557  -3.9149  -3.9138   1.6126   1.7981   1.8042

          k =-0.5000 0.0000 0.0000 (423542 PWs)   bands (ev):

   -16.8399  -5.6557  -3.9149  -3.9138   1.6544   1.6655   2.0294

          k =-0.5000 0.2500 0.0000 (423782 PWs)   bands (ev):

   -16.8399  -5.6557  -3.9149  -3.9138   1.6777   1.6888   1.8700

          k =-0.5000-0.5000 0.0000 (423708 PWs)   bands (ev):

   -16.8399  -5.6557  -3.9149  -3.9138   1.7409   1.7556   1.7632

 ------ SPIN DOWN ----------


          k = 0.0000 0.0000 0.0000 (423701 PWs)   bands (ev):

   -14.1495  -4.5607  -0.0708  -0.0653   1.5757   1.9475   1.9524

          k = 0.0000 0.2500 0.0000 (423725 PWs)   bands (ev):

   -14.1495  -4.5607  -0.0708  -0.0653   1.5989   1.7874   1.9748

          k = 0.0000-0.5000 0.0000 (423542 PWs)   bands (ev):

   -14.1495  -4.5607  -0.0708  -0.0653   1.6636   1.6757   2.0408

          k = 0.2500 0.0000 0.0000 (423725 PWs)   bands (ev):

   -14.1495  -4.5607  -0.0708  -0.0653   1.5990   1.7873   1.9747

          k = 0.2500 0.2500 0.0000 (423766 PWs)   bands (ev):

   -14.1495  -4.5607  -0.0708  -0.0653   1.6223   1.8086   1.8130

          k = 0.2500-0.5000 0.0000 (423782 PWs)   bands (ev):

   -14.1495  -4.5607  -0.0708  -0.0653   1.6870   1.6993   1.8786

          k = 0.2500-0.2500 0.0000 (423766 PWs)   bands (ev):

   -14.1495  -4.5607  -0.0708  -0.0653   1.6224   1.8085   1.8133

          k =-0.5000 0.0000 0.0000 (423542 PWs)   bands (ev):

   -14.1495  -4.5607  -0.0708  -0.0653   1.6652   1.6739   2.0422

          k =-0.5000 0.2500 0.0000 (423782 PWs)   bands (ev):

   -14.1495  -4.5607  -0.0708  -0.0653   1.6889   1.6973   1.8849

          k =-0.5000-0.5000 0.0000 (423708 PWs)   bands (ev):

   -14.1495  -4.5607  -0.0708  -0.0653   1.7514   1.7662   1.7679

     the Fermi energy is    -2.5423 ev

!    total energy              =     -21.09595229 Ry
     estimated scf accuracy    <          4.1E-09 Ry
     smearing contrib. (-TS)   =       0.00000000 Ry
     internal energy E=F+TS    =     -21.09595229 Ry

     The total energy is F=E-TS. E is the sum of the following terms:
     one-electron contribution =     -39.08188187 Ry
     hartree contribution      =      21.36758268 Ry
     xc contribution           =      -5.89736224 Ry
     ewald contribution        =       2.51571154 Ry
     Dispersion Correction     =      -0.00000240 Ry

     total magnetization       =     2.00 Bohr mag/cell
     absolute magnetization    =     2.05 Bohr mag/cell

     convergence has been achieved in   3 iterations

     negative rho (up, down):  2.776E-04 1.227E-04

     Forces acting on atoms (cartesian axes, Ry/au):

     atom    1 type  1   force =    -0.00000011    0.00001523    0.00462036
     atom    2 type  2   force =     0.00000011   -0.00001523   -0.00459963

     Total force =     0.004600     Total SCF correction =     0.000003
     Energy error            =      2.1E-05
     Gradient error          =      4.6E-03

     number of scf cycles    =   2
     number of bfgs steps    =   1

     energy   old            =     -21.0959308327 Ry
     energy   new            =     -21.0959522916 Ry

     CASE: energy  _new < energy  _old


     WARNING: bfgs curvature condition failed, Theta= 0.806
     new trust radius        =       0.0050973150 bohr
     new conv_thr            =       0.0000000012 Ry


ATOMIC_POSITIONS (angstrom)
N            10.0000000000       10.0000000000        0.0000000000    0   0   0
H            10.0000000181       11.0502270136       -0.0051491468



     Writing output data file ./NH_ESM_p25.save/
     NEW-OLD atomic charge density approx. for the potential

     negative rho (up, down):  1.546E-04 2.090E-04
     Generating pointlists ...

     total cpu time spent up to now is      257.8 secs

     Self-consistent Calculation

     iteration #  1     ecut=    60.00 Ry     beta= 0.70
     Davidson diagonalization with overlap
     ethr =  1.00E-06,  avg # of iterations =  2.0

     Threshold (ethr) on eigenvalues was too large:
     Diagonalizing with lowered threshold

     Davidson diagonalization with overlap
     ethr =  1.42E-08,  avg # of iterations =  1.0

     negative rho (up, down):  3.784E-04 3.248E-04

     total cpu time spent up to now is      278.9 secs

     total energy              =     -21.09597475 Ry
     estimated scf accuracy    <       0.00000085 Ry

     total magnetization       =     2.00 Bohr mag/cell
     absolute magnetization    =     2.05 Bohr mag/cell

     iteration #  2     ecut=    60.00 Ry     beta= 0.70
     Davidson diagonalization with overlap
     ethr =  1.41E-08,  avg # of iterations =  1.5

     negative rho (up, down):  3.050E-04 1.678E-04

     total cpu time spent up to now is      294.0 secs

     total energy              =     -21.09597561 Ry
     estimated scf accuracy    <       0.00000011 Ry

     total magnetization       =     2.00 Bohr mag/cell
     absolute magnetization    =     2.05 Bohr mag/cell

     iteration #  3     ecut=    60.00 Ry     beta= 0.70
     Davidson diagonalization with overlap
     ethr =  1.80E-09,  avg # of iterations =  2.5

     negative rho (up, down):  2.830E-04 1.307E-04

     total cpu time spent up to now is      309.7 secs

     total energy              =     -21.09597585 Ry
     estimated scf accuracy    <          5.7E-09 Ry

     total magnetization       =     2.00 Bohr mag/cell
     absolute magnetization    =     2.05 Bohr mag/cell

     iteration #  4     ecut=    60.00 Ry     beta= 0.70
     Davidson diagonalization with overlap
     ethr =  9.42E-11,  avg # of iterations =  3.0

     negative rho (up, down):  2.776E-04 1.227E-04

     Magnetic moment per site:
     atom:    1    charge:    1.3480    magn:    0.5563    constr:    0.0000
     atom:    2    charge:    0.4612    magn:   -0.0087    constr:    0.0000

     total cpu time spent up to now is      324.1 secs

     End of self-consistent calculation

 ------ SPIN UP ------------


          k = 0.0000 0.0000 0.0000 (423701 PWs)   bands (ev):

   -16.8393  -5.6555  -3.9147  -3.9136   1.5659   1.9354   1.9449

          k = 0.0000 0.2500 0.0000 (423725 PWs)   bands (ev):

   -16.8393  -5.6555  -3.9147  -3.9136   1.5893   1.7779   1.9647

          k = 0.0000-0.5000 0.0000 (423542 PWs)   bands (ev):

   -16.8393  -5.6555  -3.9147  -3.9136   1.6531   1.6671   2.0334

          k = 0.2500 0.0000 0.0000 (423725 PWs)   bands (ev):

   -16.8393  -5.6555  -3.9147  -3.9136   1.5894   1.7777   1.9647

          k = 0.2500 0.2500 0.0000 (423766 PWs)   bands (ev):

   -16.8393  -5.6555  -3.9147  -3.9136   1.6128   1.7982   1.8044

          k = 0.2500-0.5000 0.0000 (423782 PWs)   bands (ev):

   -16.8393  -5.6555  -3.9147  -3.9136   1.6766   1.6907   1.8655

          k = 0.2500-0.2500 0.0000 (423766 PWs)   bands (ev):

   -16.8393  -5.6555  -3.9147  -3.9136   1.6128   1.7983   1.8043

          k =-0.5000 0.0000 0.0000 (423542 PWs)   bands (ev):

   -16.8393  -5.6555  -3.9147  -3.9136   1.6546   1.6655   2.0296

          k =-0.5000 0.2500 0.0000 (423782 PWs)   bands (ev):

   -16.8393  -5.6555  -3.9147  -3.9136   1.6779   1.6889   1.8701

          k =-0.5000-0.5000 0.0000 (423708 PWs)   bands (ev):

   -16.8393  -5.6555  -3.9147  -3.9136   1.7411   1.7557   1.7634

 ------ SPIN DOWN ----------


          k = 0.0000 0.0000 0.0000 (423701 PWs)   bands (ev):

   -14.1489  -4.5605  -0.0705  -0.0651   1.5760   1.9480   1.9528

          k = 0.0000 0.2500 0.0000 (423725 PWs)   bands (ev):

   -14.1489  -4.5605  -0.0705  -0.0651   1.5993   1.7878   1.9752

          k = 0.0000-0.5000 0.0000 (423542 PWs)   bands (ev):

   -14.1489  -4.5605  -0.0705  -0.0651   1.6639   1.6761   2.0412

          k = 0.2500 0.0000 0.0000 (423725 PWs)   bands (ev):

   -14.1489  -4.5605  -0.0705  -0.0651   1.5994   1.7877   1.9751

          k = 0.2500 0.2500 0.0000 (423766 PWs)   bands (ev):

   -14.1489  -4.5605  -0.0705  -0.0651   1.6227   1.8089   1.8134

          k = 0.2500-0.5000 0.0000 (423782 PWs)   bands (ev):

   -14.1489  -4.5605  -0.0705  -0.0651   1.6874   1.6997   1.8791

          k = 0.2500-0.2500 0.0000 (423766 PWs)   bands (ev):

   -14.1489  -4.5605  -0.0705  -0.0651   1.6228   1.8090   1.8136

          k =-0.5000 0.0000 0.0000 (423542 PWs)   bands (ev):

   -14.1489  -4.5605  -0.0705  -0.0651   1.6657   1.6742   2.0426

          k =-0.5000 0.2500 0.0000 (423782 PWs)   bands (ev):

   -14.1489  -4.5605  -0.0705  -0.0651   1.6893   1.6976   1.8853

          k =-0.5000-0.5000 0.0000 (423708 PWs)   bands (ev):

   -14.1489  -4.5605  -0.0705  -0.0651   1.7519   1.7665   1.7683

     the Fermi energy is    -2.5419 ev

!    total energy              =     -21.09597590 Ry
     estimated scf accuracy    <          5.2E-10 Ry
     smearing contrib. (-TS)   =       0.00000000 Ry
     internal energy E=F+TS    =     -21.09597590 Ry

     The total energy is F=E-TS. E is the sum of the following terms:
     one-electron contribution =     -39.08154055 Ry
     hartree contribution      =      21.36746562 Ry
     xc contribution           =      -5.89733607 Ry
     ewald contribution        =       2.51543751 Ry
     Dispersion Correction     =      -0.00000240 Ry

     total magnetization       =     2.00 Bohr mag/cell
     absolute magnetization    =     2.05 Bohr mag/cell

     convergence has been achieved in   4 iterations

     negative rho (up, down):  2.776E-04 1.227E-04

     Forces acting on atoms (cartesian axes, Ry/au):

     atom    1 type  1   force =    -0.00000003    0.00008784    0.00462786
     atom    2 type  2   force =     0.00000003   -0.00008784   -0.00462742

     Total force =     0.004628     Total SCF correction =     0.000005
     Energy error            =      2.4E-05
     Gradient error          =      4.6E-03

     number of scf cycles    =   3
     number of bfgs steps    =   2

     energy   old            =     -21.0959522916 Ry
     energy   new            =     -21.0959758987 Ry

     CASE: energy  _new < energy  _old


     WARNING: bfgs curvature condition failed, Theta= 0.155
     new trust radius        =       0.0076459725 bohr
     new conv_thr            =       0.0000000012 Ry


ATOMIC_POSITIONS (angstrom)
N            10.0000000000       10.0000000000        0.0000000000    0   0   0
H            10.0000000409       11.0502753235       -0.0091949328



     Writing output data file ./NH_ESM_p25.save/
     NEW-OLD atomic charge density approx. for the potential

     negative rho (up, down):  1.542E-04 2.012E-04
     Generating pointlists ...

     total cpu time spent up to now is      345.3 secs

     Self-consistent Calculation

     iteration #  1     ecut=    60.00 Ry     beta= 0.70
     Davidson diagonalization with overlap
     ethr =  1.00E-06,  avg # of iterations =  2.0

     Threshold (ethr) on eigenvalues was too large:
     Diagonalizing with lowered threshold

     Davidson diagonalization with overlap
     ethr =  3.07E-08,  avg # of iterations =  1.0

     negative rho (up, down):  2.493E-04 1.412E-04

     total cpu time spent up to now is      366.3 secs

     total energy              =     -21.09601072 Ry
     estimated scf accuracy    <       0.00000183 Ry

     total magnetization       =     2.00 Bohr mag/cell
     absolute magnetization    =     2.05 Bohr mag/cell

     iteration #  2     ecut=    60.00 Ry     beta= 0.70
     Davidson diagonalization with overlap
     ethr =  3.05E-08,  avg # of iterations =  1.0

     negative rho (up, down):  2.752E-04 1.211E-04

     total cpu time spent up to now is      381.3 secs

     total energy              =     -21.09601112 Ry
     estimated scf accuracy    <       0.00000023 Ry

     total magnetization       =     2.00 Bohr mag/cell
     absolute magnetization    =     2.05 Bohr mag/cell

     iteration #  3     ecut=    60.00 Ry     beta= 0.70
     Davidson diagonalization with overlap
     ethr =  3.79E-09,  avg # of iterations =  2.5

     negative rho (up, down):  2.772E-04 1.218E-04

     total cpu time spent up to now is      397.2 secs

     total energy              =     -21.09601127 Ry
     estimated scf accuracy    <       0.00000001 Ry

     total magnetization       =     2.00 Bohr mag/cell
     absolute magnetization    =     2.05 Bohr mag/cell

     iteration #  4     ecut=    60.00 Ry     beta= 0.70
     Davidson diagonalization with overlap
     ethr =  1.98E-10,  avg # of iterations =  3.0

     negative rho (up, down):  2.777E-04 1.222E-04

     total cpu time spent up to now is      413.4 secs

     total energy              =     -21.09601129 Ry
     estimated scf accuracy    <          1.6E-09 Ry

     total magnetization       =     2.00 Bohr mag/cell
     absolute magnetization    =     2.05 Bohr mag/cell

     iteration #  5     ecut=    60.00 Ry     beta= 0.70
     Davidson diagonalization with overlap
     ethr =  2.68E-11,  avg # of iterations =  2.0

     negative rho (up, down):  2.776E-04 1.227E-04

     Magnetic moment per site:
     atom:    1    charge:    1.3479    magn:    0.5563    constr:    0.0000
     atom:    2    charge:    0.4611    magn:   -0.0087    constr:    0.0000

     total cpu time spent up to now is      427.1 secs

     End of self-consistent calculation

 ------ SPIN UP ------------


          k = 0.0000 0.0000 0.0000 (423701 PWs)   bands (ev):

   -16.8385  -5.6552  -3.9145  -3.9133   1.5658   1.9353   1.9447

          k = 0.0000 0.2500 0.0000 (423725 PWs)   bands (ev):

   -16.8385  -5.6552  -3.9145  -3.9133   1.5892   1.7778   1.9646

          k = 0.0000-0.5000 0.0000 (423542 PWs)   bands (ev):

   -16.8385  -5.6552  -3.9145  -3.9133   1.6530   1.6669   2.0333

          k = 0.2500 0.0000 0.0000 (423725 PWs)   bands (ev):

   -16.8385  -5.6552  -3.9145  -3.9133   1.5892   1.7775   1.9645

          k = 0.2500 0.2500 0.0000 (423766 PWs)   bands (ev):

   -16.8385  -5.6552  -3.9145  -3.9133   1.6126   1.7981   1.8042

          k = 0.2500-0.5000 0.0000 (423782 PWs)   bands (ev):

   -16.8385  -5.6552  -3.9145  -3.9133   1.6764   1.6905   1.8654

          k = 0.2500-0.2500 0.0000 (423766 PWs)   bands (ev):

   -16.8385  -5.6552  -3.9145  -3.9133   1.6126   1.7981   1.8042

          k =-0.5000 0.0000 0.0000 (423542 PWs)   bands (ev):

   -16.8385  -5.6552  -3.9145  -3.9133   1.6545   1.6654   2.0294

          k =-0.5000 0.2500 0.0000 (423782 PWs)   bands (ev):

   -16.8385  -5.6552  -3.9145  -3.9133   1.6778   1.6888   1.8699

          k =-0.5000-0.5000 0.0000 (423708 PWs)   bands (ev):

   -16.8385  -5.6552  -3.9145  -3.9133   1.7409   1.7556   1.7632

 ------ SPIN DOWN ----------


          k = 0.0000 0.0000 0.0000 (423701 PWs)   bands (ev):

   -14.1479  -4.5604  -0.0703  -0.0649   1.5759   1.9479   1.9528

          k = 0.0000 0.2500 0.0000 (423725 PWs)   bands (ev):

   -14.1479  -4.5604  -0.0703  -0.0649   1.5992   1.7877   1.9751

          k = 0.0000-0.5000 0.0000 (423542 PWs)   bands (ev):

   -14.1479  -4.5604  -0.0703  -0.0649   1.6639   1.6760   2.0411

          k = 0.2500 0.0000 0.0000 (423725 PWs)   bands (ev):

   -14.1479  -4.5604  -0.0703  -0.0649   1.5993   1.7876   1.9750

          k = 0.2500 0.2500 0.0000 (423766 PWs)   bands (ev):

   -14.1479  -4.5604  -0.0703  -0.0649   1.6227   1.8089   1.8133

          k = 0.2500-0.5000 0.0000 (423782 PWs)   bands (ev):

   -14.1479  -4.5604  -0.0703  -0.0649   1.6873   1.6996   1.8790

          k = 0.2500-0.2500 0.0000 (423766 PWs)   bands (ev):

   -14.1479  -4.5604  -0.0703  -0.0649   1.6227   1.8089   1.8135

          k =-0.5000 0.0000 0.0000 (423542 PWs)   bands (ev):

   -14.1479  -4.5604  -0.0703  -0.0649   1.6656   1.6742   2.0425

          k =-0.5000 0.2500 0.0000 (423782 PWs)   bands (ev):

   -14.1479  -4.5604  -0.0703  -0.0649   1.6892   1.6976   1.8852

          k =-0.5000-0.5000 0.0000 (423708 PWs)   bands (ev):

   -14.1479  -4.5604  -0.0703  -0.0649   1.7519   1.7664   1.7682

     the Fermi energy is    -2.5417 ev

!    total energy              =     -21.09601129 Ry
     estimated scf accuracy    <          2.8E-10 Ry
     smearing contrib. (-TS)   =       0.00000000 Ry
     internal energy E=F+TS    =     -21.09601129 Ry

     The total energy is F=E-TS. E is the sum of the following terms:
     one-electron contribution =     -39.08094112 Ry
     hartree contribution      =      21.36727348 Ry
     xc contribution           =      -5.89729389 Ry
     ewald contribution        =       2.51495263 Ry
     Dispersion Correction     =      -0.00000240 Ry

     total magnetization       =     2.00 Bohr mag/cell
     absolute magnetization    =     2.05 Bohr mag/cell

     convergence has been achieved in   5 iterations

     negative rho (up, down):  2.776E-04 1.227E-04

     Forces acting on atoms (cartesian axes, Ry/au):

     atom    1 type  1   force =     0.00000002    0.00022135    0.00463511
     atom    2 type  2   force =    -0.00000002   -0.00022135   -0.00462623

     Total force =     0.004632     Total SCF correction =     0.000002
     Energy error            =      3.5E-05
     Gradient error          =      4.6E-03

     number of scf cycles    =   4
     number of bfgs steps    =   3

     energy   old            =     -21.0959758987 Ry
     energy   new            =     -21.0960112895 Ry

     CASE: energy  _new < energy  _old

     new trust radius        =       0.0114689587 bohr
     new conv_thr            =       0.0000000012 Ry


ATOMIC_POSITIONS (angstrom)
N            10.0000000000       10.0000000000        0.0000000000    0   0   0
H            10.0000000545       11.0502902555       -0.0152640260



     Writing output data file ./NH_ESM_p25.save/
     NEW-OLD atomic charge density approx. for the potential

     negative rho (up, down):  1.542E-04 2.027E-04
     Generating pointlists ...

     total cpu time spent up to now is      448.6 secs

     Self-consistent Calculation

     iteration #  1     ecut=    60.00 Ry     beta= 0.70
     Davidson diagonalization with overlap
     ethr =  1.00E-06,  avg # of iterations =  2.0

     Threshold (ethr) on eigenvalues was too large:
     Diagonalizing with lowered threshold

     Davidson diagonalization with overlap
     ethr =  6.89E-08,  avg # of iterations =  1.0

     negative rho (up, down):  2.513E-04 1.454E-04

     total cpu time spent up to now is      469.5 secs

     total energy              =     -21.09606308 Ry
     estimated scf accuracy    <       0.00000411 Ry

     total magnetization       =     2.00 Bohr mag/cell
     absolute magnetization    =     2.05 Bohr mag/cell

     iteration #  2     ecut=    60.00 Ry     beta= 0.70
     Davidson diagonalization with overlap
     ethr =  6.84E-08,  avg # of iterations =  1.4

     negative rho (up, down):  2.756E-04 1.221E-04

     total cpu time spent up to now is      484.6 secs

     total energy              =     -21.09606400 Ry
     estimated scf accuracy    <       0.00000051 Ry

     total magnetization       =     2.00 Bohr mag/cell
     absolute magnetization    =     2.05 Bohr mag/cell

     iteration #  3     ecut=    60.00 Ry     beta= 0.70
     Davidson diagonalization with overlap
     ethr =  8.48E-09,  avg # of iterations =  2.5

     negative rho (up, down):  2.773E-04 1.219E-04

     total cpu time spent up to now is      500.3 secs

     total energy              =     -21.09606432 Ry
     estimated scf accuracy    <       0.00000003 Ry

     total magnetization       =     2.00 Bohr mag/cell
     absolute magnetization    =     2.05 Bohr mag/cell

     iteration #  4     ecut=    60.00 Ry     beta= 0.70
     Davidson diagonalization with overlap
     ethr =  4.44E-10,  avg # of iterations =  3.0

     negative rho (up, down):  2.777E-04 1.222E-04

     total cpu time spent up to now is      516.4 secs

     total energy              =     -21.09606436 Ry
     estimated scf accuracy    <          4.0E-09 Ry

     total magnetization       =     2.00 Bohr mag/cell
     absolute magnetization    =     2.05 Bohr mag/cell

     iteration #  5     ecut=    60.00 Ry     beta= 0.70
     Davidson diagonalization with overlap
     ethr =  6.65E-11,  avg # of iterations =  2.0

     negative rho (up, down):  2.776E-04 1.227E-04

     Magnetic moment per site:
     atom:    1    charge:    1.3479    magn:    0.5563    constr:    0.0000
     atom:    2    charge:    0.4609    magn:   -0.0087    constr:    0.0000

     total cpu time spent up to now is      530.3 secs

     End of self-consistent calculation

 ------ SPIN UP ------------


          k = 0.0000 0.0000 0.0000 (423701 PWs)   bands (ev):

   -16.8372  -5.6547  -3.9141  -3.9129   1.5659   1.9354   1.9448

          k = 0.0000 0.2500 0.0000 (423725 PWs)   bands (ev):

   -16.8372  -5.6547  -3.9141  -3.9129   1.5893   1.7778   1.9646

          k = 0.0000-0.5000 0.0000 (423542 PWs)   bands (ev):

   -16.8372  -5.6547  -3.9141  -3.9129   1.6531   1.6670   2.0333

          k = 0.2500 0.0000 0.0000 (423725 PWs)   bands (ev):

   -16.8372  -5.6547  -3.9141  -3.9129   1.5893   1.7776   1.9646

          k = 0.2500 0.2500 0.0000 (423766 PWs)   bands (ev):

   -16.8372  -5.6547  -3.9141  -3.9129   1.6127   1.7982   1.8042

          k = 0.2500-0.5000 0.0000 (423782 PWs)   bands (ev):

   -16.8372  -5.6547  -3.9141  -3.9129   1.6766   1.6906   1.8655

          k = 0.2500-0.2500 0.0000 (423766 PWs)   bands (ev):

   -16.8372  -5.6547  -3.9141  -3.9129   1.6127   1.7982   1.8042

          k =-0.5000 0.0000 0.0000 (423542 PWs)   bands (ev):

   -16.8372  -5.6547  -3.9141  -3.9129   1.6546   1.6654   2.0295

          k =-0.5000 0.2500 0.0000 (423782 PWs)   bands (ev):

   -16.8372  -5.6547  -3.9141  -3.9129   1.6779   1.6889   1.8700

          k =-0.5000-0.5000 0.0000 (423708 PWs)   bands (ev):

   -16.8372  -5.6547  -3.9141  -3.9129   1.7411   1.7557   1.7633

 ------ SPIN DOWN ----------


          k = 0.0000 0.0000 0.0000 (423701 PWs)   bands (ev):

   -14.1465  -4.5601  -0.0698  -0.0644   1.5760   1.9481   1.9528

          k = 0.0000 0.2500 0.0000 (423725 PWs)   bands (ev):

   -14.1465  -4.5601  -0.0698  -0.0644   1.5993   1.7878   1.9752

          k = 0.0000-0.5000 0.0000 (423542 PWs)   bands (ev):

   -14.1465  -4.5601  -0.0698  -0.0644   1.6640   1.6761   2.0412

          k = 0.2500 0.0000 0.0000 (423725 PWs)   bands (ev):

   -14.1465  -4.5601  -0.0698  -0.0644   1.5994   1.7877   1.9751

          k = 0.2500 0.2500 0.0000 (423766 PWs)   bands (ev):

   -14.1465  -4.5601  -0.0698  -0.0644   1.6228   1.8090   1.8134

          k = 0.2500-0.5000 0.0000 (423782 PWs)   bands (ev):

   -14.1465  -4.5601  -0.0699  -0.0644   1.6875   1.6996   1.8791

          k = 0.2500-0.2500 0.0000 (423766 PWs)   bands (ev):

   -14.1465  -4.5601  -0.0698  -0.0644   1.6228   1.8090   1.8135

          k =-0.5000 0.0000 0.0000 (423542 PWs)   bands (ev):

   -14.1465  -4.5601  -0.0698  -0.0644   1.6657   1.6742   2.0426

          k =-0.5000 0.2500 0.0000 (423782 PWs)   bands (ev):

   -14.1465  -4.5601  -0.0699  -0.0644   1.6893   1.6977   1.8852

          k =-0.5000-0.5000 0.0000 (423708 PWs)   bands (ev):

   -14.1465  -4.5601  -0.0698  -0.0644   1.7521   1.7665   1.7683

     the Fermi energy is    -2.5413 ev

!    total energy              =     -21.09606436 Ry
     estimated scf accuracy    <          6.6E-10 Ry
     smearing contrib. (-TS)   =       0.00000000 Ry
     internal energy E=F+TS    =     -21.09606436 Ry

     The total energy is F=E-TS. E is the sum of the following terms:
     one-electron contribution =     -39.08022781 Ry
     hartree contribution      =      21.36704622 Ry
     xc contribution           =      -5.89724111 Ry
     ewald contribution        =       2.51436074 Ry
     Dispersion Correction     =      -0.00000240 Ry

     total magnetization       =     2.00 Bohr mag/cell
     absolute magnetization    =     2.05 Bohr mag/cell

     convergence has been achieved in   5 iterations

     negative rho (up, down):  2.776E-04 1.227E-04

     Forces acting on atoms (cartesian axes, Ry/au):

     atom    1 type  1   force =    -0.00000006    0.00038014    0.00463412
     atom    2 type  2   force =     0.00000006   -0.00038014   -0.00462093

     Total force =     0.004637     Total SCF correction =     0.000003
     Energy error            =      5.3E-05
     Gradient error          =      4.6E-03

     number of scf cycles    =   5
     number of bfgs steps    =   4

     energy   old            =     -21.0960112895 Ry
     energy   new            =     -21.0960643625 Ry

     CASE: energy  _new < energy  _old

     new trust radius        =       0.0172034381 bohr
     new conv_thr            =       0.0000000012 Ry


ATOMIC_POSITIONS (angstrom)
N            10.0000000000       10.0000000000        0.0000000000    0   0   0
H            10.0000001478       11.0502559712       -0.0243676288



     Writing output data file ./NH_ESM_p25.save/
     NEW-OLD atomic charge density approx. for the potential

     negative rho (up, down):  1.547E-04 2.127E-04
     Generating pointlists ...

     total cpu time spent up to now is      551.5 secs

     Self-consistent Calculation

     iteration #  1     ecut=    60.00 Ry     beta= 0.70
     Davidson diagonalization with overlap
     ethr =  1.00E-06,  avg # of iterations =  2.5

     negative rho (up, down):  3.774E-04 3.272E-04

     total cpu time spent up to now is      567.5 secs

     total energy              =     -21.09614015 Ry
     estimated scf accuracy    <       0.00000927 Ry

     total magnetization       =     2.00 Bohr mag/cell
     absolute magnetization    =     2.05 Bohr mag/cell

     iteration #  2     ecut=    60.00 Ry     beta= 0.70
     Davidson diagonalization with overlap
     ethr =  1.55E-07,  avg # of iterations =  1.5

     negative rho (up, down):  3.032E-04 1.662E-04

     total cpu time spent up to now is      582.6 secs

     total energy              =     -21.09614286 Ry
     estimated scf accuracy    <       0.00000113 Ry

     total magnetization       =     2.00 Bohr mag/cell
     absolute magnetization    =     2.05 Bohr mag/cell

     iteration #  3     ecut=    60.00 Ry     beta= 0.70
     Davidson diagonalization with overlap
     ethr =  1.88E-08,  avg # of iterations =  2.5

     negative rho (up, down):  2.826E-04 1.301E-04

     total cpu time spent up to now is      598.4 secs

     total energy              =     -21.09614379 Ry
     estimated scf accuracy    <       0.00000005 Ry

     total magnetization       =     2.00 Bohr mag/cell
     absolute magnetization    =     2.05 Bohr mag/cell

     iteration #  4     ecut=    60.00 Ry     beta= 0.70
     Davidson diagonalization with overlap
     ethr =  8.95E-10,  avg # of iterations =  3.0

     negative rho (up, down):  2.788E-04 1.238E-04

     total cpu time spent up to now is      614.6 secs

     total energy              =     -21.09614392 Ry
     estimated scf accuracy    <          9.0E-09 Ry

     total magnetization       =     2.00 Bohr mag/cell
     absolute magnetization    =     2.05 Bohr mag/cell

     iteration #  5     ecut=    60.00 Ry     beta= 0.70
     Davidson diagonalization with overlap
     ethr =  1.51E-10,  avg # of iterations =  2.0

     negative rho (up, down):  2.778E-04 1.228E-04

     total cpu time spent up to now is      630.5 secs

     total energy              =     -21.09614393 Ry
     estimated scf accuracy    <          1.5E-09 Ry

     total magnetization       =     2.00 Bohr mag/cell
     absolute magnetization    =     2.05 Bohr mag/cell

     iteration #  6     ecut=    60.00 Ry     beta= 0.70
     Davidson diagonalization with overlap
     ethr =  2.54E-11,  avg # of iterations =  2.5

     negative rho (up, down):  2.776E-04 1.227E-04

     Magnetic moment per site:
     atom:    1    charge:    1.3479    magn:    0.5563    constr:    0.0000
     atom:    2    charge:    0.4604    magn:   -0.0087    constr:    0.0000

     total cpu time spent up to now is      644.7 secs

     End of self-consistent calculation

 ------ SPIN UP ------------


          k = 0.0000 0.0000 0.0000 (423701 PWs)   bands (ev):

   -16.8352  -5.6538  -3.9133  -3.9122   1.5660   1.9356   1.9449

          k = 0.0000 0.2500 0.0000 (423725 PWs)   bands (ev):

   -16.8352  -5.6538  -3.9133  -3.9122   1.5895   1.7780   1.9648

          k = 0.0000-0.5000 0.0000 (423542 PWs)   bands (ev):

   -16.8352  -5.6538  -3.9133  -3.9122   1.6534   1.6671   2.0335

          k = 0.2500 0.0000 0.0000 (423725 PWs)   bands (ev):

   -16.8352  -5.6538  -3.9133  -3.9122   1.5895   1.7778   1.9647

          k = 0.2500 0.2500 0.0000 (423766 PWs)   bands (ev):

   -16.8352  -5.6538  -3.9133  -3.9122   1.6129   1.7984   1.8043

          k = 0.2500-0.5000 0.0000 (423782 PWs)   bands (ev):

   -16.8352  -5.6538  -3.9133  -3.9122   1.6768   1.6906   1.8657

          k = 0.2500-0.2500 0.0000 (423766 PWs)   bands (ev):

   -16.8352  -5.6538  -3.9133  -3.9122   1.6129   1.7984   1.8043

          k =-0.5000 0.0000 0.0000 (423542 PWs)   bands (ev):

   -16.8352  -5.6538  -3.9133  -3.9122   1.6548   1.6655   2.0298

          k =-0.5000 0.2500 0.0000 (423782 PWs)   bands (ev):

   -16.8352  -5.6538  -3.9133  -3.9122   1.6781   1.6890   1.8702

          k =-0.5000-0.5000 0.0000 (423708 PWs)   bands (ev):

   -16.8352  -5.6538  -3.9133  -3.9122   1.7414   1.7558   1.7633

 ------ SPIN DOWN ----------


          k = 0.0000 0.0000 0.0000 (423701 PWs)   bands (ev):

   -14.1442  -4.5595  -0.0691  -0.0636   1.5761   1.9483   1.9530

          k = 0.0000 0.2500 0.0000 (423725 PWs)   bands (ev):

   -14.1442  -4.5595  -0.0691  -0.0636   1.5995   1.7880   1.9753

          k = 0.0000-0.5000 0.0000 (423542 PWs)   bands (ev):

   -14.1442  -4.5595  -0.0691  -0.0636   1.6643   1.6762   2.0415

          k = 0.2500 0.0000 0.0000 (423725 PWs)   bands (ev):

   -14.1442  -4.5595  -0.0691  -0.0636   1.5996   1.7878   1.9753

          k = 0.2500 0.2500 0.0000 (423766 PWs)   bands (ev):

   -14.1442  -4.5595  -0.0691  -0.0636   1.6230   1.8092   1.8135

          k = 0.2500-0.5000 0.0000 (423782 PWs)   bands (ev):

   -14.1442  -4.5595  -0.0691  -0.0636   1.6877   1.6997   1.8794

          k = 0.2500-0.2500 0.0000 (423766 PWs)   bands (ev):

   -14.1442  -4.5595  -0.0691  -0.0636   1.6230   1.8092   1.8136

          k =-0.5000 0.0000 0.0000 (423542 PWs)   bands (ev):

   -14.1442  -4.5595  -0.0690  -0.0636   1.6660   1.6743   2.0428

          k =-0.5000 0.2500 0.0000 (423782 PWs)   bands (ev):

   -14.1442  -4.5595  -0.0691  -0.0636   1.6895   1.6978   1.8854

          k =-0.5000-0.5000 0.0000 (423708 PWs)   bands (ev):

   -14.1442  -4.5595  -0.0691  -0.0636   1.7524   1.7667   1.7684

     the Fermi energy is    -2.5406 ev

!    total energy              =     -21.09614393 Ry
     estimated scf accuracy    <          1.9E-10 Ry
     smearing contrib. (-TS)   =       0.00000000 Ry
     internal energy E=F+TS    =     -21.09614393 Ry

     The total energy is F=E-TS. E is the sum of the following terms:
     one-electron contribution =     -39.07903768 Ry
     hartree contribution      =      21.36660644 Ry
     xc contribution           =      -5.89713911 Ry
     ewald contribution        =       2.51342883 Ry
     Dispersion Correction     =      -0.00000240 Ry

     total magnetization       =     2.00 Bohr mag/cell
     absolute magnetization    =     2.05 Bohr mag/cell

     convergence has been achieved in   6 iterations

     negative rho (up, down):  2.776E-04 1.227E-04

     Forces acting on atoms (cartesian axes, Ry/au):

     atom    1 type  1   force =    -0.00000001    0.00062382    0.00462605
     atom    2 type  2   force =     0.00000001   -0.00062382   -0.00462033

     Total force =     0.004662     Total SCF correction =     0.000003
     Energy error            =      8.0E-05
     Gradient error          =      4.6E-03

     number of scf cycles    =   6
     number of bfgs steps    =   5

     energy   old            =     -21.0960643625 Ry
     energy   new            =     -21.0961439305 Ry

     CASE: energy  _new < energy  _old


     WARNING: bfgs curvature condition failed, Theta= 0.765
     new trust radius        =       0.0258051572 bohr
     new conv_thr            =       0.0000000012 Ry


ATOMIC_POSITIONS (angstrom)
N            10.0000000000       10.0000000000        0.0000000000    0   0   0
H            10.0000002956       11.0502255880       -0.0380230962



     Writing output data file ./NH_ESM_p25.save/
     NEW-OLD atomic charge density approx. for the potential

     negative rho (up, down):  1.589E-04 2.025E-04
     Generating pointlists ...

     total cpu time spent up to now is      666.4 secs

     Self-consistent Calculation

     iteration #  1     ecut=    60.00 Ry     beta= 0.70
     Davidson diagonalization with overlap
     ethr =  1.00E-06,  avg # of iterations =  3.0

     negative rho (up, down):  2.848E-04 1.946E-04

     total cpu time spent up to now is      682.7 secs

     total energy              =     -21.09625639 Ry
     estimated scf accuracy    <       0.00002086 Ry

     total magnetization       =     2.00 Bohr mag/cell
     absolute magnetization    =     2.05 Bohr mag/cell

     iteration #  2     ecut=    60.00 Ry     beta= 0.70
     Davidson diagonalization with overlap
     ethr =  3.48E-07,  avg # of iterations =  1.5

     negative rho (up, down):  2.825E-04 1.338E-04

     total cpu time spent up to now is      697.8 secs

     total energy              =     -21.09626104 Ry
     estimated scf accuracy    <       0.00000256 Ry

     total magnetization       =     2.00 Bohr mag/cell
     absolute magnetization    =     2.05 Bohr mag/cell

     iteration #  3     ecut=    60.00 Ry     beta= 0.70
     Davidson diagonalization with overlap
     ethr =  4.27E-08,  avg # of iterations =  2.5

     negative rho (up, down):  2.787E-04 1.241E-04

     total cpu time spent up to now is      714.7 secs

     total energy              =     -21.09626261 Ry
     estimated scf accuracy    <       0.00000012 Ry

     total magnetization       =     2.00 Bohr mag/cell
     absolute magnetization    =     2.05 Bohr mag/cell

     iteration #  4     ecut=    60.00 Ry     beta= 0.70
     Davidson diagonalization with overlap
     ethr =  1.98E-09,  avg # of iterations =  3.0

     negative rho (up, down):  2.779E-04 1.227E-04

     total cpu time spent up to now is      730.8 secs

     total energy              =     -21.09626280 Ry
     estimated scf accuracy    <       0.00000001 Ry

     total magnetization       =     2.00 Bohr mag/cell
     absolute magnetization    =     2.05 Bohr mag/cell

     iteration #  5     ecut=    60.00 Ry     beta= 0.70
     Davidson diagonalization with overlap
     ethr =  2.26E-10,  avg # of iterations =  2.5

     negative rho (up, down):  2.776E-04 1.227E-04

     total cpu time spent up to now is      746.8 secs

     total energy              =     -21.09626281 Ry
     estimated scf accuracy    <          2.5E-09 Ry

     total magnetization       =     2.00 Bohr mag/cell
     absolute magnetization    =     2.05 Bohr mag/cell

     iteration #  6     ecut=    60.00 Ry     beta= 0.70
     Davidson diagonalization with overlap
     ethr =  4.23E-11,  avg # of iterations =  2.5

     negative rho (up, down):  2.776E-04 1.227E-04

     Magnetic moment per site:
     atom:    1    charge:    1.3479    magn:    0.5563    constr:    0.0000
     atom:    2    charge:    0.4602    magn:   -0.0088    constr:    0.0000

     total cpu time spent up to now is      761.1 secs

     End of self-consistent calculation

 ------ SPIN UP ------------


          k = 0.0000 0.0000 0.0000 (423701 PWs)   bands (ev):

   -16.8313  -5.6524  -3.9122  -3.9110   1.5663   1.9360   1.9450

          k = 0.0000 0.2500 0.0000 (423725 PWs)   bands (ev):

   -16.8313  -5.6524  -3.9122  -3.9110   1.5897   1.7782   1.9650

          k = 0.0000-0.5000 0.0000 (423542 PWs)   bands (ev):

   -16.8313  -5.6524  -3.9122  -3.9110   1.6537   1.6672   2.0337

          k = 0.2500 0.0000 0.0000 (423725 PWs)   bands (ev):

   -16.8313  -5.6524  -3.9122  -3.9110   1.5897   1.7780   1.9650

          k = 0.2500 0.2500 0.0000 (423766 PWs)   bands (ev):

   -16.8313  -5.6524  -3.9122  -3.9110   1.6131   1.7986   1.8045

          k = 0.2500-0.5000 0.0000 (423782 PWs)   bands (ev):

   -16.8313  -5.6524  -3.9122  -3.9110   1.6771   1.6908   1.8659

          k = 0.2500-0.2500 0.0000 (423766 PWs)   bands (ev):

   -16.8313  -5.6524  -3.9122  -3.9110   1.6131   1.7986   1.8045

          k =-0.5000 0.0000 0.0000 (423542 PWs)   bands (ev):

   -16.8313  -5.6524  -3.9122  -3.9110   1.6551   1.6656   2.0301

          k =-0.5000 0.2500 0.0000 (423782 PWs)   bands (ev):

   -16.8313  -5.6524  -3.9122  -3.9110   1.6785   1.6891   1.8704

          k =-0.5000-0.5000 0.0000 (423708 PWs)   bands (ev):

   -16.8313  -5.6524  -3.9122  -3.9110   1.7418   1.7560   1.7634

 ------ SPIN DOWN ----------


          k = 0.0000 0.0000 0.0000 (423701 PWs)   bands (ev):

   -14.1398  -4.5586  -0.0679  -0.0625   1.5764   1.9486   1.9532

          k = 0.0000 0.2500 0.0000 (423725 PWs)   bands (ev):

   -14.1398  -4.5586  -0.0679  -0.0625   1.5998   1.7882   1.9756

          k = 0.0000-0.5000 0.0000 (423542 PWs)   bands (ev):

   -14.1398  -4.5586  -0.0679  -0.0625   1.6646   1.6763   2.0418

          k = 0.2500 0.0000 0.0000 (423725 PWs)   bands (ev):

   -14.1398  -4.5586  -0.0679  -0.0625   1.5998   1.7880   1.9756

          k = 0.2500 0.2500 0.0000 (423766 PWs)   bands (ev):

   -14.1398  -4.5586  -0.0679  -0.0625   1.6232   1.8095   1.8137

          k = 0.2500-0.5000 0.0000 (423782 PWs)   bands (ev):

   -14.1398  -4.5586  -0.0679  -0.0625   1.6880   1.6999   1.8796

          k = 0.2500-0.2500 0.0000 (423766 PWs)   bands (ev):

   -14.1398  -4.5586  -0.0679  -0.0625   1.6232   1.8094   1.8138

          k =-0.5000 0.0000 0.0000 (423542 PWs)   bands (ev):

   -14.1398  -4.5586  -0.0679  -0.0625   1.6663   1.6745   2.0431

          k =-0.5000 0.2500 0.0000 (423782 PWs)   bands (ev):

   -14.1398  -4.5586  -0.0679  -0.0625   1.6898   1.6980   1.8855

          k =-0.5000-0.5000 0.0000 (423708 PWs)   bands (ev):

   -14.1398  -4.5586  -0.0679  -0.0625   1.7529   1.7669   1.7686

     the Fermi energy is    -2.5394 ev

!    total energy              =     -21.09626282 Ry
     estimated scf accuracy    <          4.6E-10 Ry
     smearing contrib. (-TS)   =       0.00000000 Ry
     internal energy E=F+TS    =     -21.09626282 Ry

     The total energy is F=E-TS. E is the sum of the following terms:
     one-electron contribution =     -39.07596024 Ry
     hartree contribution      =      21.36534488 Ry
     xc contribution           =      -5.89686583 Ry
     ewald contribution        =       2.51122077 Ry
     Dispersion Correction     =      -0.00000240 Ry

     total magnetization       =     2.00 Bohr mag/cell
     absolute magnetization    =     2.05 Bohr mag/cell

     convergence has been achieved in   6 iterations

     negative rho (up, down):  2.776E-04 1.227E-04

     Forces acting on atoms (cartesian axes, Ry/au):

     atom    1 type  1   force =    -0.00000002    0.00122084    0.00459824
     atom    2 type  2   force =     0.00000002   -0.00122084   -0.00459238

     Total force =     0.004752     Total SCF correction =     0.000006
     Energy error            =      1.2E-04
     Gradient error          =      4.6E-03

     number of scf cycles    =   7
     number of bfgs steps    =   6

     energy   old            =     -21.0961439305 Ry
     energy   new            =     -21.0962628163 Ry

     CASE: energy  _new < energy  _old

     new trust radius        =       0.0387077358 bohr
     new conv_thr            =       0.0000000012 Ry


ATOMIC_POSITIONS (angstrom)
N            10.0000000000       10.0000000000        0.0000000000    0   0   0
H            10.0000006134       11.0501582839       -0.0585062372



     Writing output data file ./NH_ESM_p25.save/
     NEW-OLD atomic charge density approx. for the potential

     negative rho (up, down):  1.560E-04 2.152E-04
     Generating pointlists ...

     total cpu time spent up to now is      782.7 secs

     Self-consistent Calculation

     iteration #  1     ecut=    60.00 Ry     beta= 0.70
     Davidson diagonalization with overlap
     ethr =  1.00E-06,  avg # of iterations =  3.0

     negative rho (up, down):  4.562E-04 4.130E-04

     total cpu time spent up to now is      799.1 secs

     total energy              =     -21.09642393 Ry
     estimated scf accuracy    <       0.00004681 Ry

     total magnetization       =     2.00 Bohr mag/cell
     absolute magnetization    =     2.05 Bohr mag/cell

     iteration #  2     ecut=    60.00 Ry     beta= 0.70
     Davidson diagonalization with overlap
     ethr =  7.80E-07,  avg # of iterations =  1.5

     negative rho (up, down):  3.243E-04 1.929E-04

     total cpu time spent up to now is      814.2 secs

     total energy              =     -21.09643487 Ry
     estimated scf accuracy    <       0.00000573 Ry

     total magnetization       =     2.00 Bohr mag/cell
     absolute magnetization    =     2.05 Bohr mag/cell

     iteration #  3     ecut=    60.00 Ry     beta= 0.70
     Davidson diagonalization with overlap
     ethr =  9.56E-08,  avg # of iterations =  2.5

     negative rho (up, down):  2.874E-04 1.367E-04

     total cpu time spent up to now is      830.0 secs

     total energy              =     -21.09643848 Ry
     estimated scf accuracy    <       0.00000027 Ry

     total magnetization       =     2.00 Bohr mag/cell
     absolute magnetization    =     2.05 Bohr mag/cell

     iteration #  4     ecut=    60.00 Ry     beta= 0.70
     Davidson diagonalization with overlap
     ethr =  4.49E-09,  avg # of iterations =  3.0

     negative rho (up, down):  2.794E-04 1.250E-04

     total cpu time spent up to now is      846.1 secs

     total energy              =     -21.09643894 Ry
     estimated scf accuracy    <       0.00000003 Ry

     total magnetization       =     2.00 Bohr mag/cell
     absolute magnetization    =     2.05 Bohr mag/cell

     iteration #  5     ecut=    60.00 Ry     beta= 0.70
     Davidson diagonalization with overlap
     ethr =  4.81E-10,  avg # of iterations =  2.2

     negative rho (up, down):  2.777E-04 1.229E-04

     total cpu time spent up to now is      862.2 secs

     total energy              =     -21.09643897 Ry
     estimated scf accuracy    <          4.5E-09 Ry

     total magnetization       =     2.00 Bohr mag/cell
     absolute magnetization    =     2.05 Bohr mag/cell

     iteration #  6     ecut=    60.00 Ry     beta= 0.70
     Davidson diagonalization with overlap
     ethr =  7.52E-11,  avg # of iterations =  2.8

     negative rho (up, down):  2.775E-04 1.226E-04

     Magnetic moment per site:
     atom:    1    charge:    1.3477    magn:    0.5564    constr:    0.0000
     atom:    2    charge:    0.4596    magn:   -0.0088    constr:    0.0000

     total cpu time spent up to now is      876.5 secs

     End of self-consistent calculation

 ------ SPIN UP ------------


          k = 0.0000 0.0000 0.0000 (423701 PWs)   bands (ev):

   -16.8236  -5.6499  -3.9104  -3.9093   1.5667   1.9365   1.9453

          k = 0.0000 0.2500 0.0000 (423725 PWs)   bands (ev):

   -16.8236  -5.6499  -3.9104  -3.9093   1.5901   1.7785   1.9654

          k = 0.0000-0.5000 0.0000 (423542 PWs)   bands (ev):

   -16.8236  -5.6499  -3.9104  -3.9093   1.6542   1.6675   2.0341

          k = 0.2500 0.0000 0.0000 (423725 PWs)   bands (ev):

   -16.8236  -5.6499  -3.9104  -3.9093   1.5901   1.7784   1.9654

          k = 0.2500 0.2500 0.0000 (423766 PWs)   bands (ev):

   -16.8236  -5.6499  -3.9104  -3.9093   1.6135   1.7991   1.8048

          k = 0.2500-0.5000 0.0000 (423782 PWs)   bands (ev):

   -16.8236  -5.6499  -3.9104  -3.9093   1.6776   1.6910   1.8664

          k = 0.2500-0.2500 0.0000 (423766 PWs)   bands (ev):

   -16.8236  -5.6499  -3.9104  -3.9093   1.6135   1.7991   1.8048

          k =-0.5000 0.0000 0.0000 (423542 PWs)   bands (ev):

   -16.8236  -5.6499  -3.9104  -3.9093   1.6556   1.6659   2.0306

          k =-0.5000 0.2500 0.0000 (423782 PWs)   bands (ev):

   -16.8236  -5.6499  -3.9104  -3.9093   1.6790   1.6893   1.8708

          k =-0.5000-0.5000 0.0000 (423708 PWs)   bands (ev):

   -16.8236  -5.6499  -3.9104  -3.9093   1.7425   1.7563   1.7636

 ------ SPIN DOWN ----------


          k = 0.0000 0.0000 0.0000 (423701 PWs)   bands (ev):

   -14.1309  -4.5573  -0.0661  -0.0607   1.5767   1.9491   1.9535

          k = 0.0000 0.2500 0.0000 (423725 PWs)   bands (ev):

   -14.1309  -4.5573  -0.0661  -0.0607   1.6001   1.7885   1.9759

          k = 0.0000-0.5000 0.0000 (423542 PWs)   bands (ev):

   -14.1309  -4.5573  -0.0661  -0.0607   1.6651   1.6765   2.0423

          k = 0.2500 0.0000 0.0000 (423725 PWs)   bands (ev):

   -14.1309  -4.5573  -0.0661  -0.0607   1.6002   1.7884   1.9759

          k = 0.2500 0.2500 0.0000 (423766 PWs)   bands (ev):

   -14.1309  -4.5573  -0.0661  -0.0607   1.6236   1.8099   1.8139

          k = 0.2500-0.5000 0.0000 (423782 PWs)   bands (ev):

   -14.1309  -4.5573  -0.0661  -0.0607   1.6885   1.7000   1.8801

          k = 0.2500-0.2500 0.0000 (423766 PWs)   bands (ev):

   -14.1309  -4.5573  -0.0661  -0.0607   1.6236   1.8098   1.8140

          k =-0.5000 0.0000 0.0000 (423542 PWs)   bands (ev):

   -14.1309  -4.5573  -0.0661  -0.0607   1.6668   1.6747   2.0436

          k =-0.5000 0.2500 0.0000 (423782 PWs)   bands (ev):

   -14.1309  -4.5573  -0.0661  -0.0607   1.6903   1.6982   1.8858

          k =-0.5000-0.5000 0.0000 (423708 PWs)   bands (ev):

   -14.1309  -4.5573  -0.0661  -0.0607   1.7535   1.7672   1.7688

     the Fermi energy is    -2.5372 ev

!    total energy              =     -21.09643898 Ry
     estimated scf accuracy    <          9.0E-10 Ry
     smearing contrib. (-TS)   =       0.00000000 Ry
     internal energy E=F+TS    =     -21.09643898 Ry

     The total energy is F=E-TS. E is the sum of the following terms:
     one-electron contribution =     -39.06891474 Ry
     hartree contribution      =      21.36227243 Ry
     xc contribution           =      -5.89621660 Ry
     ewald contribution        =       2.50642234 Ry
     Dispersion Correction     =      -0.00000241 Ry

     total magnetization       =     2.00 Bohr mag/cell
     absolute magnetization    =     2.05 Bohr mag/cell

     convergence has been achieved in   6 iterations

     negative rho (up, down):  2.775E-04 1.226E-04

     Forces acting on atoms (cartesian axes, Ry/au):

     atom    1 type  1   force =    -0.00000000    0.00253122    0.00450113
     atom    2 type  2   force =     0.00000000   -0.00253122   -0.00449688

     Total force =     0.005160     Total SCF correction =     0.000008
     Energy error            =      1.8E-04
     Gradient error          =      4.5E-03

     number of scf cycles    =   8
     number of bfgs steps    =   7

     energy   old            =     -21.0962628163 Ry
     energy   new            =     -21.0964389818 Ry

     CASE: energy  _new < energy  _old

     new trust radius        =       0.0580616037 bohr
     new conv_thr            =       0.0000000012 Ry


ATOMIC_POSITIONS (angstrom)
N            10.0000000000       10.0000000000        0.0000000000    0   0   0
H            10.0000012668       11.0500094338       -0.0892307542



     Writing output data file ./NH_ESM_p25.save/
     NEW-OLD atomic charge density approx. for the potential

     negative rho (up, down):  1.613E-04 2.108E-04
     Generating pointlists ...

     total cpu time spent up to now is      898.3 secs

     Self-consistent Calculation

     iteration #  1     ecut=    60.00 Ry     beta= 0.70
     Davidson diagonalization with overlap
     ethr =  1.00E-06,  avg # of iterations =  3.0

     negative rho (up, down):  3.199E-04 2.563E-04

     total cpu time spent up to now is      914.7 secs

     total energy              =     -21.09666106 Ry
     estimated scf accuracy    <       0.00010502 Ry

     total magnetization       =     2.00 Bohr mag/cell
     absolute magnetization    =     2.05 Bohr mag/cell

     iteration #  2     ecut=    60.00 Ry     beta= 0.70
     Davidson diagonalization with overlap
     ethr =  1.75E-06,  avg # of iterations =  1.5

     negative rho (up, down):  2.887E-04 1.471E-04

     total cpu time spent up to now is      929.8 secs

     total energy              =     -21.09668395 Ry
     estimated scf accuracy    <       0.00001279 Ry

     total magnetization       =     2.00 Bohr mag/cell
     absolute magnetization    =     2.05 Bohr mag/cell

     iteration #  3     ecut=    60.00 Ry     beta= 0.70
     Davidson diagonalization with overlap
     ethr =  2.13E-07,  avg # of iterations =  2.5

     negative rho (up, down):  2.798E-04 1.260E-04

     total cpu time spent up to now is      945.6 secs

     total energy              =     -21.09669147 Ry
     estimated scf accuracy    <       0.00000065 Ry

     total magnetization       =     2.00 Bohr mag/cell
     absolute magnetization    =     2.05 Bohr mag/cell

     iteration #  4     ecut=    60.00 Ry     beta= 0.70
     Davidson diagonalization with overlap
     ethr =  1.09E-08,  avg # of iterations =  2.7

     negative rho (up, down):  2.779E-04 1.227E-04

     total cpu time spent up to now is      961.6 secs

     total energy              =     -21.09669231 Ry
     estimated scf accuracy    <       0.00000010 Ry

     total magnetization       =     2.00 Bohr mag/cell
     absolute magnetization    =     2.05 Bohr mag/cell

     iteration #  5     ecut=    60.00 Ry     beta= 0.70
     Davidson diagonalization with overlap
     ethr =  1.74E-09,  avg # of iterations =  3.0

     negative rho (up, down):  2.774E-04 1.224E-04

     total cpu time spent up to now is      977.7 secs

     total energy              =     -21.09669243 Ry
     estimated scf accuracy    <       0.00000002 Ry

     total magnetization       =     2.00 Bohr mag/cell
     absolute magnetization    =     2.05 Bohr mag/cell

     iteration #  6     ecut=    60.00 Ry     beta= 0.70
     Davidson diagonalization with overlap
     ethr =  3.11E-10,  avg # of iterations =  2.0

     negative rho (up, down):  2.773E-04 1.224E-04

     total cpu time spent up to now is      993.7 secs

     total energy              =     -21.09669245 Ry
     estimated scf accuracy    <          1.3E-09 Ry

     total magnetization       =     2.00 Bohr mag/cell
     absolute magnetization    =     2.05 Bohr mag/cell

     iteration #  7     ecut=    60.00 Ry     beta= 0.70
     Davidson diagonalization with overlap
     ethr =  2.19E-11,  avg # of iterations =  2.0

     negative rho (up, down):  2.774E-04 1.224E-04

     Magnetic moment per site:
     atom:    1    charge:    1.3474    magn:    0.5565    constr:    0.0000
     atom:    2    charge:    0.4579    magn:   -0.0089    constr:    0.0000

     total cpu time spent up to now is     1007.8 secs

     End of self-consistent calculation

 ------ SPIN UP ------------


          k = 0.0000 0.0000 0.0000 (423701 PWs)   bands (ev):

   -16.8079  -5.6452  -3.9076  -3.9064   1.5672   1.9373   1.9458

          k = 0.0000 0.2500 0.0000 (423725 PWs)   bands (ev):

   -16.8079  -5.6452  -3.9076  -3.9064   1.5907   1.7791   1.9660

          k = 0.0000-0.5000 0.0000 (423542 PWs)   bands (ev):

   -16.8079  -5.6452  -3.9076  -3.9064   1.6549   1.6678   2.0348

          k = 0.2500 0.0000 0.0000 (423725 PWs)   bands (ev):

   -16.8079  -5.6452  -3.9076  -3.9064   1.5907   1.7789   1.9660

          k = 0.2500 0.2500 0.0000 (423766 PWs)   bands (ev):

   -16.8079  -5.6452  -3.9076  -3.9064   1.6141   1.7997   1.8053

          k = 0.2500-0.5000 0.0000 (423782 PWs)   bands (ev):

   -16.8079  -5.6452  -3.9076  -3.9064   1.6783   1.6914   1.8671

          k = 0.2500-0.2500 0.0000 (423766 PWs)   bands (ev):

   -16.8079  -5.6452  -3.9076  -3.9064   1.6141   1.7997   1.8053

          k =-0.5000 0.0000 0.0000 (423542 PWs)   bands (ev):

   -16.8079  -5.6452  -3.9076  -3.9064   1.6564   1.6662   2.0314

          k =-0.5000 0.2500 0.0000 (423782 PWs)   bands (ev):

   -16.8079  -5.6452  -3.9076  -3.9064   1.6798   1.6897   1.8713

          k =-0.5000-0.5000 0.0000 (423708 PWs)   bands (ev):

   -16.8079  -5.6452  -3.9076  -3.9064   1.7434   1.7567   1.7639

 ------ SPIN DOWN ----------


          k = 0.0000 0.0000 0.0000 (423701 PWs)   bands (ev):

   -14.1129  -4.5551  -0.0632  -0.0578   1.5772   1.9498   1.9540

          k = 0.0000 0.2500 0.0000 (423725 PWs)   bands (ev):

   -14.1129  -4.5551  -0.0632  -0.0578   1.6007   1.7890   1.9765

          k = 0.0000-0.5000 0.0000 (423542 PWs)   bands (ev):

   -14.1129  -4.5551  -0.0632  -0.0578   1.6658   1.6768   2.0431

          k = 0.2500 0.0000 0.0000 (423725 PWs)   bands (ev):

   -14.1129  -4.5551  -0.0632  -0.0578   1.6007   1.7889   1.9765

          k = 0.2500 0.2500 0.0000 (423766 PWs)   bands (ev):

   -14.1129  -4.5551  -0.0632  -0.0578   1.6241   1.8105   1.8144

          k = 0.2500-0.5000 0.0000 (423782 PWs)   bands (ev):

   -14.1129  -4.5551  -0.0632  -0.0578   1.6893   1.7003   1.8808

          k = 0.2500-0.2500 0.0000 (423766 PWs)   bands (ev):

   -14.1129  -4.5551  -0.0632  -0.0578   1.6241   1.8104   1.8144

          k =-0.5000 0.0000 0.0000 (423542 PWs)   bands (ev):

   -14.1129  -4.5551  -0.0632  -0.0578   1.6675   1.6751   2.0443

          k =-0.5000 0.2500 0.0000 (423782 PWs)   bands (ev):

   -14.1129  -4.5551  -0.0632  -0.0578   1.6910   1.6985   1.8861

          k =-0.5000-0.5000 0.0000 (423708 PWs)   bands (ev):

   -14.1129  -4.5551  -0.0632  -0.0578   1.7545   1.7676   1.7692

     the Fermi energy is    -2.5327 ev

!    total energy              =     -21.09669245 Ry
     estimated scf accuracy    <          1.0E-10 Ry
     smearing contrib. (-TS)   =       0.00000000 Ry
     internal energy E=F+TS    =     -21.09669245 Ry

     The total energy is F=E-TS. E is the sum of the following terms:
     one-electron contribution =     -39.05294727 Ry
     hartree contribution      =      21.35507134 Ry
     xc contribution           =      -5.89471839 Ry
     ewald contribution        =       2.49590429 Ry
     Dispersion Correction     =      -0.00000242 Ry

     total magnetization       =     2.00 Bohr mag/cell
     absolute magnetization    =     2.05 Bohr mag/cell

     convergence has been achieved in   7 iterations

     negative rho (up, down):  2.774E-04 1.224E-04

     Forces acting on atoms (cartesian axes, Ry/au):

     atom    1 type  1   force =     0.00000002    0.00540327    0.00417197
     atom    2 type  2   force =    -0.00000002   -0.00540327   -0.00416615

     Total force =     0.006823     Total SCF correction =     0.000001
     Energy error            =      2.5E-04
     Gradient error          =      5.4E-03

     number of scf cycles    =   9
     number of bfgs steps    =   8

     energy   old            =     -21.0964389818 Ry
     energy   new            =     -21.0966924462 Ry

     CASE: energy  _new < energy  _old

     new trust radius        =       0.0870924055 bohr
     new conv_thr            =       0.0000000014 Ry


ATOMIC_POSITIONS (angstrom)
N            10.0000000000       10.0000000000        0.0000000000    0   0   0
H            10.0000026922       11.0496732407       -0.1353168441



     Writing output data file ./NH_ESM_p25.save/
     NEW-OLD atomic charge density approx. for the potential

     negative rho (up, down):  1.563E-04 2.706E-04
     Generating pointlists ...

     total cpu time spent up to now is     1029.7 secs

     Self-consistent Calculation

     iteration #  1     ecut=    60.00 Ry     beta= 0.70
     Davidson diagonalization with overlap
     ethr =  1.00E-06,  avg # of iterations =  4.0

     negative rho (up, down):  2.074E-03 2.141E-03

     total cpu time spent up to now is     1046.8 secs

     total energy              =     -21.09694215 Ry
     estimated scf accuracy    <       0.00023622 Ry

     total magnetization       =     2.00 Bohr mag/cell
     absolute magnetization    =     2.05 Bohr mag/cell

     iteration #  2     ecut=    60.00 Ry     beta= 0.70
     Davidson diagonalization with overlap
     ethr =  3.94E-06,  avg # of iterations =  1.5

     negative rho (up, down):  7.853E-04 7.430E-04

     total cpu time spent up to now is     1061.9 secs

     total energy              =     -21.09699924 Ry
     estimated scf accuracy    <       0.00002961 Ry

     total magnetization       =     2.00 Bohr mag/cell
     absolute magnetization    =     2.05 Bohr mag/cell

     iteration #  3     ecut=    60.00 Ry     beta= 0.70
     Davidson diagonalization with overlap
     ethr =  4.94E-07,  avg # of iterations =  2.5

     negative rho (up, down):  4.019E-04 2.982E-04

     total cpu time spent up to now is     1077.6 secs

     total energy              =     -21.09701652 Ry
     estimated scf accuracy    <       0.00000225 Ry

     total magnetization       =     2.00 Bohr mag/cell
     absolute magnetization    =     2.05 Bohr mag/cell

     iteration #  4     ecut=    60.00 Ry     beta= 0.70
     Davidson diagonalization with overlap
     ethr =  3.76E-08,  avg # of iterations =  2.5

     negative rho (up, down):  3.012E-04 1.594E-04

     total cpu time spent up to now is     1093.6 secs

     total energy              =     -21.09701909 Ry
     estimated scf accuracy    <       0.00000050 Ry

     total magnetization       =     2.00 Bohr mag/cell
     absolute magnetization    =     2.05 Bohr mag/cell

     iteration #  5     ecut=    60.00 Ry     beta= 0.70
     Davidson diagonalization with overlap
     ethr =  8.26E-09,  avg # of iterations =  3.0

     negative rho (up, down):  2.809E-04 1.278E-04

     total cpu time spent up to now is     1109.7 secs

     total energy              =     -21.09701992 Ry
     estimated scf accuracy    <       0.00000006 Ry

     total magnetization       =     2.00 Bohr mag/cell
     absolute magnetization    =     2.05 Bohr mag/cell

     iteration #  6     ecut=    60.00 Ry     beta= 0.70
     Davidson diagonalization with overlap
     ethr =  9.77E-10,  avg # of iterations =  2.0

     negative rho (up, down):  2.773E-04 1.224E-04

     total cpu time spent up to now is     1125.7 secs

     total energy              =     -21.09701998 Ry
     estimated scf accuracy    <          2.9E-09 Ry

     total magnetization       =     2.00 Bohr mag/cell
     absolute magnetization    =     2.05 Bohr mag/cell

     iteration #  7     ecut=    60.00 Ry     beta= 0.70
     Davidson diagonalization with overlap
     ethr =  4.92E-11,  avg # of iterations =  2.0

     negative rho (up, down):  2.770E-04 1.218E-04

     Magnetic moment per site:
     atom:    1    charge:    1.3465    magn:    0.5567    constr:    0.0000
     atom:    2    charge:    0.4543    magn:   -0.0093    constr:    0.0000

     total cpu time spent up to now is     1139.9 secs

     End of self-consistent calculation

 ------ SPIN UP ------------


          k = 0.0000 0.0000 0.0000 (423701 PWs)   bands (ev):

   -16.7753  -5.6357  -3.9025  -3.9014   1.5681   1.9385   1.9465

          k = 0.0000 0.2500 0.0000 (423725 PWs)   bands (ev):

   -16.7753  -5.6357  -3.9025  -3.9014   1.5915   1.7799   1.9669

          k = 0.0000-0.5000 0.0000 (423542 PWs)   bands (ev):

   -16.7753  -5.6357  -3.9025  -3.9014   1.6561   1.6684   2.0358

          k = 0.2500 0.0000 0.0000 (423725 PWs)   bands (ev):

   -16.7753  -5.6357  -3.9025  -3.9014   1.5916   1.7798   1.9669

          k = 0.2500 0.2500 0.0000 (423766 PWs)   bands (ev):

   -16.7753  -5.6357  -3.9025  -3.9014   1.6150   1.8007   1.8060

          k = 0.2500-0.5000 0.0000 (423782 PWs)   bands (ev):

   -16.7753  -5.6357  -3.9025  -3.9014   1.6795   1.6919   1.8682

          k = 0.2500-0.2500 0.0000 (423766 PWs)   bands (ev):

   -16.7753  -5.6357  -3.9025  -3.9014   1.6150   1.8007   1.8060

          k =-0.5000 0.0000 0.0000 (423542 PWs)   bands (ev):

   -16.7753  -5.6357  -3.9025  -3.9014   1.6576   1.6668   2.0326

          k =-0.5000 0.2500 0.0000 (423782 PWs)   bands (ev):

   -16.7753  -5.6357  -3.9025  -3.9014   1.6809   1.6903   1.8723

          k =-0.5000-0.5000 0.0000 (423708 PWs)   bands (ev):

   -16.7753  -5.6357  -3.9025  -3.9014   1.7450   1.7575   1.7643

 ------ SPIN DOWN ----------


          k = 0.0000 0.0000 0.0000 (423701 PWs)   bands (ev):

   -14.0750  -4.5509  -0.0580  -0.0527   1.5781   1.9510   1.9548

          k = 0.0000 0.2500 0.0000 (423725 PWs)   bands (ev):

   -14.0750  -4.5509  -0.0580  -0.0527   1.6015   1.7898   1.9774

          k = 0.0000-0.5000 0.0000 (423542 PWs)   bands (ev):

   -14.0750  -4.5509  -0.0580  -0.0527   1.6670   1.6773   2.0443

          k = 0.2500 0.0000 0.0000 (423725 PWs)   bands (ev):

   -14.0750  -4.5509  -0.0580  -0.0527   1.6015   1.7897   1.9774

          k = 0.2500 0.2500 0.0000 (423766 PWs)   bands (ev):

   -14.0750  -4.5509  -0.0580  -0.0527   1.6250   1.8114   1.8150

          k = 0.2500-0.5000 0.0000 (423782 PWs)   bands (ev):

   -14.0750  -4.5509  -0.0581  -0.0527   1.6904   1.7008   1.8818

          k = 0.2500-0.2500 0.0000 (423766 PWs)   bands (ev):

   -14.0750  -4.5509  -0.0580  -0.0527   1.6250   1.8114   1.8151

          k =-0.5000 0.0000 0.0000 (423542 PWs)   bands (ev):

   -14.0750  -4.5509  -0.0580  -0.0527   1.6685   1.6757   2.0454

          k =-0.5000 0.2500 0.0000 (423782 PWs)   bands (ev):

   -14.0750  -4.5509  -0.0581  -0.0527   1.6921   1.6991   1.8867

          k =-0.5000-0.5000 0.0000 (423708 PWs)   bands (ev):

   -14.0750  -4.5509  -0.0580  -0.0527   1.7560   1.7684   1.7698

     the Fermi energy is    -2.5237 ev

!    total energy              =     -21.09701998 Ry
     estimated scf accuracy    <          1.5E-10 Ry
     smearing contrib. (-TS)   =       0.00000000 Ry
     internal energy E=F+TS    =     -21.09701998 Ry

     The total energy is F=E-TS. E is the sum of the following terms:
[...]

          k = 0.2500 0.2500 0.0000 (423766 PWs)   bands (ev):

   -14.0154  -4.5103   0.0085   0.0085   1.6340   1.8218   1.8221

          k = 0.2500-0.5000 0.0000 (423782 PWs)   bands (ev):

   -14.0154  -4.5103   0.0085   0.0085   1.7037   1.7053   1.8918

          k = 0.2500-0.2500 0.0000 (423766 PWs)   bands (ev):

   -14.0154  -4.5103   0.0085   0.0085   1.6340   1.8218   1.8221

          k =-0.5000 0.0000 0.0000 (423542 PWs)   bands (ev):

   -14.0154  -4.5103   0.0085   0.0085   1.6802   1.6818   2.0563

          k =-0.5000 0.2500 0.0000 (423782 PWs)   bands (ev):

   -14.0154  -4.5103   0.0085   0.0085   1.7037   1.7053   1.8932

          k =-0.5000-0.5000 0.0000 (423708 PWs)   bands (ev):

   -14.0154  -4.5103   0.0085   0.0085   1.7732   1.7751   1.7754

     the Fermi energy is    -2.5012 ev

!    total energy              =     -21.10528538 Ry
     estimated scf accuracy    <          5.0E-11 Ry
     smearing contrib. (-TS)   =       0.00000000 Ry
     internal energy E=F+TS    =     -21.10528538 Ry

     The total energy is F=E-TS. E is the sum of the following terms:
     one-electron contribution =     -39.06651082 Ry
     hartree contribution      =      21.38033518 Ry
     xc contribution           =      -5.89988941 Ry
     ewald contribution        =       2.48078206 Ry
     Dispersion Correction     =      -0.00000240 Ry

     total magnetization       =     2.00 Bohr mag/cell
     absolute magnetization    =     2.05 Bohr mag/cell

     convergence has been achieved in   7 iterations

     negative rho (up, down):  2.790E-04 1.231E-04

     Forces acting on atoms (cartesian axes, Ry/au):

     atom    1 type  1   force =     0.00001747    0.00011735   -0.00124959
     atom    2 type  2   force =    -0.00001747   -0.00011735    0.00124989

     Total force =     0.001256     Total SCF correction =     0.000001
     Energy error            =      3.1E-06
     Gradient error          =      1.2E-03

     number of scf cycles    =  39
     number of bfgs steps    =  36

     energy   old            =     -21.1052823096 Ry
     energy   new            =     -21.1052853823 Ry

     CASE: energy  _new < energy  _old

     new trust radius        =       0.0261845918 bohr
     new conv_thr            =       0.0000000003 Ry


ATOMIC_POSITIONS (angstrom)
N            10.0000000000       10.0000000000        0.0000000000    0   0   0
H            10.0030304534       10.0072268066       -1.0489431116



     Writing output data file ./NH_ESM_p25.save/
     NEW-OLD atomic charge density approx. for the potential

     negative rho (up, down):  1.574E-04 2.060E-04
     Generating pointlists ...

     total cpu time spent up to now is     4768.8 secs

     Self-consistent Calculation

     iteration #  1     ecut=    60.00 Ry     beta= 0.70
     Davidson diagonalization with overlap
     ethr =  1.00E-06,  avg # of iterations =  3.0

     negative rho (up, down):  2.621E-04 1.629E-04

     total cpu time spent up to now is     4784.9 secs

     total energy              =     -21.10528163 Ry
     estimated scf accuracy    <       0.00002154 Ry

     total magnetization       =     2.00 Bohr mag/cell
     absolute magnetization    =     2.05 Bohr mag/cell

     iteration #  2     ecut=    60.00 Ry     beta= 0.70
     Davidson diagonalization with overlap
     ethr =  3.59E-07,  avg # of iterations =  1.5

     negative rho (up, down):  2.785E-04 1.265E-04

     total cpu time spent up to now is     4800.0 secs

     total energy              =     -21.10528632 Ry
     estimated scf accuracy    <       0.00000264 Ry

     total magnetization       =     2.00 Bohr mag/cell
     absolute magnetization    =     2.05 Bohr mag/cell

     iteration #  3     ecut=    60.00 Ry     beta= 0.70
     Davidson diagonalization with overlap
     ethr =  4.39E-08,  avg # of iterations =  2.5

     negative rho (up, down):  2.792E-04 1.230E-04

     total cpu time spent up to now is     4815.8 secs

     total energy              =     -21.10528789 Ry
     estimated scf accuracy    <       0.00000014 Ry

     total magnetization       =     2.00 Bohr mag/cell
     absolute magnetization    =     2.05 Bohr mag/cell

     iteration #  4     ecut=    60.00 Ry     beta= 0.70
     Davidson diagonalization with overlap
     ethr =  2.38E-09,  avg # of iterations =  2.0

     negative rho (up, down):  2.792E-04 1.228E-04

     total cpu time spent up to now is     4831.7 secs

     total energy              =     -21.10528805 Ry
     estimated scf accuracy    <       0.00000003 Ry

     total magnetization       =     2.00 Bohr mag/cell
     absolute magnetization    =     2.05 Bohr mag/cell

     iteration #  5     ecut=    60.00 Ry     beta= 0.70
     Davidson diagonalization with overlap
     ethr =  5.64E-10,  avg # of iterations =  3.0

     negative rho (up, down):  2.790E-04 1.231E-04

     total cpu time spent up to now is     4847.9 secs

     total energy              =     -21.10528809 Ry
     estimated scf accuracy    <          4.2E-09 Ry

     total magnetization       =     2.00 Bohr mag/cell
     absolute magnetization    =     2.05 Bohr mag/cell

     iteration #  6     ecut=    60.00 Ry     beta= 0.70
     Davidson diagonalization with overlap
     ethr =  7.05E-11,  avg # of iterations =  2.0

     negative rho (up, down):  2.790E-04 1.232E-04

     Magnetic moment per site:
     atom:    1    charge:    1.3496    magn:    0.5564    constr:    0.0000
     atom:    2    charge:    0.4585    magn:   -0.0089    constr:    0.0000

     total cpu time spent up to now is     4862.0 secs

     End of self-consistent calculation

 ------ SPIN UP ------------


          k = 0.0000 0.0000 0.0000 (423701 PWs)   bands (ev):

   -16.7230  -5.5926  -3.8441  -3.8441   1.5814   1.9572   1.9581

          k = 0.0000 0.2500 0.0000 (423725 PWs)   bands (ev):

   -16.7230  -5.5926  -3.8441  -3.8441   1.6049   1.7929   1.9811

          k = 0.0000-0.5000 0.0000 (423542 PWs)   bands (ev):

   -16.7229  -5.5926  -3.8441  -3.8441   1.6754   1.6755   2.0514

          k = 0.2500 0.0000 0.0000 (423725 PWs)   bands (ev):

   -16.7230  -5.5926  -3.8441  -3.8441   1.6049   1.7929   1.9811

          k = 0.2500 0.2500 0.0000 (423766 PWs)   bands (ev):

   -16.7230  -5.5926  -3.8441  -3.8441   1.6284   1.8162   1.8167

          k = 0.2500-0.5000 0.0000 (423782 PWs)   bands (ev):

   -16.7230  -5.5926  -3.8441  -3.8441   1.6989   1.6990   1.8869

          k = 0.2500-0.2500 0.0000 (423766 PWs)   bands (ev):

   -16.7230  -5.5926  -3.8441  -3.8441   1.6284   1.8162   1.8167

          k =-0.5000 0.0000 0.0000 (423542 PWs)   bands (ev):

   -16.7229  -5.5926  -3.8441  -3.8441   1.6754   1.6755   2.0516

          k =-0.5000 0.2500 0.0000 (423782 PWs)   bands (ev):

   -16.7230  -5.5926  -3.8441  -3.8441   1.6989   1.6990   1.8870

          k =-0.5000-0.5000 0.0000 (423708 PWs)   bands (ev):

   -16.7229  -5.5926  -3.8441  -3.8441   1.7692   1.7696   1.7697

 ------ SPIN DOWN ----------


          k = 0.0000 0.0000 0.0000 (423701 PWs)   bands (ev):

   -14.0203  -4.5108   0.0081   0.0081   1.5869   1.9628   1.9631

          k = 0.0000 0.2500 0.0000 (423725 PWs)   bands (ev):

   -14.0203  -4.5108   0.0081   0.0081   1.6104   1.7985   1.9865

          k = 0.0000-0.5000 0.0000 (423542 PWs)   bands (ev):

   -14.0203  -4.5108   0.0081   0.0081   1.6801   1.6818   2.0566

          k = 0.2500 0.0000 0.0000 (423725 PWs)   bands (ev):

   -14.0203  -4.5108   0.0081   0.0081   1.6104   1.7985   1.9865

          k = 0.2500 0.2500 0.0000 (423766 PWs)   bands (ev):

   -14.0203  -4.5108   0.0081   0.0081   1.6339   1.8218   1.8221

          k = 0.2500-0.5000 0.0000 (423782 PWs)   bands (ev):

   -14.0203  -4.5108   0.0081   0.0081   1.7036   1.7053   1.8918

          k = 0.2500-0.2500 0.0000 (423766 PWs)   bands (ev):

   -14.0203  -4.5108   0.0081   0.0081   1.6339   1.8218   1.8221

          k =-0.5000 0.0000 0.0000 (423542 PWs)   bands (ev):

   -14.0203  -4.5108   0.0081   0.0081   1.6801   1.6818   2.0562

          k =-0.5000 0.2500 0.0000 (423782 PWs)   bands (ev):

   -14.0203  -4.5108   0.0081   0.0081   1.7036   1.7053   1.8931

          k =-0.5000-0.5000 0.0000 (423708 PWs)   bands (ev):

   -14.0203  -4.5108   0.0081   0.0081   1.7732   1.7751   1.7753

     the Fermi energy is    -2.5023 ev

!    total energy              =     -21.10528809 Ry
     estimated scf accuracy    <          2.5E-10 Ry
     smearing contrib. (-TS)   =       0.00000000 Ry
     internal energy E=F+TS    =     -21.10528809 Ry

     The total energy is F=E-TS. E is the sum of the following terms:
     one-electron contribution =     -39.07192705 Ry
     hartree contribution      =      21.38294202 Ry
     xc contribution           =      -5.90042572 Ry
     ewald contribution        =       2.48412504 Ry
     Dispersion Correction     =      -0.00000239 Ry

     total magnetization       =     2.00 Bohr mag/cell
     absolute magnetization    =     2.05 Bohr mag/cell

     convergence has been achieved in   6 iterations

     negative rho (up, down):  2.790E-04 1.232E-04

     Forces acting on atoms (cartesian axes, Ry/au):

     atom    1 type  1   force =     0.00001474    0.00004169   -0.00030280
     atom    2 type  2   force =    -0.00001474   -0.00004169    0.00030406

     Total force =     0.000307     Total SCF correction =     0.000001
     Energy error            =      2.7E-06
     Gradient error          =      3.0E-04

     number of scf cycles    =  40
     number of bfgs steps    =  37

     energy   old            =     -21.1052853823 Ry
     energy   new            =     -21.1052880932 Ry

     CASE: energy  _new < energy  _old

     new trust radius        =       0.0160060075 bohr
     new conv_thr            =            1.0E-10 Ry


ATOMIC_POSITIONS (angstrom)
N            10.0000000000       10.0000000000        0.0000000000    0   0   0
H            10.0030266619        9.9987573283       -1.0488478969



     Writing output data file ./NH_ESM_p25.save/
     NEW-OLD atomic charge density approx. for the potential

     negative rho (up, down):  1.560E-04 2.033E-04
     Generating pointlists ...

     total cpu time spent up to now is     4883.5 secs

     Self-consistent Calculation

     iteration #  1     ecut=    60.00 Ry     beta= 0.70
     Davidson diagonalization with overlap
     ethr =  1.00E-06,  avg # of iterations =  2.5

     negative rho (up, down):  2.544E-04 1.478E-04

     total cpu time spent up to now is     4899.5 secs

     total energy              =     -21.10528587 Ry
     estimated scf accuracy    <       0.00000795 Ry

     total magnetization       =     2.00 Bohr mag/cell
     absolute magnetization    =     2.05 Bohr mag/cell

     iteration #  2     ecut=    60.00 Ry     beta= 0.70
     Davidson diagonalization with overlap
     ethr =  1.33E-07,  avg # of iterations =  1.5

     negative rho (up, down):  2.773E-04 1.232E-04

     total cpu time spent up to now is     4914.6 secs

     total energy              =     -21.10528762 Ry
     estimated scf accuracy    <       0.00000096 Ry

     total magnetization       =     2.00 Bohr mag/cell
     absolute magnetization    =     2.05 Bohr mag/cell

     iteration #  3     ecut=    60.00 Ry     beta= 0.70
     Davidson diagonalization with overlap
     ethr =  1.60E-08,  avg # of iterations =  3.0

     negative rho (up, down):  2.790E-04 1.224E-04

     total cpu time spent up to now is     4930.6 secs

     total energy              =     -21.10528829 Ry
     estimated scf accuracy    <       0.00000004 Ry

     total magnetization       =     2.00 Bohr mag/cell
     absolute magnetization    =     2.05 Bohr mag/cell

     iteration #  4     ecut=    60.00 Ry     beta= 0.70
     Davidson diagonalization with overlap
     ethr =  7.45E-10,  avg # of iterations =  3.0

     negative rho (up, down):  2.791E-04 1.228E-04

     total cpu time spent up to now is     4946.7 secs

     total energy              =     -21.10528836 Ry
     estimated scf accuracy    <          6.1E-09 Ry

     total magnetization       =     2.00 Bohr mag/cell
     absolute magnetization    =     2.05 Bohr mag/cell

     iteration #  5     ecut=    60.00 Ry     beta= 0.70
     Davidson diagonalization with overlap
     ethr =  1.02E-10,  avg # of iterations =  2.9

     negative rho (up, down):  2.790E-04 1.232E-04

     total cpu time spent up to now is     4962.9 secs

     total energy              =     -21.10528836 Ry
     estimated scf accuracy    <          6.2E-10 Ry

     total magnetization       =     2.00 Bohr mag/cell
     absolute magnetization    =     2.05 Bohr mag/cell

     iteration #  6     ecut=    60.00 Ry     beta= 0.70
     Davidson diagonalization with overlap
     ethr =  1.03E-11,  avg # of iterations =  2.1

     negative rho (up, down):  2.790E-04 1.232E-04

     Magnetic moment per site:
     atom:    1    charge:    1.3496    magn:    0.5564    constr:    0.0000
     atom:    2    charge:    0.4586    magn:   -0.0089    constr:    0.0000

     total cpu time spent up to now is     4977.2 secs

     End of self-consistent calculation

 ------ SPIN UP ------------


          k = 0.0000 0.0000 0.0000 (423701 PWs)   bands (ev):

   -16.7237  -5.5928  -3.8441  -3.8441   1.5814   1.9572   1.9581

          k = 0.0000 0.2500 0.0000 (423725 PWs)   bands (ev):

   -16.7237  -5.5928  -3.8441  -3.8441   1.6049   1.7929   1.9811

          k = 0.0000-0.5000 0.0000 (423542 PWs)   bands (ev):

   -16.7237  -5.5928  -3.8441  -3.8441   1.6754   1.6755   2.0514

          k = 0.2500 0.0000 0.0000 (423725 PWs)   bands (ev):

   -16.7237  -5.5928  -3.8441  -3.8441   1.6049   1.7929   1.9811

          k = 0.2500 0.2500 0.0000 (423766 PWs)   bands (ev):

   -16.7237  -5.5928  -3.8441  -3.8441   1.6284   1.8162   1.8167

          k = 0.2500-0.5000 0.0000 (423782 PWs)   bands (ev):

   -16.7237  -5.5928  -3.8441  -3.8441   1.6989   1.6990   1.8869

          k = 0.2500-0.2500 0.0000 (423766 PWs)   bands (ev):

   -16.7237  -5.5928  -3.8441  -3.8441   1.6284   1.8162   1.8167

          k =-0.5000 0.0000 0.0000 (423542 PWs)   bands (ev):

   -16.7237  -5.5928  -3.8441  -3.8441   1.6754   1.6755   2.0516

          k =-0.5000 0.2500 0.0000 (423782 PWs)   bands (ev):

   -16.7237  -5.5928  -3.8441  -3.8441   1.6989   1.6990   1.8870

          k =-0.5000-0.5000 0.0000 (423708 PWs)   bands (ev):

   -16.7237  -5.5928  -3.8441  -3.8441   1.7692   1.7696   1.7697

 ------ SPIN DOWN ----------


          k = 0.0000 0.0000 0.0000 (423701 PWs)   bands (ev):

   -14.0212  -4.5109   0.0081   0.0081   1.5869   1.9628   1.9631

          k = 0.0000 0.2500 0.0000 (423725 PWs)   bands (ev):

   -14.0212  -4.5109   0.0081   0.0081   1.6104   1.7985   1.9865

          k = 0.0000-0.5000 0.0000 (423542 PWs)   bands (ev):

   -14.0212  -4.5109   0.0081   0.0081   1.6801   1.6818   2.0566

          k = 0.2500 0.0000 0.0000 (423725 PWs)   bands (ev):

   -14.0212  -4.5109   0.0081   0.0081   1.6104   1.7985   1.9865

          k = 0.2500 0.2500 0.0000 (423766 PWs)   bands (ev):

   -14.0212  -4.5109   0.0081   0.0081   1.6339   1.8218   1.8221

          k = 0.2500-0.5000 0.0000 (423782 PWs)   bands (ev):

   -14.0212  -4.5109   0.0081   0.0081   1.7036   1.7053   1.8918

          k = 0.2500-0.2500 0.0000 (423766 PWs)   bands (ev):

   -14.0212  -4.5109   0.0081   0.0081   1.6339   1.8218   1.8221

          k =-0.5000 0.0000 0.0000 (423542 PWs)   bands (ev):

   -14.0212  -4.5109   0.0081   0.0081   1.6801   1.6818   2.0562

          k =-0.5000 0.2500 0.0000 (423782 PWs)   bands (ev):

   -14.0212  -4.5109   0.0081   0.0081   1.7036   1.7053   1.8931

          k =-0.5000-0.5000 0.0000 (423708 PWs)   bands (ev):

   -14.0212  -4.5109   0.0081   0.0081   1.7732   1.7751   1.7753

     the Fermi energy is    -2.5024 ev

!    total energy              =     -21.10528836 Ry
     estimated scf accuracy    <          8.6E-11 Ry
     smearing contrib. (-TS)   =       0.00000000 Ry
     internal energy E=F+TS    =     -21.10528836 Ry

     The total energy is F=E-TS. E is the sum of the following terms:
     one-electron contribution =     -39.07285830 Ry
     hartree contribution      =      21.38338655 Ry
     xc contribution           =      -5.90051704 Ry
     ewald contribution        =       2.48470283 Ry
     Dispersion Correction     =      -0.00000239 Ry

     total magnetization       =     2.00 Bohr mag/cell
     absolute magnetization    =     2.05 Bohr mag/cell

     convergence has been achieved in   6 iterations

     negative rho (up, down):  2.790E-04 1.232E-04

     Forces acting on atoms (cartesian axes, Ry/au):

     atom    1 type  1   force =     0.00001428   -0.00000339   -0.00014119
     atom    2 type  2   force =    -0.00001428    0.00000339    0.00014014

     Total force =     0.000141     Total SCF correction =     0.000002
     Energy error            =      2.7E-07
     Gradient error          =      1.4E-04

     bfgs converged in  41 scf cycles and  38 bfgs steps
     (criteria: energy <  7.3E-07 Ry, force <  3.9E-04 Ry/Bohr)

     End of BFGS Geometry Optimization

     Final energy   =     -21.1052883649 Ry

     File ./NH_ESM_p25.bfgs deleted, as requested
Begin final coordinates

ATOMIC_POSITIONS (angstrom)
N            10.0000000000       10.0000000000        0.0000000000    0   0   0
H            10.0030266619        9.9987573283       -1.0488478969
End final coordinates



     Writing output data file ./NH_ESM_p25.save/

     init_run     :     20.30s CPU     21.44s WALL (       1 calls)
     electrons    :   3828.14s CPU   4180.17s WALL (      41 calls)
     update_pot   :    313.57s CPU    331.18s WALL (      40 calls)
     forces       :    341.37s CPU    364.93s WALL (      41 calls)

     Called by init_run:
     wfcinit      :      1.47s CPU      1.52s WALL (       1 calls)
     potinit      :      7.56s CPU      8.24s WALL (       1 calls)
     hinit0       :      1.49s CPU      1.63s WALL (       1 calls)

     Called by electrons:
     c_bands      :   1014.34s CPU   1047.10s WALL (     264 calls)
     sum_band     :    566.45s CPU    591.74s WALL (     264 calls)
     v_of_rho     :   1687.23s CPU   1830.98s WALL (     298 calls)
     newd         :    248.79s CPU    261.59s WALL (     298 calls)
     mix_rho      :    296.88s CPU    361.40s WALL (     264 calls)

     Called by c_bands:
     init_us_2    :      9.32s CPU      9.70s WALL (    1710 calls)
     cegterg      :   1001.30s CPU   1028.66s WALL (     792 calls)

     Called by *egterg:
     cdiaghg      :      3.12s CPU      3.22s WALL (    2763 calls)
     h_psi        :    924.50s CPU    944.24s WALL (    2907 calls)
     s_psi        :      7.26s CPU      7.43s WALL (    2907 calls)
     g_psi        :      1.63s CPU      1.66s WALL (    2112 calls)

     Called by h_psi:
     h_psi:calbec :      9.54s CPU      9.72s WALL (    2907 calls)
     vloc_psi     :    903.13s CPU    919.45s WALL (    2907 calls)
     add_vuspsi   :      8.22s CPU      8.35s WALL (    2907 calls)

     General routines
     calbec       :     15.53s CPU     15.78s WALL (    4191 calls)
     fft          :   1820.24s CPU   1871.08s WALL (    8037 calls)
     ffts         :     88.78s CPU     89.85s WALL (    1124 calls)
     fftw         :    886.03s CPU    901.51s WALL (   35020 calls)
     interpolate  :    194.85s CPU    210.60s WALL (     596 calls)
     davcio       :      0.63s CPU     32.35s WALL (    4265 calls)

     Parallel routines
     fft_scatt_xy :    405.84s CPU    412.22s WALL (   44181 calls)
     fft_scatt_yz :   1053.06s CPU   1068.68s WALL (   44181 calls)

     PWSCF        :      1h16m CPU      1h23m WALL


   This run was terminated on:   1:37:21   1Jul2022            

=------------------------------------------------------------------------------=
   JOB DONE.
=------------------------------------------------------------------------------=
