
     Program PHONON v.6.7MaX starts on 29Sep2022 at  2: 3:36 

     This program is part of the open-source Quantum ESPRESSO suite
     for quantum simulation of materials; please cite
         "P. Giannozzi et al., J. Phys.:Condens. Matter 21 395502 (2009);
         "P. Giannozzi et al., J. Phys.:Condens. Matter 29 465901 (2017);
          URL http://www.quantum-espresso.org", 
     in publications or presentations arising from this work. More details at
     http://www.quantum-espresso.org/quote

     Parallel version (MPI), running on   120 processors

     MPI processes distributed on     1 nodes
     K-points division:     npool     =       8
     R & G space division:  proc/nbgrp/npool/nimage =      15
     Waiting for input...
     Reading input from standard input

     Reading xml data from directory:

     ./H2_ESM_std.save/

     IMPORTANT: XC functional enforced from input :
     Exchange-correlation= PBE
                           (   1   4   3   4   0   0   0)
     Any further DFT definition will be discarded
     Please, verify this is what you really want


     Parallelization info
     --------------------
     sticks:   dense  smooth     PW     G-vecs:    dense   smooth      PW
     Min        3636    1818    468               639190   225950   29545
     Max        3637    1819    470               639197   225953   29547
     Sum       54553   27281   7033              9587919  3389267  443191


     Adding external electric field
        E field amplitude [Ha a.u.]: -1.5855E-03
        Potential amp.       -0.1079 Ry
        Total length         34.0151 bohr


     negative rho (up, down):  6.276E-05 6.276E-05
     Reading collected, re-writing distributed wavefunctions

     Calculation of q =    0.0000000   0.0000000   0.0000000

     phonons (vibrational modes) for H2                                         

     bravais-lattice index     =            0
     lattice parameter (alat)  =      37.7945  a.u.
     unit-cell volume          =   53986.6760 (a.u.)^3
     number of atoms/cell      =            2
     number of atomic types    =            1
     kinetic-energy cut-off    =      60.0000  Ry
     charge density cut-off    =     480.0000  Ry
     convergence threshold     =      1.0E-12
     beta                      =       0.7000
     number of iterations used =            4
     Exchange-correlation= PBE
                           (   1   4   3   4   0   0   0)


     celldm(1)=   37.79452  celldm(2)=    0.00000  celldm(3)=    0.00000
     celldm(4)=    0.00000  celldm(5)=    0.00000  celldm(6)=    0.00000

     crystal axes: (cart. coord. in units of alat)
               a(1) = (  1.0000  0.0000  0.0000 )  
               a(2) = (  0.0000  1.0000  0.0000 )  
               a(3) = (  0.0000  0.0000  1.0000 )  

     reciprocal axes: (cart. coord. in units 2 pi/alat)
               b(1) = (  1.0000  0.0000  0.0000 )  
               b(2) = (  0.0000  1.0000  0.0000 )  
               b(3) = (  0.0000  0.0000  1.0000 )  


     Atoms inside the unit cell: 

     Cartesian axes

     site n.  atom      mass           positions (alat units)
        1     H    1.0078   tau(    1) = (    0.50000    0.50000    0.00000  )
        2     H    1.0078   tau(    2) = (    0.50000    0.50000   -0.03752  )

     Computing dynamical matrix for 
                    q = (   0.0000000   0.0000000   0.0000000 )

      2 Sym.Ops. (with q -> -q+G )


     G cutoff =17367.5767  ( 639197 G-vectors)     FFT grid: (270,270,270)
     G cutoff = 8683.7884  ( 225950 G-vectors)  smooth grid: (192,192,192)

     number of k points=    20  Methfessel-Paxton smearing, width (Ry)=  0.0100
                       cart. coord. in units 2pi/alat
        k(    1) = (   0.0000000   0.0000000   0.0000000), wk =   0.0625000
        k(    2) = (   0.0000000   0.2500000   0.0000000), wk =   0.1250000
        k(    3) = (   0.0000000  -0.5000000   0.0000000), wk =   0.0625000
        k(    4) = (   0.2500000   0.0000000   0.0000000), wk =   0.1250000
        k(    5) = (   0.2500000   0.2500000   0.0000000), wk =   0.1250000
        k(    6) = (   0.2500000  -0.5000000   0.0000000), wk =   0.1250000
        k(    7) = (   0.2500000  -0.2500000   0.0000000), wk =   0.1250000
        k(    8) = (  -0.5000000   0.0000000   0.0000000), wk =   0.0625000
        k(    9) = (  -0.5000000   0.2500000   0.0000000), wk =   0.1250000
        k(   10) = (  -0.5000000  -0.5000000   0.0000000), wk =   0.0625000
        k(   11) = (   0.0000000   0.0000000   0.0000000), wk =   0.0625000
        k(   12) = (   0.0000000   0.2500000   0.0000000), wk =   0.1250000
        k(   13) = (   0.0000000  -0.5000000   0.0000000), wk =   0.0625000
        k(   14) = (   0.2500000   0.0000000   0.0000000), wk =   0.1250000
        k(   15) = (   0.2500000   0.2500000   0.0000000), wk =   0.1250000
        k(   16) = (   0.2500000  -0.5000000   0.0000000), wk =   0.1250000
        k(   17) = (   0.2500000  -0.2500000   0.0000000), wk =   0.1250000
        k(   18) = (  -0.5000000   0.0000000   0.0000000), wk =   0.0625000
        k(   19) = (  -0.5000000   0.2500000   0.0000000), wk =   0.1250000
        k(   20) = (  -0.5000000  -0.5000000   0.0000000), wk =   0.0625000

     PseudoPot. # 1 for H  read from file:
     ../../SSSP/H.pbe-rrkjus_psl.1.0.0.UPF
     MD5 check sum: f52b6d4d1c606e5624b1dc7b2218f220
     Pseudo is Ultrasoft, Zval =  1.0
     Generated using "atomic" code by A. Dal Corso  v.5.1
     Using radial grid of  929 points,  2 beta functions with: 
                l(1) =   0
                l(2) =   0
     Q(r) pseudized with 0 coefficients 


     Mode symmetry, C_1 (1)     point group:


     Atomic displacements:
     There are    6 irreducible representations

     Representation     1      1 modes -  To be done

     Representation     2      1 modes -  To be done

     Representation     3      1 modes -  To be done

     Representation     4      1 modes -  To be done

     Representation     5      1 modes -  To be done

     Representation     6      1 modes -  To be done



     Alpha used in Ewald sum =   2.8000

     -------------------------------------------------
     Parameters for Dispersion (Grimme-D2) Correction:
     -------------------------------------------------
       atom      VdW radius       C_6     

        H          1.892          4.857

     Calculating the D2 contribution to the dynamical matrix.
     D2 energy =       -0.00000168 Ry
     Done.

     PHONON       :     56.48s CPU   1m 1.60s WALL



     Representation #   1 mode #   1

     Self-consistent Calculation

     Pert. #  1: Fermi energy shift (Ry) =     0.0000E+00     0.0000E+00

      iter #   1 total cpu time :    85.0 secs   av.it.:   4.0
      thresh= 1.000E-02 alpha_mix =  0.700 |ddv_scf|^2 =  2.797E-07

     Pert. #  1: Fermi energy shift (Ry) =     0.0000E+00     0.0000E+00

      iter #   2 total cpu time :   110.6 secs   av.it.:   7.0
      thresh= 5.288E-05 alpha_mix =  0.700 |ddv_scf|^2 =  6.977E-08

     Pert. #  1: Fermi energy shift (Ry) =     0.0000E+00     0.0000E+00

      iter #   3 total cpu time :   137.7 secs   av.it.:   7.0
      thresh= 2.641E-05 alpha_mix =  0.700 |ddv_scf|^2 =  7.436E-10

     Pert. #  1: Fermi energy shift (Ry) =     0.0000E+00     0.0000E+00

      iter #   4 total cpu time :   165.4 secs   av.it.:   8.0
      thresh= 2.727E-06 alpha_mix =  0.700 |ddv_scf|^2 =  5.761E-11

     Pert. #  1: Fermi energy shift (Ry) =     0.0000E+00     0.0000E+00

      iter #   5 total cpu time :   190.6 secs   av.it.:   7.0
      thresh= 7.590E-07 alpha_mix =  0.700 |ddv_scf|^2 =  1.144E-14

     End of self-consistent calculation

     Convergence has been achieved 


     Representation #   2 mode #   2

     Self-consistent Calculation

     Pert. #  1: Fermi energy shift (Ry) =     0.0000E+00     0.0000E+00

      iter #   1 total cpu time :   219.8 secs   av.it.:   4.0
      thresh= 1.000E-02 alpha_mix =  0.700 |ddv_scf|^2 =  2.797E-07

     Pert. #  1: Fermi energy shift (Ry) =     0.0000E+00     0.0000E+00

      iter #   2 total cpu time :   242.7 secs   av.it.:   7.0
      thresh= 5.288E-05 alpha_mix =  0.700 |ddv_scf|^2 =  6.977E-08

     Pert. #  1: Fermi energy shift (Ry) =     0.0000E+00     0.0000E+00

      iter #   3 total cpu time :   265.6 secs   av.it.:   7.0
      thresh= 2.641E-05 alpha_mix =  0.700 |ddv_scf|^2 =  7.436E-10

     Pert. #  1: Fermi energy shift (Ry) =     0.0000E+00     0.0000E+00

      iter #   4 total cpu time :   292.1 secs   av.it.:   8.0
      thresh= 2.727E-06 alpha_mix =  0.700 |ddv_scf|^2 =  5.761E-11

     Pert. #  1: Fermi energy shift (Ry) =     0.0000E+00     0.0000E+00

      iter #   5 total cpu time :   321.5 secs   av.it.:   7.0
      thresh= 7.590E-07 alpha_mix =  0.700 |ddv_scf|^2 =  1.144E-14

     End of self-consistent calculation

     Convergence has been achieved 


     Representation #   3 mode #   3

     Self-consistent Calculation

     Pert. #  1: Fermi energy shift (Ry) =     0.0000E+00     0.0000E+00

      iter #   1 total cpu time :   353.3 secs   av.it.:   6.0
      thresh= 1.000E-02 alpha_mix =  0.700 |ddv_scf|^2 =  7.973E-07

     Pert. #  1: Fermi energy shift (Ry) =     0.0000E+00     0.0000E+00

      iter #   2 total cpu time :   377.4 secs   av.it.:   9.0
      thresh= 8.929E-05 alpha_mix =  0.700 |ddv_scf|^2 =  1.199E-07

     Pert. #  1: Fermi energy shift (Ry) =     0.0000E+00     0.0000E+00

      iter #   3 total cpu time :   399.8 secs   av.it.:   9.0
      thresh= 3.463E-05 alpha_mix =  0.700 |ddv_scf|^2 =  3.598E-09

     Pert. #  1: Fermi energy shift (Ry) =     0.0000E+00     0.0000E+00

      iter #   4 total cpu time :   427.4 secs   av.it.:  10.0
      thresh= 5.998E-06 alpha_mix =  0.700 |ddv_scf|^2 =  1.605E-10

     Pert. #  1: Fermi energy shift (Ry) =     0.0000E+00     0.0000E+00

      iter #   5 total cpu time :   456.0 secs   av.it.:  10.0
      thresh= 1.267E-06 alpha_mix =  0.700 |ddv_scf|^2 =  1.045E-11

     Pert. #  1: Fermi energy shift (Ry) =     0.0000E+00     0.0000E+00

      iter #   6 total cpu time :   486.6 secs   av.it.:   9.0
      thresh= 3.232E-07 alpha_mix =  0.700 |ddv_scf|^2 =  2.901E-15

     End of self-consistent calculation

     Convergence has been achieved 


     Representation #   4 mode #   4

     Self-consistent Calculation

     Pert. #  1: Fermi energy shift (Ry) =     0.0000E+00     0.0000E+00

      iter #   1 total cpu time :   515.9 secs   av.it.:   4.0
      thresh= 1.000E-02 alpha_mix =  0.700 |ddv_scf|^2 =  3.125E-07

     Pert. #  1: Fermi energy shift (Ry) =     0.0000E+00     0.0000E+00

      iter #   2 total cpu time :   539.2 secs   av.it.:   7.0
      thresh= 5.590E-05 alpha_mix =  0.700 |ddv_scf|^2 =  5.299E-08

     Pert. #  1: Fermi energy shift (Ry) =     0.0000E+00     0.0000E+00

      iter #   3 total cpu time :   562.2 secs   av.it.:   7.0
      thresh= 2.302E-05 alpha_mix =  0.700 |ddv_scf|^2 =  1.517E-09

     Pert. #  1: Fermi energy shift (Ry) =     0.0000E+00     0.0000E+00

      iter #   4 total cpu time :   589.0 secs   av.it.:   7.0
      thresh= 3.895E-06 alpha_mix =  0.700 |ddv_scf|^2 =  1.025E-10

     Pert. #  1: Fermi energy shift (Ry) =     0.0000E+00     0.0000E+00

      iter #   5 total cpu time :   612.2 secs   av.it.:   7.0
      thresh= 1.012E-06 alpha_mix =  0.700 |ddv_scf|^2 =  2.160E-16

     End of self-consistent calculation

     Convergence has been achieved 


     Representation #   5 mode #   5

     Self-consistent Calculation

     Pert. #  1: Fermi energy shift (Ry) =     0.0000E+00     0.0000E+00

      iter #   1 total cpu time :   641.5 secs   av.it.:   4.0
      thresh= 1.000E-02 alpha_mix =  0.700 |ddv_scf|^2 =  3.125E-07

     Pert. #  1: Fermi energy shift (Ry) =     0.0000E+00     0.0000E+00

      iter #   2 total cpu time :   665.0 secs   av.it.:   7.0
      thresh= 5.590E-05 alpha_mix =  0.700 |ddv_scf|^2 =  5.299E-08

     Pert. #  1: Fermi energy shift (Ry) =     0.0000E+00     0.0000E+00

      iter #   3 total cpu time :   688.1 secs   av.it.:   7.0
      thresh= 2.302E-05 alpha_mix =  0.700 |ddv_scf|^2 =  1.517E-09

     Pert. #  1: Fermi energy shift (Ry) =     0.0000E+00     0.0000E+00

      iter #   4 total cpu time :   713.5 secs   av.it.:   7.0
      thresh= 3.895E-06 alpha_mix =  0.700 |ddv_scf|^2 =  1.025E-10

     Pert. #  1: Fermi energy shift (Ry) =     0.0000E+00     0.0000E+00

      iter #   5 total cpu time :   742.1 secs   av.it.:   7.0
      thresh= 1.012E-06 alpha_mix =  0.700 |ddv_scf|^2 =  2.161E-16

     End of self-consistent calculation

     Convergence has been achieved 


     Representation #   6 mode #   6

     Self-consistent Calculation

     Pert. #  1: Fermi energy shift (Ry) =     0.0000E+00     0.0000E+00

      iter #   1 total cpu time :   771.6 secs   av.it.:   6.0
      thresh= 1.000E-02 alpha_mix =  0.700 |ddv_scf|^2 =  5.719E-07

     Pert. #  1: Fermi energy shift (Ry) =     0.0000E+00     0.0000E+00

      iter #   2 total cpu time :   798.4 secs   av.it.:  10.0
      thresh= 7.563E-05 alpha_mix =  0.700 |ddv_scf|^2 =  1.160E-07

     Pert. #  1: Fermi energy shift (Ry) =     0.0000E+00     0.0000E+00

      iter #   3 total cpu time :   823.9 secs   av.it.:   9.0
      thresh= 3.406E-05 alpha_mix =  0.700 |ddv_scf|^2 =  1.351E-09

     Pert. #  1: Fermi energy shift (Ry) =     0.0000E+00     0.0000E+00

      iter #   4 total cpu time :   851.7 secs   av.it.:  10.0
      thresh= 3.676E-06 alpha_mix =  0.700 |ddv_scf|^2 =  2.830E-11

     Pert. #  1: Fermi energy shift (Ry) =     0.0000E+00     0.0000E+00

      iter #   5 total cpu time :   880.3 secs   av.it.:  10.0
      thresh= 5.320E-07 alpha_mix =  0.700 |ddv_scf|^2 =  1.290E-12

     Pert. #  1: Fermi energy shift (Ry) =     0.0000E+00     0.0000E+00

      iter #   6 total cpu time :   907.0 secs   av.it.:   9.0
      thresh= 1.136E-07 alpha_mix =  0.700 |ddv_scf|^2 =  5.264E-15

     End of self-consistent calculation

     Convergence has been achieved 

     Number of q in the star =    1
     List of q in the star:
          1   0.000000000   0.000000000   0.000000000

     Diagonalizing the dynamical matrix

     q = (    0.000000000   0.000000000   0.000000000 ) 

 **************************************************************************
     freq (    1) =      -4.257627 [THz] =    -142.019156 [cm-1]
     freq (    2) =      -4.257627 [THz] =    -142.019142 [cm-1]
     freq (    3) =      -1.284917 [THz] =     -42.860223 [cm-1]
     freq (    4) =      -1.284917 [THz] =     -42.860208 [cm-1]
     freq (    5) =       0.222650 [THz] =       7.426818 [cm-1]
     freq (    6) =     129.330179 [THz] =    4313.990419 [cm-1]
 **************************************************************************

     Mode symmetry, C_1 (1)     point group:

     freq (   1-   1) =       -142.0  [cm-1]   --> A               I+R
     freq (   2-   2) =       -142.0  [cm-1]   --> A               I+R
     freq (   3-   3) =        -42.9  [cm-1]   --> A               I+R
     freq (   4-   4) =        -42.9  [cm-1]   --> A               I+R
     freq (   5-   5) =          7.4  [cm-1]   --> A               I+R
     freq (   6-   6) =       4314.0  [cm-1]   --> A               I+R

     PHONON       :  12m48.01s CPU  15m18.37s WALL

     INITIALIZATION: 
     phq_setup    :     12.69s CPU     14.16s WALL (       1 calls)
     phq_init     :     26.65s CPU     28.03s WALL (       1 calls)

     phq_init     :     26.65s CPU     28.03s WALL (       1 calls)
     init_vloc    :      0.14s CPU      0.14s WALL (       1 calls)
     init_us_1    :      0.03s CPU      0.03s WALL (       1 calls)
     newd         :      1.20s CPU      1.22s WALL (       1 calls)
     dvanqq       :      6.95s CPU      7.07s WALL (       1 calls)
     drho         :     12.09s CPU     13.23s WALL (       1 calls)

     DYNAMICAL MATRIX:
     dynmat0      :      1.06s CPU      1.15s WALL (       1 calls)
     phqscf       :    711.53s CPU    851.23s WALL (       1 calls)
     dynmatrix    :      0.00s CPU      0.04s WALL (       1 calls)

     phqscf       :    711.53s CPU    851.23s WALL (       1 calls)
     solve_linter :    707.64s CPU    837.41s WALL (       6 calls)
     drhodv       :      3.88s CPU      4.03s WALL (       6 calls)

     dynmat0      :      1.06s CPU      1.15s WALL (       1 calls)
     dynmat_us    :      0.86s CPU      0.91s WALL (       1 calls)
     d2ionq       :      0.20s CPU      0.20s WALL (       1 calls)

     dynmat_us    :      0.86s CPU      0.91s WALL (       1 calls)
     addusdynmat  :      0.00s CPU      0.00s WALL (       1 calls)

     phqscf       :    711.53s CPU    851.23s WALL (       1 calls)
     solve_linter :    707.64s CPU    837.41s WALL (       6 calls)

     solve_linter :    707.64s CPU    837.41s WALL (       6 calls)
     dvqpsi_us    :      8.14s CPU      8.32s WALL (      18 calls)
     ortho        :      1.05s CPU      1.08s WALL (      96 calls)
     cgsolve      :     54.79s CPU     55.57s WALL (      96 calls)
     incdrhoscf   :      7.69s CPU      7.89s WALL (      96 calls)
     addusddens   :     23.42s CPU     26.70s WALL (      38 calls)
     vpsifft      :      6.02s CPU      6.21s WALL (      78 calls)
     dv_of_drho   :    260.63s CPU    267.95s WALL (      32 calls)
     mix_pot      :     15.55s CPU     36.70s WALL (      32 calls)
     ef_shift     :     31.55s CPU     32.03s WALL (      38 calls)
     localdos     :     12.58s CPU     13.32s WALL (       6 calls)
     psymdvscf    :    166.42s CPU    216.04s WALL (      32 calls)
     newdq        :     26.34s CPU     28.55s WALL (      32 calls)
     adddvscf     :      0.16s CPU      0.17s WALL (      78 calls)
     drhodvus     :      4.27s CPU     14.61s WALL (       6 calls)

     dvqpsi_us    :      8.14s CPU      8.32s WALL (      18 calls)
     dvqpsi_us_on :      0.09s CPU      0.10s WALL (      18 calls)

     cgsolve      :     54.79s CPU     55.57s WALL (      96 calls)
     ch_psi       :     53.71s CPU     54.46s WALL (     711 calls)

     ch_psi       :     53.71s CPU     54.46s WALL (     711 calls)
     h_psi        :     52.31s CPU     53.05s WALL (     711 calls)
     last         :      1.13s CPU      1.14s WALL (     711 calls)

     h_psi        :     52.31s CPU     53.05s WALL (     711 calls)
     add_vuspsi   :      0.73s CPU      0.74s WALL (     711 calls)

     incdrhoscf   :      7.69s CPU      7.89s WALL (      96 calls)
     addusdbec    :      0.58s CPU      0.59s WALL (     114 calls)

     drhodvus     :      4.27s CPU     14.61s WALL (       6 calls)

      General routines
     calbec       :      2.83s CPU      2.98s WALL (    1752 calls)
     fft          :    329.58s CPU    335.29s WALL (    1135 calls)
     ffts         :     18.77s CPU     19.28s WALL (     232 calls)
     fftw         :     57.19s CPU     58.08s WALL (    1983 calls)
     davcio       :      0.14s CPU     28.72s WALL (     722 calls)
     write_rec    :      0.01s CPU     35.85s WALL (      38 calls)


     PHONON       :  12m48.01s CPU  15m18.37s WALL


   This run was terminated on:   2:18:54  29Sep2022            

=------------------------------------------------------------------------------=
   JOB DONE.
=------------------------------------------------------------------------------=
