     Message from routine get_command_line:
     unexpected argument # 4     :-in

     Program PWSCF v.6.7MaX starts on  8Jul2022 at 18:37:27 

     This program is part of the open-source Quantum ESPRESSO suite
     for quantum simulation of materials; please cite
         "P. Giannozzi et al., J. Phys.:Condens. Matter 21 395502 (2009);
         "P. Giannozzi et al., J. Phys.:Condens. Matter 29 465901 (2017);
          URL http://www.quantum-espresso.org", 
     in publications or presentations arising from this work. More details at
     http://www.quantum-espresso.org/quote

     Parallel version (MPI), running on   120 processors

     MPI processes distributed on     1 nodes
     K-points division:     npool     =       8
     R & G space division:  proc/nbgrp/npool/nimage =      15
     Waiting for input...
     Reading input from standard input
Warning: card &CELL ignored
Warning: card / ignored

     Current dimensions of program PWSCF are:
     Max number of different atomic species (ntypx) = 10
     Max number of k-points (npk) =  40000
     Max angular momentum in pseudopotentials (lmaxx) =  3

     IMPORTANT: XC functional enforced from input :
     Exchange-correlation= PBE
                           (   1   4   3   4   0   0   0)
     Any further DFT definition will be discarded
     Please, verify this is what you really want


     -------------------------------------------------
     Parameters for Dispersion (Grimme-D2) Correction:
     -------------------------------------------------
       atom      VdW radius       C_6     

        N          2.640         42.670

     Subspace diagonalization in iterative solution of the eigenvalue problem:
     one sub-group per band group will be used
     scalapack distributed-memory algorithm (size of sub-group:  3*  3 procs)


     Parallelization info
     --------------------
     sticks:   dense  smooth     PW     G-vecs:    dense   smooth      PW
     Min        3636    1818    468               639190   225950   29545
     Max        3637    1819    470               639197   225953   29547
     Sum       54553   27281   7033              9587919  3389267  443191



     bravais-lattice index     =            0
     lattice parameter (alat)  =      37.7945  a.u.
     unit-cell volume          =   53986.6760 (a.u.)^3
     number of atoms/cell      =            2
     number of atomic types    =            1
     number of electrons       =        10.00
     number of Kohn-Sham states=            9
     kinetic-energy cutoff     =      60.0000  Ry
     charge density cutoff     =     480.0000  Ry
     scf convergence threshold =      1.0E-08
     mixing beta               =       0.7000
     number of iterations used =           10  plain     mixing
     energy convergence thresh.=      7.3E-07
     force convergence thresh. =      3.9E-04
     Exchange-correlation= PBE
                           (   1   4   3   4   0   0   0)
     nstep                     =           50


     Effective Screening Medium Method
     =================================
     Boundary Conditions: Metal-Slab-Metal
     field strength                   =     0.00 Ry/a.u.
     grid points for fit at edges     =        4 


     celldm(1)=  37.794522  celldm(2)=   0.000000  celldm(3)=   0.000000
     celldm(4)=   0.000000  celldm(5)=   0.000000  celldm(6)=   0.000000

     crystal axes: (cart. coord. in units of alat)
               a(1) = (   1.000000   0.000000   0.000000 )  
               a(2) = (   0.000000   1.000000   0.000000 )  
               a(3) = (   0.000000   0.000000   1.000000 )  

     reciprocal axes: (cart. coord. in units 2 pi/alat)
               b(1) = (  1.000000  0.000000  0.000000 )  
               b(2) = (  0.000000  1.000000  0.000000 )  
               b(3) = (  0.000000  0.000000  1.000000 )  


     PseudoPot. # 1 for N  read from file:
     ../../SSSP/N.pbe-n-radius_5.UPF
     MD5 check sum: 16739722b17309cd8fe442a2ace49922
     Pseudo is Ultrasoft + core correction, Zval =  5.0
     Generated using "atomic" code by A. Dal Corso  v.5.1
     Using radial grid of 1085 points,  4 beta functions with: 
                l(1) =   0
                l(2) =   0
                l(3) =   1
                l(4) =   1
     Q(r) pseudized with 0 coefficients 


     atomic species   valence    mass     pseudopotential
        N              5.00    14.00700     N ( 1.00)

     Starting magnetic structure 
     atomic species   magnetization
        N            0.100

     No symmetry found



   Cartesian axes

     site n.     atom                  positions (alat units)
         1           N   tau(   1) = (   0.5000000   0.5000000   0.0000000  )
         2           N   tau(   2) = (   0.5000000   0.5000000  -0.0565000  )

     number of k points=    10  Methfessel-Paxton smearing, width (Ry)=  0.0100
                       cart. coord. in units 2pi/alat
        k(    1) = (   0.0000000   0.0000000   0.0000000), wk =   0.0625000
        k(    2) = (   0.0000000   0.2500000   0.0000000), wk =   0.1250000
        k(    3) = (   0.0000000  -0.5000000   0.0000000), wk =   0.0625000
        k(    4) = (   0.2500000   0.0000000   0.0000000), wk =   0.1250000
        k(    5) = (   0.2500000   0.2500000   0.0000000), wk =   0.1250000
        k(    6) = (   0.2500000  -0.5000000   0.0000000), wk =   0.1250000
        k(    7) = (   0.2500000  -0.2500000   0.0000000), wk =   0.1250000
        k(    8) = (  -0.5000000   0.0000000   0.0000000), wk =   0.0625000
        k(    9) = (  -0.5000000   0.2500000   0.0000000), wk =   0.1250000
        k(   10) = (  -0.5000000  -0.5000000   0.0000000), wk =   0.0625000

     Dense  grid:  9587919 G-vectors     FFT dimensions: ( 270, 270, 270)

     Smooth grid:  3389267 G-vectors     FFT dimensions: ( 192, 192, 192)

     Estimated max dynamical RAM per process >     370.17 MB

     Estimated total dynamical RAM >      43.38 GB
     Generating pointlists ...
     new r_m :   0.0233 (alat units)  0.8808 (a.u.) for type    1

     Initial potential from superposition of free atoms

     starting charge    9.99999, renormalised to   10.00000

     negative rho (up, down):  1.327E-04 1.086E-04
     Starting wfcs are    8 randomized atomic wfcs +    1 random wfcs

     total cpu time spent up to now is       21.6 secs

     Self-consistent Calculation

     iteration #  1     ecut=    60.00 Ry     beta= 0.70
     CG style diagonalization
     c_bands:  2 eigenvalues not converged
     c_bands:  1 eigenvalues not converged
     c_bands:  2 eigenvalues not converged
     ethr =  1.00E-04,  avg # of iterations = 10.1

     negative rho (up, down):  2.313E-04 2.249E-04

     total cpu time spent up to now is       56.9 secs

     total energy              =     -40.35514849 Ry
     estimated scf accuracy    <       0.13671786 Ry

     total magnetization       =     0.00 Bohr mag/cell
     absolute magnetization    =     0.06 Bohr mag/cell

     iteration #  2     ecut=    60.00 Ry     beta= 0.70
     CG style diagonalization
     ethr =  1.37E-03,  avg # of iterations =  3.5

     negative rho (up, down):  2.444E-04 2.440E-04

     total cpu time spent up to now is       76.8 secs

     total energy              =     -40.37356198 Ry
     estimated scf accuracy    <       0.01192487 Ry

     total magnetization       =    -0.00 Bohr mag/cell
     absolute magnetization    =     0.02 Bohr mag/cell

     iteration #  3     ecut=    60.00 Ry     beta= 0.70
     CG style diagonalization
     ethr =  1.19E-04,  avg # of iterations =  4.2

     negative rho (up, down):  2.671E-04 2.666E-04

     total cpu time spent up to now is       98.3 secs

     total energy              =     -40.37931855 Ry
     estimated scf accuracy    <       0.00544817 Ry

     total magnetization       =     0.00 Bohr mag/cell
     absolute magnetization    =     0.02 Bohr mag/cell

     iteration #  4     ecut=    60.00 Ry     beta= 0.70
     CG style diagonalization
     ethr =  5.45E-05,  avg # of iterations =  3.9

     negative rho (up, down):  2.716E-04 2.706E-04

     total cpu time spent up to now is      119.3 secs

     total energy              =     -40.38072122 Ry
     estimated scf accuracy    <       0.00360563 Ry

     total magnetization       =    -0.00 Bohr mag/cell
     absolute magnetization    =     0.01 Bohr mag/cell

     iteration #  5     ecut=    60.00 Ry     beta= 0.70
     CG style diagonalization
     ethr =  3.61E-05,  avg # of iterations =  3.3

     negative rho (up, down):  2.730E-04 2.723E-04

     total cpu time spent up to now is      138.9 secs

     total energy              =     -40.38129292 Ry
     estimated scf accuracy    <       0.00000735 Ry

     total magnetization       =     0.00 Bohr mag/cell
     absolute magnetization    =     0.01 Bohr mag/cell

     iteration #  6     ecut=    60.00 Ry     beta= 0.70
     CG style diagonalization
     ethr =  7.35E-08,  avg # of iterations =  6.5

     negative rho (up, down):  2.731E-04 2.729E-04

     total cpu time spent up to now is      166.2 secs

     total energy              =     -40.38131593 Ry
     estimated scf accuracy    <       0.00000663 Ry

     total magnetization       =    -0.00 Bohr mag/cell
     absolute magnetization    =     0.00 Bohr mag/cell

     iteration #  7     ecut=    60.00 Ry     beta= 0.70
     CG style diagonalization
     ethr =  6.63E-08,  avg # of iterations =  4.1

     negative rho (up, down):  2.733E-04 2.732E-04

     total cpu time spent up to now is      187.9 secs

     total energy              =     -40.38131679 Ry
     estimated scf accuracy    <       0.00000073 Ry

     total magnetization       =     0.00 Bohr mag/cell
     absolute magnetization    =     0.00 Bohr mag/cell

     iteration #  8     ecut=    60.00 Ry     beta= 0.70
     CG style diagonalization
     ethr =  7.30E-09,  avg # of iterations =  3.8

     negative rho (up, down):  2.733E-04 2.732E-04

     total cpu time spent up to now is      209.4 secs

     total energy              =     -40.38131714 Ry
     estimated scf accuracy    <       0.00000008 Ry

     total magnetization       =    -0.00 Bohr mag/cell
     absolute magnetization    =     0.00 Bohr mag/cell

     iteration #  9     ecut=    60.00 Ry     beta= 0.70
     CG style diagonalization
     ethr =  7.69E-10,  avg # of iterations =  3.8

     negative rho (up, down):  2.733E-04 2.733E-04

     total cpu time spent up to now is      230.8 secs

     total energy              =     -40.38131716 Ry
     estimated scf accuracy    <       0.00000002 Ry

     total magnetization       =    -0.00 Bohr mag/cell
     absolute magnetization    =     0.00 Bohr mag/cell

     iteration # 10     ecut=    60.00 Ry     beta= 0.70
     CG style diagonalization
     ethr =  2.01E-10,  avg # of iterations =  3.5

     negative rho (up, down):  2.733E-04 2.733E-04

     Magnetic moment per site:
     atom:    1    charge:    1.6827    magn:   -0.0000    constr:    0.0000
     atom:    2    charge:    1.6810    magn:    0.0000    constr:    0.0000

     total cpu time spent up to now is      249.0 secs

     End of self-consistent calculation

 ------ SPIN UP ------------


          k = 0.0000 0.0000 0.0000 (423701 PWs)   bands (ev):

   -27.0367 -12.8623 -10.5588 -10.5588  -9.3635  -1.4990  -1.4990   0.3523
     0.6759

          k = 0.0000 0.2500 0.0000 (423725 PWs)   bands (ev):

   -27.0367 -12.8623 -10.5588 -10.5588  -9.3635  -1.4990  -1.4990   0.3749
     0.5657

          k = 0.0000-0.5000 0.0000 (423542 PWs)   bands (ev):

   -27.0367 -12.8623 -10.5588 -10.5588  -9.3635  -1.4990  -1.4990   0.4260
     0.4689

          k = 0.2500 0.0000 0.0000 (423725 PWs)   bands (ev):

   -27.0367 -12.8623 -10.5588 -10.5588  -9.3635  -1.4990  -1.4990   0.3751
     0.5647

          k = 0.2500 0.2500 0.0000 (423766 PWs)   bands (ev):

   -27.0367 -12.8623 -10.5588 -10.5588  -9.3635  -1.4990  -1.4990   0.3983
     0.5898

          k = 0.2500-0.5000 0.0000 (423782 PWs)   bands (ev):

   -27.0367 -12.8623 -10.5588 -10.5588  -9.3635  -1.4990  -1.4990   0.4486
     0.4930

          k = 0.2500-0.2500 0.0000 (423766 PWs)   bands (ev):

   -27.0367 -12.8623 -10.5588 -10.5588  -9.3635  -1.4990  -1.4990   0.3972
     0.5744

          k =-0.5000 0.0000 0.0000 (423542 PWs)   bands (ev):

   -27.0367 -12.8623 -10.5588 -10.5588  -9.3635  -1.4990  -1.4990   0.4258
     0.4690

          k =-0.5000 0.2500 0.0000 (423782 PWs)   bands (ev):

   -27.0367 -12.8623 -10.5588 -10.5588  -9.3635  -1.4990  -1.4990   0.4481
     0.4919

          k =-0.5000-0.5000 0.0000 (423708 PWs)   bands (ev):

   -27.0367 -12.8623 -10.5588 -10.5588  -9.3635  -1.4990  -1.4990   0.4893
     0.5690

 ------ SPIN DOWN ----------


          k = 0.0000 0.0000 0.0000 (423701 PWs)   bands (ev):

   -27.0367 -12.8623 -10.5588 -10.5588  -9.3635  -1.4990  -1.4990   0.3524
     0.6848

          k = 0.0000 0.2500 0.0000 (423725 PWs)   bands (ev):

   -27.0367 -12.8623 -10.5588 -10.5588  -9.3635  -1.4990  -1.4990   0.3751
     0.5665

          k = 0.0000-0.5000 0.0000 (423542 PWs)   bands (ev):

   -27.0367 -12.8623 -10.5588 -10.5588  -9.3635  -1.4990  -1.4990   0.4258
     0.4684

          k = 0.2500 0.0000 0.0000 (423725 PWs)   bands (ev):

   -27.0367 -12.8623 -10.5588 -10.5588  -9.3635  -1.4990  -1.4990   0.3754
     0.5648

          k = 0.2500 0.2500 0.0000 (423766 PWs)   bands (ev):

   -27.0367 -12.8623 -10.5588 -10.5588  -9.3635  -1.4990  -1.4990   0.3973
     0.5744

          k = 0.2500-0.5000 0.0000 (423782 PWs)   bands (ev):

   -27.0367 -12.8623 -10.5588 -10.5588  -9.3635  -1.4990  -1.4990   0.4476
     0.4922

          k = 0.2500-0.2500 0.0000 (423766 PWs)   bands (ev):

   -27.0367 -12.8623 -10.5588 -10.5588  -9.3635  -1.4990  -1.4990   0.3983
     0.5747

          k =-0.5000 0.0000 0.0000 (423542 PWs)   bands (ev):

   -27.0367 -12.8623 -10.5588 -10.5588  -9.3635  -1.4990  -1.4990   0.4260
     0.4689

          k =-0.5000 0.2500 0.0000 (423782 PWs)   bands (ev):

   -27.0367 -12.8623 -10.5588 -10.5588  -9.3635  -1.4990  -1.4990   0.4474
     0.4930

          k =-0.5000-0.5000 0.0000 (423708 PWs)   bands (ev):

   -27.0367 -12.8623 -10.5588 -10.5588  -9.3635  -1.4990  -1.4990   0.4890
     0.5598

     the Fermi energy is    -6.1095 ev

!    total energy              =     -40.38131717 Ry
     estimated scf accuracy    <          4.7E-10 Ry
     smearing contrib. (-TS)   =       0.00000000 Ry
     internal energy E=F+TS    =     -40.38131717 Ry

     The total energy is F=E-TS. E is the sum of the following terms:
     one-electron contribution =    -103.67228892 Ry
     hartree contribution      =      53.06510517 Ry
     xc contribution           =     -10.45715946 Ry
     ewald contribution        =      20.68302849 Ry
     Dispersion Correction     =      -0.00000245 Ry

     total magnetization       =     0.00 Bohr mag/cell
     absolute magnetization    =     0.00 Bohr mag/cell

     convergence has been achieved in  10 iterations

     negative rho (up, down):  2.733E-04 2.733E-04

     Forces acting on atoms (cartesian axes, Ry/au):

     atom    1 type  1   force =    -0.00000000    0.00000000   -0.12926701
     atom    2 type  1   force =     0.00000000   -0.00000000    0.12927047

     Total force =     0.129270     Total SCF correction =     0.000032

     BFGS Geometry Optimization
     Energy error            =      0.0E+00
     Gradient error          =      1.3E-01

     number of scf cycles    =   1
     number of bfgs steps    =   0

     energy   new            =     -40.3813171696 Ry

     new trust radius        =       0.1292704736 bohr
     new conv_thr            =       0.0000000100 Ry


ATOMIC_POSITIONS (angstrom)
N            10.0000000000       10.0000000000        0.0000000000    0   0   0
N            10.0000000007        9.9999999994       -1.0615930113



     Writing output data file ./N2_ESM_std.save/
     NEW-OLD atomic charge density approx. for the potential

     negative rho (up, down):  2.180E-04 2.180E-04
     Generating pointlists ...
     new r_m :   0.0219 (alat units)  0.8275 (a.u.) for type    1

     total cpu time spent up to now is      270.3 secs

     Self-consistent Calculation

     iteration #  1     ecut=    60.00 Ry     beta= 0.70
     CG style diagonalization
     ethr =  1.00E-06,  avg # of iterations =  8.4

     negative rho (up, down):  2.816E-04 2.816E-04

     total cpu time spent up to now is      301.8 secs

     total energy              =     -40.37011490 Ry
     estimated scf accuracy    <       0.01133920 Ry

     total magnetization       =     0.00 Bohr mag/cell
     absolute magnetization    =     0.00 Bohr mag/cell

     iteration #  2     ecut=    60.00 Ry     beta= 0.70
     CG style diagonalization
     ethr =  1.13E-04,  avg # of iterations =  3.6

     negative rho (up, down):  3.163E-04 3.163E-04

     total cpu time spent up to now is      321.8 secs

     total energy              =     -40.37203606 Ry
     estimated scf accuracy    <       0.00108671 Ry

     total magnetization       =    -0.00 Bohr mag/cell
     absolute magnetization    =     0.00 Bohr mag/cell

     iteration #  3     ecut=    60.00 Ry     beta= 0.70
     CG style diagonalization
     ethr =  1.09E-05,  avg # of iterations =  4.0

     negative rho (up, down):  3.317E-04 3.317E-04

     total cpu time spent up to now is      342.9 secs

     total energy              =     -40.37278483 Ry
     estimated scf accuracy    <       0.00022542 Ry

     total magnetization       =     0.00 Bohr mag/cell
     absolute magnetization    =     0.00 Bohr mag/cell

     iteration #  4     ecut=    60.00 Ry     beta= 0.70
     CG style diagonalization
     ethr =  2.25E-06,  avg # of iterations =  3.3

     negative rho (up, down):  3.331E-04 3.331E-04

     total cpu time spent up to now is      362.5 secs

     total energy              =     -40.37284220 Ry
     estimated scf accuracy    <       0.00011528 Ry

     total magnetization       =     0.00 Bohr mag/cell
     absolute magnetization    =     0.00 Bohr mag/cell

     iteration #  5     ecut=    60.00 Ry     beta= 0.70
     CG style diagonalization
     ethr =  1.15E-06,  avg # of iterations =  3.1

     negative rho (up, down):  3.343E-04 3.343E-04

     total cpu time spent up to now is      381.6 secs

     total energy              =     -40.37286279 Ry
     estimated scf accuracy    <       0.00000050 Ry

     total magnetization       =     0.00 Bohr mag/cell
     absolute magnetization    =     0.00 Bohr mag/cell

     iteration #  6     ecut=    60.00 Ry     beta= 0.70
     CG style diagonalization
     ethr =  4.95E-09,  avg # of iterations =  4.2

     negative rho (up, down):  3.348E-04 3.348E-04

     total cpu time spent up to now is      403.5 secs

     total energy              =     -40.37286383 Ry
     estimated scf accuracy    <       0.00000042 Ry

     total magnetization       =     0.00 Bohr mag/cell
     absolute magnetization    =     0.00 Bohr mag/cell

     iteration #  7     ecut=    60.00 Ry     beta= 0.70
     CG style diagonalization
     ethr =  4.24E-09,  avg # of iterations =  3.2

     negative rho (up, down):  3.350E-04 3.350E-04

     total cpu time spent up to now is      423.2 secs

     total energy              =     -40.37286385 Ry
     estimated scf accuracy    <       0.00000009 Ry

     total magnetization       =     0.00 Bohr mag/cell
     absolute magnetization    =     0.00 Bohr mag/cell

     iteration #  8     ecut=    60.00 Ry     beta= 0.70
     CG style diagonalization
     ethr =  8.67E-10,  avg # of iterations =  3.7

     negative rho (up, down):  3.350E-04 3.350E-04

     total cpu time spent up to now is      443.9 secs

     total energy              =     -40.37286389 Ry
     estimated scf accuracy    <       0.00000001 Ry

     total magnetization       =    -0.00 Bohr mag/cell
     absolute magnetization    =     0.00 Bohr mag/cell

     iteration #  9     ecut=    60.00 Ry     beta= 0.70
     CG style diagonalization
     ethr =  1.33E-10,  avg # of iterations =  3.6

     negative rho (up, down):  3.350E-04 3.350E-04

     Magnetic moment per site:
     atom:    1    charge:    1.5089    magn:    0.0000    constr:    0.0000
     atom:    2    charge:    1.5081    magn:   -0.0000    constr:    0.0000

     total cpu time spent up to now is      462.2 secs

     End of self-consistent calculation

 ------ SPIN UP ------------


          k = 0.0000 0.0000 0.0000 (423701 PWs)   bands (ev):

   -28.0868 -12.3809 -11.1277 -11.1277  -9.4126  -0.6969  -0.6969   0.3480
     0.6765

          k = 0.0000 0.2500 0.0000 (423725 PWs)   bands (ev):

   -28.0868 -12.3809 -11.1277 -11.1277  -9.4126  -0.6969  -0.6969   0.3706
     0.5616

          k = 0.0000-0.5000 0.0000 (423542 PWs)   bands (ev):

   -28.0868 -12.3809 -11.1277 -11.1277  -9.4126  -0.6969  -0.6969   0.4217
     0.4647

          k = 0.2500 0.0000 0.0000 (423725 PWs)   bands (ev):

   -28.0868 -12.3809 -11.1277 -11.1277  -9.4126  -0.6969  -0.6969   0.3708
     0.5610

          k = 0.2500 0.2500 0.0000 (423766 PWs)   bands (ev):

   -28.0868 -12.3809 -11.1277 -11.1277  -9.4126  -0.6969  -0.6969   0.3938
     0.5859

          k = 0.2500-0.5000 0.0000 (423782 PWs)   bands (ev):

   -28.0868 -12.3809 -11.1277 -11.1277  -9.4126  -0.6969  -0.6969   0.4436
     0.4887

          k = 0.2500-0.2500 0.0000 (423766 PWs)   bands (ev):

   -28.0868 -12.3809 -11.1277 -11.1277  -9.4126  -0.6969  -0.6969   0.3929
     0.5714

          k =-0.5000 0.0000 0.0000 (423542 PWs)   bands (ev):

   -28.0868 -12.3809 -11.1277 -11.1277  -9.4126  -0.6969  -0.6969   0.4216
     0.4647

          k =-0.5000 0.2500 0.0000 (423782 PWs)   bands (ev):

   -28.0868 -12.3809 -11.1277 -11.1277  -9.4126  -0.6969  -0.6969   0.4438
     0.4879

          k =-0.5000-0.5000 0.0000 (423708 PWs)   bands (ev):

   -28.0868 -12.3809 -11.1277 -11.1277  -9.4126  -0.6969  -0.6969   0.4857
     0.5651

 ------ SPIN DOWN ----------


          k = 0.0000 0.0000 0.0000 (423701 PWs)   bands (ev):

   -28.0868 -12.3809 -11.1277 -11.1277  -9.4126  -0.6969  -0.6969   0.3480
     0.6843

          k = 0.0000 0.2500 0.0000 (423725 PWs)   bands (ev):

   -28.0868 -12.3809 -11.1277 -11.1277  -9.4126  -0.6969  -0.6969   0.3707
     0.5627

          k = 0.0000-0.5000 0.0000 (423542 PWs)   bands (ev):

   -28.0868 -12.3809 -11.1277 -11.1277  -9.4126  -0.6969  -0.6969   0.4216
     0.4643

          k = 0.2500 0.0000 0.0000 (423725 PWs)   bands (ev):

   -28.0868 -12.3809 -11.1277 -11.1277  -9.4126  -0.6969  -0.6969   0.3709
     0.5613

          k = 0.2500 0.2500 0.0000 (423766 PWs)   bands (ev):

   -28.0868 -12.3809 -11.1277 -11.1277  -9.4126  -0.6969  -0.6969   0.3930
     0.5714

          k = 0.2500-0.5000 0.0000 (423782 PWs)   bands (ev):

   -28.0868 -12.3809 -11.1277 -11.1277  -9.4126  -0.6969  -0.6969   0.4433
     0.4880

          k = 0.2500-0.2500 0.0000 (423766 PWs)   bands (ev):

   -28.0868 -12.3809 -11.1277 -11.1277  -9.4126  -0.6969  -0.6969   0.3937
     0.5715

          k =-0.5000 0.0000 0.0000 (423542 PWs)   bands (ev):

   -28.0868 -12.3809 -11.1277 -11.1277  -9.4126  -0.6969  -0.6969   0.4218
     0.4647

          k =-0.5000 0.2500 0.0000 (423782 PWs)   bands (ev):

   -28.0868 -12.3809 -11.1277 -11.1277  -9.4126  -0.6969  -0.6969   0.4430
     0.4887

          k =-0.5000-0.5000 0.0000 (423708 PWs)   bands (ev):

   -28.0868 -12.3809 -11.1277 -11.1277  -9.4126  -0.6969  -0.6969   0.4854
     0.5553

     the Fermi energy is    -6.3724 ev

!    total energy              =     -40.37286389 Ry
     estimated scf accuracy    <          5.8E-10 Ry
     smearing contrib. (-TS)   =       0.00000000 Ry
     internal energy E=F+TS    =     -40.37286389 Ry

     The total energy is F=E-TS. E is the sum of the following terms:
     one-electron contribution =    -106.31214617 Ry
     hartree contribution      =      54.36102152 Ry
     xc contribution           =     -10.62149625 Ry
     ewald contribution        =      22.19975922 Ry
     Dispersion Correction     =      -0.00000220 Ry

     total magnetization       =    -0.00 Bohr mag/cell
     absolute magnetization    =     0.00 Bohr mag/cell

     convergence has been achieved in   9 iterations

     negative rho (up, down):  3.350E-04 3.350E-04

     Forces acting on atoms (cartesian axes, Ry/au):

     atom    1 type  1   force =    -0.00000000   -0.00000000    0.29750513
     atom    2 type  1   force =     0.00000000    0.00000000   -0.29752127

     Total force =     0.297521     Total SCF correction =     0.000030
     Energy error            =      8.5E-03
     Gradient error          =      3.0E-01

     number of scf cycles    =   2
     number of bfgs steps    =   1

     energy   old            =     -40.3813171696 Ry
     energy   new            =     -40.3728638948 Ry

     CASE: energy  _new > energy  _old

     new trust radius        =       0.0429226079 bohr
     new conv_thr            =       0.0000000100 Ry


ATOMIC_POSITIONS (angstrom)
N            10.0000000000       10.0000000000        0.0000000000    0   0   0
N            10.0000000002        9.9999999998       -1.1072863341



     Writing output data file ./N2_ESM_std.save/
     NEW-OLD atomic charge density approx. for the potential

     negative rho (up, down):  3.465E-04 3.465E-04
     Generating pointlists ...

     total cpu time spent up to now is      484.0 secs

     Self-consistent Calculation

     iteration #  1     ecut=    60.00 Ry     beta= 0.70
     CG style diagonalization
     ethr =  1.00E-06,  avg # of iterations =  7.9

     negative rho (up, down):  2.925E-04 2.925E-04

     total cpu time spent up to now is      514.4 secs

     total energy              =     -40.38296229 Ry
     estimated scf accuracy    <       0.00549414 Ry

     total magnetization       =     0.00 Bohr mag/cell
     absolute magnetization    =     0.00 Bohr mag/cell

     iteration #  2     ecut=    60.00 Ry     beta= 0.70
     CG style diagonalization
     ethr =  5.49E-05,  avg # of iterations =  3.6

     negative rho (up, down):  3.007E-04 3.007E-04

     total cpu time spent up to now is      534.4 secs

     total energy              =     -40.38377550 Ry
     estimated scf accuracy    <       0.00107174 Ry

     total magnetization       =    -0.00 Bohr mag/cell
     absolute magnetization    =     0.00 Bohr mag/cell

     iteration #  3     ecut=    60.00 Ry     beta= 0.70
     CG style diagonalization
     ethr =  1.07E-05,  avg # of iterations =  4.0

     negative rho (up, down):  3.005E-04 3.005E-04

     total cpu time spent up to now is      555.5 secs

     total energy              =     -40.38426545 Ry
     estimated scf accuracy    <       0.00081150 Ry

     total magnetization       =     0.00 Bohr mag/cell
     absolute magnetization    =     0.00 Bohr mag/cell

     iteration #  4     ecut=    60.00 Ry     beta= 0.70
     CG style diagonalization
     ethr =  8.11E-06,  avg # of iterations =  3.0

     negative rho (up, down):  2.961E-04 2.961E-04

     total cpu time spent up to now is      574.4 secs

     total energy              =     -40.38441294 Ry
     estimated scf accuracy    <       0.00001451 Ry

     total magnetization       =     0.00 Bohr mag/cell
     absolute magnetization    =     0.00 Bohr mag/cell

     iteration #  5     ecut=    60.00 Ry     beta= 0.70
     CG style diagonalization
     ethr =  1.45E-07,  avg # of iterations =  3.6

     negative rho (up, down):  2.958E-04 2.958E-04

     total cpu time spent up to now is      594.5 secs

     total energy              =     -40.38441946 Ry
     estimated scf accuracy    <       0.00000308 Ry

     total magnetization       =    -0.00 Bohr mag/cell
     absolute magnetization    =     0.00 Bohr mag/cell

     iteration #  6     ecut=    60.00 Ry     beta= 0.70
     CG style diagonalization
     ethr =  3.08E-08,  avg # of iterations =  3.3

     negative rho (up, down):  2.959E-04 2.959E-04

     total cpu time spent up to now is      614.3 secs

     total energy              =     -40.38442042 Ry
     estimated scf accuracy    <       0.00000168 Ry

     total magnetization       =     0.00 Bohr mag/cell
     absolute magnetization    =     0.00 Bohr mag/cell

     iteration #  7     ecut=    60.00 Ry     beta= 0.70
     CG style diagonalization
     ethr =  1.68E-08,  avg # of iterations =  3.2

     negative rho (up, down):  2.959E-04 2.959E-04

     total cpu time spent up to now is      634.0 secs

     total energy              =     -40.38442070 Ry
     estimated scf accuracy    <       0.00000008 Ry

     total magnetization       =     0.00 Bohr mag/cell
     absolute magnetization    =     0.00 Bohr mag/cell

     iteration #  8     ecut=    60.00 Ry     beta= 0.70
     CG style diagonalization
     ethr =  7.86E-10,  avg # of iterations =  3.4

     negative rho (up, down):  2.959E-04 2.959E-04

     Magnetic moment per site:
     atom:    1    charge:    1.4689    magn:   -0.0000    constr:    0.0000
     atom:    2    charge:    1.4673    magn:   -0.0000    constr:    0.0000

     total cpu time spent up to now is      652.2 secs

     End of self-consistent calculation

 ------ SPIN UP ------------


          k = 0.0000 0.0000 0.0000 (423701 PWs)   bands (ev):

   -27.3837 -12.7042 -10.7390 -10.7390  -9.3806  -1.2424  -1.2424   0.3500
     0.6752

          k = 0.0000 0.2500 0.0000 (423725 PWs)   bands (ev):

   -27.3837 -12.7042 -10.7390 -10.7390  -9.3806  -1.2423  -1.2423   0.3725
     0.5632

          k = 0.0000-0.5000 0.0000 (423542 PWs)   bands (ev):

   -27.3837 -12.7042 -10.7390 -10.7390  -9.3806  -1.2423  -1.2423   0.4232
     0.4669

          k = 0.2500 0.0000 0.0000 (423725 PWs)   bands (ev):

   -27.3837 -12.7042 -10.7390 -10.7390  -9.3806  -1.2423  -1.2423   0.3726
     0.5625

          k = 0.2500 0.2500 0.0000 (423766 PWs)   bands (ev):

   -27.3837 -12.7042 -10.7390 -10.7390  -9.3806  -1.2423  -1.2423   0.3956
     0.5872

          k = 0.2500-0.5000 0.0000 (423782 PWs)   bands (ev):

   -27.3837 -12.7042 -10.7390 -10.7390  -9.3806  -1.2424  -1.2423   0.4449
     0.4909

          k = 0.2500-0.2500 0.0000 (423766 PWs)   bands (ev):

   -27.3837 -12.7042 -10.7390 -10.7390  -9.3806  -1.2423  -1.2423   0.3948
     0.5724

          k =-0.5000 0.0000 0.0000 (423542 PWs)   bands (ev):

   -27.3837 -12.7042 -10.7390 -10.7390  -9.3806  -1.2423  -1.2423   0.4231
     0.4670

          k =-0.5000 0.2500 0.0000 (423782 PWs)   bands (ev):

   -27.3837 -12.7042 -10.7390 -10.7390  -9.3806  -1.2424  -1.2423   0.4450
     0.4902

          k =-0.5000-0.5000 0.0000 (423708 PWs)   bands (ev):

   -27.3837 -12.7042 -10.7390 -10.7390  -9.3806  -1.2423  -1.2423   0.4862
     0.5674

 ------ SPIN DOWN ----------


          k = 0.0000 0.0000 0.0000 (423701 PWs)   bands (ev):

   -27.3837 -12.7042 -10.7390 -10.7390  -9.3806  -1.2424  -1.2424   0.3501
     0.6829

          k = 0.0000 0.2500 0.0000 (423725 PWs)   bands (ev):

   -27.3837 -12.7042 -10.7390 -10.7390  -9.3806  -1.2423  -1.2423   0.3726
     0.5638

          k = 0.0000-0.5000 0.0000 (423542 PWs)   bands (ev):

   -27.3837 -12.7042 -10.7390 -10.7390  -9.3806  -1.2423  -1.2423   0.4231
     0.4667

          k = 0.2500 0.0000 0.0000 (423725 PWs)   bands (ev):

   -27.3837 -12.7042 -10.7390 -10.7390  -9.3806  -1.2423  -1.2423   0.3727
     0.5627

          k = 0.2500 0.2500 0.0000 (423766 PWs)   bands (ev):

   -27.3837 -12.7042 -10.7390 -10.7390  -9.3806  -1.2423  -1.2423   0.3949
     0.5724

          k = 0.2500-0.5000 0.0000 (423782 PWs)   bands (ev):

   -27.3837 -12.7042 -10.7390 -10.7390  -9.3806  -1.2424  -1.2423   0.4447
     0.4903

          k = 0.2500-0.2500 0.0000 (423766 PWs)   bands (ev):

   -27.3837 -12.7042 -10.7390 -10.7390  -9.3806  -1.2423  -1.2423   0.3952
     0.5725

          k =-0.5000 0.0000 0.0000 (423542 PWs)   bands (ev):

   -27.3837 -12.7042 -10.7390 -10.7390  -9.3806  -1.2423  -1.2423   0.4232
     0.4669

          k =-0.5000 0.2500 0.0000 (423782 PWs)   bands (ev):

   -27.3837 -12.7042 -10.7390 -10.7390  -9.3806  -1.2424  -1.2423   0.4445
     0.4909

          k =-0.5000-0.5000 0.0000 (423708 PWs)   bands (ev):

   -27.3837 -12.7042 -10.7390 -10.7390  -9.3806  -1.2423  -1.2423   0.4861
     0.5575

     the Fermi energy is    -6.1977 ev

!    total energy              =     -40.38442074 Ry
     estimated scf accuracy    <          9.2E-10 Ry
     smearing contrib. (-TS)   =       0.00000000 Ry
     internal energy E=F+TS    =     -40.38442074 Ry

     The total energy is F=E-TS. E is the sum of the following terms:
     one-electron contribution =    -104.52363194 Ry
     hartree contribution      =      53.48237527 Ry
     xc contribution           =     -10.50916873 Ry
     ewald contribution        =      21.16600703 Ry
     Dispersion Correction     =      -0.00000236 Ry

     total magnetization       =     0.00 Bohr mag/cell
     absolute magnetization    =     0.00 Bohr mag/cell

     convergence has been achieved in   8 iterations

     negative rho (up, down):  2.959E-04 2.959E-04

     Forces acting on atoms (cartesian axes, Ry/au):

     atom    1 type  1   force =    -0.00000000   -0.00000000   -0.01184259
     atom    2 type  1   force =     0.00000000    0.00000000    0.01184916

     Total force =     0.011849     Total SCF correction =     0.000008
     Energy error            =      3.1E-03
     Gradient error          =      1.2E-02

     number of scf cycles    =   3
     number of bfgs steps    =   1

     energy   old            =     -40.3813171696 Ry
     energy   new            =     -40.3844207364 Ry

     CASE: energy  _new < energy  _old

     new trust radius        =       0.0043313847 bohr
     new conv_thr            =       0.0000000030 Ry


ATOMIC_POSITIONS (angstrom)
N            10.0000000000       10.0000000000        0.0000000000    0   0   0
N            10.0000000006       10.0000000004       -1.1049942640



     Writing output data file ./N2_ESM_std.save/
     NEW-OLD atomic charge density approx. for the potential

     negative rho (up, down):  2.941E-04 2.941E-04
     Generating pointlists ...

     total cpu time spent up to now is      673.8 secs

     Self-consistent Calculation

     iteration #  1     ecut=    60.00 Ry     beta= 0.70
     CG style diagonalization
     ethr =  1.00E-06,  avg # of iterations =  2.8

     negative rho (up, down):  2.972E-04 2.972E-04

     total cpu time spent up to now is      692.4 secs

     total energy              =     -40.38441576 Ry
     estimated scf accuracy    <       0.00001918 Ry

     total magnetization       =     0.00 Bohr mag/cell
     absolute magnetization    =     0.00 Bohr mag/cell

     iteration #  2     ecut=    60.00 Ry     beta= 0.70
     CG style diagonalization
     ethr =  1.92E-07,  avg # of iterations =  4.2

     negative rho (up, down):  2.979E-04 2.979E-04

     total cpu time spent up to now is      714.0 secs

     total energy              =     -40.38443466 Ry
     estimated scf accuracy    <       0.00006303 Ry

     total magnetization       =    -0.00 Bohr mag/cell
     absolute magnetization    =     0.00 Bohr mag/cell

     iteration #  3     ecut=    60.00 Ry     beta= 0.70
     CG style diagonalization
     ethr =  1.92E-07,  avg # of iterations =  3.3

     negative rho (up, down):  2.982E-04 2.982E-04

     total cpu time spent up to now is      733.6 secs

     total energy              =     -40.38444323 Ry
     estimated scf accuracy    <       0.00000119 Ry

     total magnetization       =     0.00 Bohr mag/cell
     absolute magnetization    =     0.00 Bohr mag/cell

     iteration #  4     ecut=    60.00 Ry     beta= 0.70
     CG style diagonalization
     ethr =  1.19E-08,  avg # of iterations =  3.3

     negative rho (up, down):  2.982E-04 2.982E-04

     total cpu time spent up to now is      753.3 secs

     total energy              =     -40.38444361 Ry
     estimated scf accuracy    <       0.00000018 Ry

     total magnetization       =     0.00 Bohr mag/cell
     absolute magnetization    =     0.00 Bohr mag/cell

     iteration #  5     ecut=    60.00 Ry     beta= 0.70
     CG style diagonalization
     ethr =  1.84E-09,  avg # of iterations =  3.8

     negative rho (up, down):  2.983E-04 2.983E-04

     total cpu time spent up to now is      774.0 secs

     total energy              =     -40.38444378 Ry
     estimated scf accuracy    <       0.00000010 Ry

     total magnetization       =     0.00 Bohr mag/cell
     absolute magnetization    =     0.00 Bohr mag/cell

     iteration #  6     ecut=    60.00 Ry     beta= 0.70
     CG style diagonalization
     ethr =  1.03E-09,  avg # of iterations =  3.4

     negative rho (up, down):  2.983E-04 2.983E-04

     total cpu time spent up to now is      794.0 secs

     total energy              =     -40.38444381 Ry
     estimated scf accuracy    <       0.00000001 Ry

     total magnetization       =    -0.00 Bohr mag/cell
     absolute magnetization    =     0.00 Bohr mag/cell

     iteration #  7     ecut=    60.00 Ry     beta= 0.70
     CG style diagonalization
     ethr =  1.05E-10,  avg # of iterations =  3.3

     negative rho (up, down):  2.983E-04 2.983E-04

     Magnetic moment per site:
     atom:    1    charge:    1.4708    magn:   -0.0000    constr:    0.0000
     atom:    2    charge:    1.4694    magn:   -0.0000    constr:    0.0000

     total cpu time spent up to now is      811.9 secs

     End of self-consistent calculation

 ------ SPIN UP ------------


          k = 0.0000 0.0000 0.0000 (423701 PWs)   bands (ev):

   -27.4187 -12.6881 -10.7575 -10.7575  -9.3822  -1.2158  -1.2158   0.3498
     0.6751

          k = 0.0000 0.2500 0.0000 (423725 PWs)   bands (ev):

   -27.4187 -12.6881 -10.7575 -10.7575  -9.3822  -1.2158  -1.2158   0.3723
     0.5628

          k = 0.0000-0.5000 0.0000 (423542 PWs)   bands (ev):

   -27.4187 -12.6881 -10.7575 -10.7575  -9.3822  -1.2158  -1.2158   0.4229
     0.4667

          k = 0.2500 0.0000 0.0000 (423725 PWs)   bands (ev):

   -27.4187 -12.6881 -10.7575 -10.7575  -9.3822  -1.2158  -1.2158   0.3724
     0.5622

          k = 0.2500 0.2500 0.0000 (423766 PWs)   bands (ev):

   -27.4187 -12.6881 -10.7575 -10.7575  -9.3822  -1.2158  -1.2158   0.3952
     0.5867

          k = 0.2500-0.5000 0.0000 (423782 PWs)   bands (ev):

   -27.4187 -12.6881 -10.7575 -10.7575  -9.3822  -1.2158  -1.2158   0.4445
     0.4906

          k = 0.2500-0.2500 0.0000 (423766 PWs)   bands (ev):

   -27.4187 -12.6881 -10.7575 -10.7575  -9.3822  -1.2158  -1.2158   0.3946
     0.5722

          k =-0.5000 0.0000 0.0000 (423542 PWs)   bands (ev):

   -27.4187 -12.6881 -10.7575 -10.7575  -9.3822  -1.2158  -1.2158   0.4229
     0.4668

          k =-0.5000 0.2500 0.0000 (423782 PWs)   bands (ev):

   -27.4187 -12.6881 -10.7575 -10.7575  -9.3822  -1.2158  -1.2158   0.4446
     0.4901

          k =-0.5000-0.5000 0.0000 (423708 PWs)   bands (ev):

   -27.4187 -12.6881 -10.7575 -10.7575  -9.3822  -1.2158  -1.2158   0.4859
     0.5673

 ------ SPIN DOWN ----------


          k = 0.0000 0.0000 0.0000 (423701 PWs)   bands (ev):

   -27.4187 -12.6881 -10.7575 -10.7575  -9.3822  -1.2158  -1.2158   0.3499
     0.6824

          k = 0.0000 0.2500 0.0000 (423725 PWs)   bands (ev):

   -27.4187 -12.6881 -10.7575 -10.7575  -9.3822  -1.2158  -1.2158   0.3724
     0.5633

          k = 0.0000-0.5000 0.0000 (423542 PWs)   bands (ev):

   -27.4187 -12.6881 -10.7575 -10.7575  -9.3822  -1.2158  -1.2158   0.4229
     0.4666

          k = 0.2500 0.0000 0.0000 (423725 PWs)   bands (ev):

   -27.4187 -12.6881 -10.7575 -10.7575  -9.3822  -1.2158  -1.2158   0.3725
     0.5625

          k = 0.2500 0.2500 0.0000 (423766 PWs)   bands (ev):

   -27.4187 -12.6881 -10.7575 -10.7575  -9.3822  -1.2158  -1.2158   0.3946
     0.5722

          k = 0.2500-0.5000 0.0000 (423782 PWs)   bands (ev):

   -27.4187 -12.6881 -10.7575 -10.7575  -9.3822  -1.2158  -1.2158   0.4443
     0.4902

          k = 0.2500-0.2500 0.0000 (423766 PWs)   bands (ev):

   -27.4187 -12.6881 -10.7575 -10.7575  -9.3822  -1.2158  -1.2158   0.3949
     0.5722

          k =-0.5000 0.0000 0.0000 (423542 PWs)   bands (ev):

   -27.4187 -12.6881 -10.7575 -10.7575  -9.3822  -1.2158  -1.2158   0.4229
     0.4667

          k =-0.5000 0.2500 0.0000 (423782 PWs)   bands (ev):

   -27.4187 -12.6881 -10.7575 -10.7575  -9.3822  -1.2158  -1.2158   0.4442
     0.4906

          k =-0.5000-0.5000 0.0000 (423708 PWs)   bands (ev):

   -27.4187 -12.6881 -10.7575 -10.7575  -9.3822  -1.2158  -1.2158   0.4858
     0.5572

     the Fermi energy is    -6.2068 ev

!    total energy              =     -40.38444381 Ry
     estimated scf accuracy    <          5.3E-10 Ry
     smearing contrib. (-TS)   =       0.00000000 Ry
     internal energy E=F+TS    =     -40.38444381 Ry

     The total energy is F=E-TS. E is the sum of the following terms:
     one-electron contribution =    -104.61093212 Ry
     hartree contribution      =      53.52521037 Ry
     xc contribution           =     -10.51455940 Ry
     ewald contribution        =      21.21583968 Ry
     Dispersion Correction     =      -0.00000235 Ry

     total magnetization       =    -0.00 Bohr mag/cell
     absolute magnetization    =     0.00 Bohr mag/cell

     convergence has been achieved in   7 iterations

     negative rho (up, down):  2.983E-04 2.983E-04

     Forces acting on atoms (cartesian axes, Ry/au):

     atom    1 type  1   force =    -0.00000000   -0.00000000    0.00121182
     atom    2 type  1   force =     0.00000000    0.00000000   -0.00121715

     Total force =     0.001217     Total SCF correction =     0.000006
     Energy error            =      2.3E-05
     Gradient error          =      1.2E-03

     number of scf cycles    =   4
     number of bfgs steps    =   2

     energy   old            =     -40.3844207364 Ry
     energy   new            =     -40.3844438073 Ry

     CASE: energy  _new < energy  _old

     new trust radius        =       0.0004034760 bohr
     new conv_thr            =       0.0000000003 Ry


ATOMIC_POSITIONS (angstrom)
N            10.0000000000       10.0000000000        0.0000000000    0   0   0
N            10.0000000009       10.0000000010       -1.1052077743



     Writing output data file ./N2_ESM_std.save/
     NEW-OLD atomic charge density approx. for the potential

     negative rho (up, down):  2.984E-04 2.984E-04
     Generating pointlists ...

     total cpu time spent up to now is      833.2 secs

     Self-consistent Calculation

     iteration #  1     ecut=    60.00 Ry     beta= 0.70
     CG style diagonalization
     ethr =  1.00E-06,  avg # of iterations =  2.0

     Threshold (ethr) on eigenvalues was too large:
     Diagonalizing with lowered threshold

     CG style diagonalization
     ethr =  1.37E-09,  avg # of iterations =  3.6

     negative rho (up, down):  2.982E-04 2.982E-04

     total cpu time spent up to now is      860.8 secs

     total energy              =     -40.38444403 Ry
     estimated scf accuracy    <       0.00000010 Ry

     total magnetization       =    -0.00 Bohr mag/cell
     absolute magnetization    =     0.00 Bohr mag/cell

     iteration #  2     ecut=    60.00 Ry     beta= 0.70
     CG style diagonalization
     ethr =  1.03E-09,  avg # of iterations =  3.6

     negative rho (up, down):  2.981E-04 2.981E-04

     total cpu time spent up to now is      880.8 secs

     total energy              =     -40.38444405 Ry
     estimated scf accuracy    <       0.00000002 Ry

     total magnetization       =    -0.00 Bohr mag/cell
     absolute magnetization    =     0.00 Bohr mag/cell

     iteration #  3     ecut=    60.00 Ry     beta= 0.70
     CG style diagonalization
     ethr =  2.17E-10,  avg # of iterations =  3.6

     negative rho (up, down):  2.981E-04 2.981E-04

     total cpu time spent up to now is      900.8 secs

     total energy              =     -40.38444406 Ry
     estimated scf accuracy    <       0.00000001 Ry

     total magnetization       =    -0.00 Bohr mag/cell
     absolute magnetization    =     0.00 Bohr mag/cell

     iteration #  4     ecut=    60.00 Ry     beta= 0.70
     CG style diagonalization
     ethr =  1.39E-10,  avg # of iterations =  3.0

     negative rho (up, down):  2.981E-04 2.981E-04

     total cpu time spent up to now is      919.7 secs

     total energy              =     -40.38444406 Ry
     estimated scf accuracy    <          4.6E-10 Ry

     total magnetization       =     0.00 Bohr mag/cell
     absolute magnetization    =     0.00 Bohr mag/cell

     iteration #  5     ecut=    60.00 Ry     beta= 0.70
     CG style diagonalization
     ethr =  4.61E-12,  avg # of iterations =  3.6

     negative rho (up, down):  2.981E-04 2.981E-04

     Magnetic moment per site:
     atom:    1    charge:    1.4706    magn:   -0.0000    constr:    0.0000
     atom:    2    charge:    1.4692    magn:   -0.0000    constr:    0.0000

     total cpu time spent up to now is      938.1 secs

     End of self-consistent calculation

 ------ SPIN UP ------------


          k = 0.0000 0.0000 0.0000 (423701 PWs)   bands (ev):

   -27.4155 -12.6897 -10.7559 -10.7559  -9.3822  -1.2184  -1.2184   0.3498
     0.6751

          k = 0.0000 0.2500 0.0000 (423725 PWs)   bands (ev):

   -27.4155 -12.6897 -10.7559 -10.7559  -9.3822  -1.2184  -1.2184   0.3723
     0.5627

          k = 0.0000-0.5000 0.0000 (423542 PWs)   bands (ev):

   -27.4155 -12.6897 -10.7559 -10.7559  -9.3822  -1.2184  -1.2184   0.4229
     0.4667

          k = 0.2500 0.0000 0.0000 (423725 PWs)   bands (ev):

   -27.4155 -12.6897 -10.7559 -10.7559  -9.3822  -1.2184  -1.2184   0.3724
     0.5622

          k = 0.2500 0.2500 0.0000 (423766 PWs)   bands (ev):

   -27.4155 -12.6897 -10.7559 -10.7559  -9.3822  -1.2184  -1.2184   0.3951
     0.5865

          k = 0.2500-0.5000 0.0000 (423782 PWs)   bands (ev):

   -27.4155 -12.6897 -10.7559 -10.7559  -9.3822  -1.2184  -1.2184   0.4444
     0.4905

          k = 0.2500-0.2500 0.0000 (423766 PWs)   bands (ev):

   -27.4155 -12.6897 -10.7559 -10.7559  -9.3822  -1.2184  -1.2184   0.3946
     0.5721

          k =-0.5000 0.0000 0.0000 (423542 PWs)   bands (ev):

   -27.4155 -12.6897 -10.7559 -10.7559  -9.3822  -1.2184  -1.2184   0.4228
     0.4667

          k =-0.5000 0.2500 0.0000 (423782 PWs)   bands (ev):

   -27.4155 -12.6897 -10.7559 -10.7559  -9.3822  -1.2184  -1.2184   0.4445
     0.4901

          k =-0.5000-0.5000 0.0000 (423708 PWs)   bands (ev):

   -27.4155 -12.6897 -10.7559 -10.7559  -9.3822  -1.2184  -1.2184   0.4858
     0.5673

 ------ SPIN DOWN ----------


          k = 0.0000 0.0000 0.0000 (423701 PWs)   bands (ev):

   -27.4155 -12.6897 -10.7559 -10.7559  -9.3822  -1.2184  -1.2184   0.3499
     0.6820

          k = 0.0000 0.2500 0.0000 (423725 PWs)   bands (ev):

   -27.4155 -12.6897 -10.7559 -10.7559  -9.3822  -1.2184  -1.2184   0.3724
     0.5630

          k = 0.0000-0.5000 0.0000 (423542 PWs)   bands (ev):

   -27.4155 -12.6897 -10.7559 -10.7559  -9.3822  -1.2184  -1.2184   0.4228
     0.4666

          k = 0.2500 0.0000 0.0000 (423725 PWs)   bands (ev):

   -27.4155 -12.6897 -10.7559 -10.7559  -9.3822  -1.2184  -1.2184   0.3724
     0.5624

          k = 0.2500 0.2500 0.0000 (423766 PWs)   bands (ev):

   -27.4155 -12.6897 -10.7559 -10.7559  -9.3822  -1.2184  -1.2184   0.3946
     0.5721

          k = 0.2500-0.5000 0.0000 (423782 PWs)   bands (ev):

   -27.4155 -12.6897 -10.7559 -10.7559  -9.3822  -1.2184  -1.2184   0.4443
     0.4901

          k = 0.2500-0.2500 0.0000 (423766 PWs)   bands (ev):

   -27.4155 -12.6897 -10.7559 -10.7559  -9.3822  -1.2184  -1.2184   0.3948
     0.5722

          k =-0.5000 0.0000 0.0000 (423542 PWs)   bands (ev):

   -27.4155 -12.6897 -10.7559 -10.7559  -9.3822  -1.2184  -1.2184   0.4229
     0.4667

          k =-0.5000 0.2500 0.0000 (423782 PWs)   bands (ev):

   -27.4155 -12.6897 -10.7559 -10.7559  -9.3822  -1.2184  -1.2184   0.4442
     0.4905

          k =-0.5000-0.5000 0.0000 (423708 PWs)   bands (ev):

   -27.4155 -12.6897 -10.7559 -10.7559  -9.3822  -1.2184  -1.2184   0.4858
     0.5571

     the Fermi energy is    -6.2063 ev

!    total energy              =     -40.38444406 Ry
     estimated scf accuracy    <          1.2E-11 Ry
     smearing contrib. (-TS)   =       0.00000000 Ry
     internal energy E=F+TS    =     -40.38444406 Ry

     The total energy is F=E-TS. E is the sum of the following terms:
     one-electron contribution =    -104.60283185 Ry
     hartree contribution      =      53.52126924 Ry
     xc contribution           =     -10.51406812 Ry
     ewald contribution        =      21.21118902 Ry
     Dispersion Correction     =      -0.00000235 Ry

     total magnetization       =     0.00 Bohr mag/cell
     absolute magnetization    =     0.00 Bohr mag/cell

     convergence has been achieved in   5 iterations

     negative rho (up, down):  2.981E-04 2.981E-04

     Forces acting on atoms (cartesian axes, Ry/au):

     atom    1 type  1   force =     0.00000000    0.00000000    0.00000075
     atom    2 type  1   force =    -0.00000000   -0.00000000    0.00000615

     Total force =     0.000006     Total SCF correction =     0.000006
     SCF correction compared to forces is large: reduce conv_thr to get better values
     Energy error            =      2.5E-07
     Gradient error          =      6.1E-06
Begin final coordinates

ATOMIC_POSITIONS (angstrom)
N            10.0000000000       10.0000000000        0.0000000000    0   0   0
N            10.0000000009       10.0000000010       -1.1052077743
End final coordinates



     Writing output data file ./N2_ESM_std.save/

     lsda relaxation :  a final configuration with zero
                        absolute magnetization has been found

     the program is checking if it is really the minimum energy structure
     by performing a new scf iteration without any "electronic" history

     Initial potential from superposition of free atoms

     starting charge    9.99999, renormalised to   10.00000

     negative rho (up, down):  1.334E-04 1.091E-04

     total cpu time spent up to now is      957.5 secs

     Self-consistent Calculation

     iteration #  1     ecut=    60.00 Ry     beta= 0.70
     CG style diagonalization
     ethr =  1.00E-06,  avg # of iterations =  8.3

     negative rho (up, down):  2.478E-04 2.406E-04

     total cpu time spent up to now is      989.2 secs

     total energy              =     -40.35317413 Ry
     estimated scf accuracy    <       0.15796689 Ry

     total magnetization       =    -0.00 Bohr mag/cell
     absolute magnetization    =     0.06 Bohr mag/cell

     iteration #  2     ecut=    60.00 Ry     beta= 0.70
     CG style diagonalization
     ethr =  1.58E-03,  avg # of iterations =  3.6

     negative rho (up, down):  2.643E-04 2.650E-04

     total cpu time spent up to now is     1009.1 secs

     total energy              =     -40.37549752 Ry
     estimated scf accuracy    <       0.01283902 Ry

     total magnetization       =    -0.00 Bohr mag/cell
     absolute magnetization    =     0.03 Bohr mag/cell

     iteration #  3     ecut=    60.00 Ry     beta= 0.70
     CG style diagonalization
     ethr =  1.28E-04,  avg # of iterations =  3.9

     negative rho (up, down):  2.871E-04 2.873E-04

     total cpu time spent up to now is     1030.1 secs

     total energy              =     -40.38344684 Ry
     estimated scf accuracy    <       0.00225621 Ry

     total magnetization       =    -0.00 Bohr mag/cell
     absolute magnetization    =     0.02 Bohr mag/cell

     iteration #  4     ecut=    60.00 Ry     beta= 0.70
     CG style diagonalization
     ethr =  2.26E-05,  avg # of iterations =  3.6

     negative rho (up, down):  2.966E-04 2.957E-04

     total cpu time spent up to now is     1050.4 secs

     total energy              =     -40.38379654 Ry
     estimated scf accuracy    <       0.00368093 Ry

     total magnetization       =     0.00 Bohr mag/cell
     absolute magnetization    =     0.01 Bohr mag/cell

     iteration #  5     ecut=    60.00 Ry     beta= 0.70
     CG style diagonalization
     ethr =  2.26E-05,  avg # of iterations =  3.3

     negative rho (up, down):  2.977E-04 2.973E-04

     total cpu time spent up to now is     1069.9 secs

     total energy              =     -40.38441195 Ry
     estimated scf accuracy    <       0.00000782 Ry

     total magnetization       =     0.00 Bohr mag/cell
     absolute magnetization    =     0.01 Bohr mag/cell

     iteration #  6     ecut=    60.00 Ry     beta= 0.70
     CG style diagonalization
     ethr =  7.82E-08,  avg # of iterations =  5.5

     negative rho (up, down):  2.980E-04 2.977E-04

     total cpu time spent up to now is     1095.1 secs

     total energy              =     -40.38444208 Ry
     estimated scf accuracy    <       0.00001423 Ry

     total magnetization       =    -0.00 Bohr mag/cell
     absolute magnetization    =     0.00 Bohr mag/cell

     iteration #  7     ecut=    60.00 Ry     beta= 0.70
     CG style diagonalization
     ethr =  7.82E-08,  avg # of iterations =  3.5

     negative rho (up, down):  2.980E-04 2.980E-04

     total cpu time spent up to now is     1115.4 secs

     total energy              =     -40.38444371 Ry
     estimated scf accuracy    <       0.00000061 Ry

     total magnetization       =     0.00 Bohr mag/cell
     absolute magnetization    =     0.00 Bohr mag/cell

     iteration #  8     ecut=    60.00 Ry     beta= 0.70
     CG style diagonalization
     ethr =  6.14E-09,  avg # of iterations =  3.9

     negative rho (up, down):  2.980E-04 2.980E-04

     total cpu time spent up to now is     1136.7 secs

     total energy              =     -40.38444404 Ry
     estimated scf accuracy    <       0.00000001 Ry

     total magnetization       =    -0.00 Bohr mag/cell
     absolute magnetization    =     0.00 Bohr mag/cell

     iteration #  9     ecut=    60.00 Ry     beta= 0.70
     CG style diagonalization
     ethr =  1.21E-10,  avg # of iterations =  3.9

     negative rho (up, down):  2.981E-04 2.981E-04

     total cpu time spent up to now is     1158.2 secs

     total energy              =     -40.38444405 Ry
     estimated scf accuracy    <       0.00000003 Ry

     total magnetization       =     0.00 Bohr mag/cell
     absolute magnetization    =     0.00 Bohr mag/cell

     iteration # 10     ecut=    60.00 Ry     beta= 0.70
     CG style diagonalization
     ethr =  1.21E-10,  avg # of iterations =  3.5

     negative rho (up, down):  2.981E-04 2.981E-04

     Magnetic moment per site:
     atom:    1    charge:    1.4706    magn:    0.0000    constr:    0.0000
     atom:    2    charge:    1.4692    magn:    0.0000    constr:    0.0000

     total cpu time spent up to now is     1176.5 secs

     End of self-consistent calculation

 ------ SPIN UP ------------


          k = 0.0000 0.0000 0.0000 (423701 PWs)   bands (ev):

   -27.4156 -12.6897 -10.7559 -10.7559  -9.3823  -1.2184  -1.2184   0.3500
     0.6774

          k = 0.0000 0.2500 0.0000 (423725 PWs)   bands (ev):

   -27.4156 -12.6898 -10.7559 -10.7559  -9.3823  -1.2184  -1.2184   0.3724
     0.5627

          k = 0.0000-0.5000 0.0000 (423542 PWs)   bands (ev):

   -27.4156 -12.6897 -10.7559 -10.7559  -9.3823  -1.2184  -1.2184   0.4228
     0.4668

          k = 0.2500 0.0000 0.0000 (423725 PWs)   bands (ev):

   -27.4156 -12.6898 -10.7559 -10.7559  -9.3823  -1.2184  -1.2184   0.3727
     0.5638

          k = 0.2500 0.2500 0.0000 (423766 PWs)   bands (ev):

   -27.4156 -12.6898 -10.7559 -10.7559  -9.3823  -1.2184  -1.2184   0.3951
     0.5861

          k = 0.2500-0.5000 0.0000 (423782 PWs)   bands (ev):

   -27.4156 -12.6898 -10.7559 -10.7559  -9.3823  -1.2184  -1.2184   0.4451
     0.4904

          k = 0.2500-0.2500 0.0000 (423766 PWs)   bands (ev):

   -27.4156 -12.6898 -10.7559 -10.7559  -9.3823  -1.2184  -1.2184   0.3950
     0.5722

          k =-0.5000 0.0000 0.0000 (423542 PWs)   bands (ev):

   -27.4156 -12.6897 -10.7559 -10.7559  -9.3823  -1.2184  -1.2184   0.4235
     0.4666

          k =-0.5000 0.2500 0.0000 (423782 PWs)   bands (ev):

   -27.4156 -12.6898 -10.7559 -10.7559  -9.3823  -1.2184  -1.2184   0.4453
     0.4901

          k =-0.5000-0.5000 0.0000 (423708 PWs)   bands (ev):

   -27.4156 -12.6898 -10.7559 -10.7559  -9.3823  -1.2184  -1.2184   0.4862
     0.5672

 ------ SPIN DOWN ----------


          k = 0.0000 0.0000 0.0000 (423701 PWs)   bands (ev):

   -27.4156 -12.6897 -10.7559 -10.7559  -9.3823  -1.2184  -1.2184   0.3499
     0.6768

          k = 0.0000 0.2500 0.0000 (423725 PWs)   bands (ev):

   -27.4156 -12.6897 -10.7559 -10.7559  -9.3823  -1.2184  -1.2184   0.3725
     0.5629

          k = 0.0000-0.5000 0.0000 (423542 PWs)   bands (ev):

   -27.4156 -12.6897 -10.7559 -10.7559  -9.3823  -1.2184  -1.2184   0.4231
     0.4665

          k = 0.2500 0.0000 0.0000 (423725 PWs)   bands (ev):

   -27.4156 -12.6897 -10.7559 -10.7559  -9.3823  -1.2184  -1.2184   0.3725
     0.5624

          k = 0.2500 0.2500 0.0000 (423766 PWs)   bands (ev):

   -27.4156 -12.6897 -10.7559 -10.7559  -9.3823  -1.2184  -1.2184   0.3948
     0.5723

          k = 0.2500-0.5000 0.0000 (423782 PWs)   bands (ev):

   -27.4156 -12.6897 -10.7559 -10.7559  -9.3823  -1.2184  -1.2184   0.4445
     0.4901

          k = 0.2500-0.2500 0.0000 (423766 PWs)   bands (ev):

   -27.4156 -12.6897 -10.7559 -10.7559  -9.3823  -1.2184  -1.2184   0.3949
     0.5723

          k =-0.5000 0.0000 0.0000 (423542 PWs)   bands (ev):

   -27.4156 -12.6897 -10.7559 -10.7559  -9.3823  -1.2184  -1.2184   0.4231
     0.4666

          k =-0.5000 0.2500 0.0000 (423782 PWs)   bands (ev):

   -27.4156 -12.6897 -10.7559 -10.7559  -9.3823  -1.2184  -1.2184   0.4444
     0.4904

          k =-0.5000-0.5000 0.0000 (423708 PWs)   bands (ev):

   -27.4156 -12.6897 -10.7559 -10.7559  -9.3823  -1.2184  -1.2184   0.4866
     0.5570

     the Fermi energy is    -6.2098 ev

!    total energy              =     -40.38444406 Ry
     estimated scf accuracy    <          1.9E-10 Ry
     smearing contrib. (-TS)   =       0.00000000 Ry
     internal energy E=F+TS    =     -40.38444406 Ry

     The total energy is F=E-TS. E is the sum of the following terms:
     one-electron contribution =    -104.60286401 Ry
     hartree contribution      =      53.52130900 Ry
     xc contribution           =     -10.51407571 Ry
     ewald contribution        =      21.21118902 Ry
     Dispersion Correction     =      -0.00000235 Ry

     total magnetization       =    -0.00 Bohr mag/cell
     absolute magnetization    =     0.00 Bohr mag/cell

     convergence has been achieved in  10 iterations

     negative rho (up, down):  2.981E-04 2.981E-04

     Forces acting on atoms (cartesian axes, Ry/au):

     atom    1 type  1   force =    -0.00000000   -0.00000000   -0.00002309
     atom    2 type  1   force =     0.00000000    0.00000000   -0.00000486

     Total force =     0.000005     Total SCF correction =     0.000003
     SCF correction compared to forces is large: reduce conv_thr to get better values
     Energy error            =      2.5E-07
     Gradient error          =      4.9E-06

     bfgs converged in   5 scf cycles and   3 bfgs steps
     (criteria: energy <  7.3E-07 Ry, force <  3.9E-04 Ry/Bohr)

     End of BFGS Geometry Optimization

     Final energy   =     -40.3844440590 Ry

     File ./N2_ESM_std.bfgs deleted, as requested
Begin final coordinates

ATOMIC_POSITIONS (angstrom)
N            10.0000000000       10.0000000000        0.0000000000    0   0   0
N            10.0000000009       10.0000000010       -1.1052077743
End final coordinates



     Writing output data file ./N2_ESM_std.save/

     init_run     :     20.35s CPU     21.44s WALL (       1 calls)
     electrons    :    996.85s CPU   1065.06s WALL (       6 calls)
     update_pot   :     29.79s CPU     31.49s WALL (       4 calls)
     forces       :     49.17s CPU     52.60s WALL (       6 calls)

     Called by init_run:
     wfcinit      :      1.85s CPU      1.90s WALL (       1 calls)
     potinit      :     14.71s CPU     15.79s WALL (       2 calls)
     hinit0       :      1.34s CPU      1.49s WALL (       1 calls)

     Called by electrons:
     c_bands      :    445.58s CPU    451.94s WALL (      50 calls)
     sum_band     :    117.79s CPU    121.57s WALL (      50 calls)
     v_of_rho     :    315.97s CPU    343.65s WALL (      55 calls)
     newd         :     41.41s CPU     43.80s WALL (      55 calls)
     mix_rho      :     62.24s CPU     76.59s WALL (      50 calls)

     Called by c_bands:
     init_us_2    :      1.98s CPU      2.05s WALL (     321 calls)
     ccgdiagg     :    355.65s CPU    359.45s WALL (     150 calls)
     wfcrot       :     82.17s CPU     83.09s WALL (     132 calls)

     Called by *cgdiagg:
     h_psi        :    374.67s CPU    378.71s WALL (    4441 calls)
     s_psi        :     26.31s CPU     26.59s WALL (    8750 calls)

     Called by h_psi:
     h_psi:calbec :     16.52s CPU     16.72s WALL (    4441 calls)
     vloc_psi     :    336.19s CPU    339.81s WALL (    4441 calls)
     add_vuspsi   :     20.08s CPU     20.30s WALL (    4441 calls)
     hs_1psi      :    311.19s CPU    314.51s WALL (    4309 calls)
     s_1psi       :     28.22s CPU     28.50s WALL (    4309 calls)

     General routines
     calbec       :     32.27s CPU     32.66s WALL (    8972 calls)
     fft          :    336.81s CPU    345.66s WALL (    1457 calls)
     ffts         :     16.87s CPU     17.03s WALL (     210 calls)
     fftw         :    314.77s CPU    318.07s WALL (   12344 calls)
     interpolate  :     36.78s CPU     39.75s WALL (     110 calls)
     davcio       :      0.16s CPU      8.43s WALL (     918 calls)

     Parallel routines
     fft_scatt_xy :    110.30s CPU    111.54s WALL (   14011 calls)
     fft_scatt_yz :    228.31s CPU    230.84s WALL (   14011 calls)

     PWSCF        :  18m34.03s CPU  19m49.86s WALL


   This run was terminated on:  18:57:17   8Jul2022            

=------------------------------------------------------------------------------=
   JOB DONE.
=------------------------------------------------------------------------------=
