     Message from routine get_command_line:
     unexpected argument # 4     :-in

     Program PWSCF v.6.7MaX starts on  1Jul2022 at 12:58:18 

     This program is part of the open-source Quantum ESPRESSO suite
     for quantum simulation of materials; please cite
         "P. Giannozzi et al., J. Phys.:Condens. Matter 21 395502 (2009);
         "P. Giannozzi et al., J. Phys.:Condens. Matter 29 465901 (2017);
          URL http://www.quantum-espresso.org", 
     in publications or presentations arising from this work. More details at
     http://www.quantum-espresso.org/quote

     Parallel version (MPI), running on   120 processors

     MPI processes distributed on     1 nodes
     K-points division:     npool     =       8
     R & G space division:  proc/nbgrp/npool/nimage =      15
     Waiting for input...
     Reading input from standard input
Warning: card &CELL ignored
Warning: card / ignored

     Current dimensions of program PWSCF are:
     Max number of different atomic species (ntypx) = 10
     Max number of k-points (npk) =  40000
     Max angular momentum in pseudopotentials (lmaxx) =  3

     IMPORTANT: XC functional enforced from input :
     Exchange-correlation= PBE
                           (   1   4   3   4   0   0   0)
     Any further DFT definition will be discarded
     Please, verify this is what you really want


     -------------------------------------------------
     Parameters for Dispersion (Grimme-D2) Correction:
     -------------------------------------------------
       atom      VdW radius       C_6     

        N          2.640         42.670
        H          1.892          4.857

     Subspace diagonalization in iterative solution of the eigenvalue problem:
     one sub-group per band group will be used
     scalapack distributed-memory algorithm (size of sub-group:  3*  3 procs)


     Parallelization info
     --------------------
     sticks:   dense  smooth     PW     G-vecs:    dense   smooth      PW
     Min        3636    1818    468               639190   225950   29545
     Max        3637    1819    470               639197   225953   29547
     Sum       54553   27281   7033              9587919  3389267  443191



     bravais-lattice index     =            0
     lattice parameter (alat)  =      37.7945  a.u.
     unit-cell volume          =   53986.6760 (a.u.)^3
     number of atoms/cell      =            3
     number of atomic types    =            2
     number of electrons       =         7.00
     number of Kohn-Sham states=            8
     kinetic-energy cutoff     =      60.0000  Ry
     charge density cutoff     =     480.0000  Ry
     scf convergence threshold =      1.0E-08
     mixing beta               =       0.7000
     number of iterations used =           10  plain     mixing
     energy convergence thresh.=      7.3E-07
     force convergence thresh. =      3.9E-04
     Exchange-correlation= PBE
                           (   1   4   3   4   0   0   0)
     nstep                     =           50


     Effective Screening Medium Method
     =================================
     Boundary Conditions: Metal-Slab-Metal
     field strength                   =     0.03 Ry/a.u.
     grid points for fit at edges     =        4 


     celldm(1)=  37.794522  celldm(2)=   0.000000  celldm(3)=   0.000000
     celldm(4)=   0.000000  celldm(5)=   0.000000  celldm(6)=   0.000000

     crystal axes: (cart. coord. in units of alat)
               a(1) = (   1.000000   0.000000   0.000000 )  
               a(2) = (   0.000000   1.000000   0.000000 )  
               a(3) = (   0.000000   0.000000   1.000000 )  

     reciprocal axes: (cart. coord. in units 2 pi/alat)
               b(1) = (  1.000000  0.000000  0.000000 )  
               b(2) = (  0.000000  1.000000  0.000000 )  
               b(3) = (  0.000000  0.000000  1.000000 )  


     PseudoPot. # 1 for N  read from file:
     ../../SSSP/N.pbe-n-radius_5.UPF
     MD5 check sum: 16739722b17309cd8fe442a2ace49922
     Pseudo is Ultrasoft + core correction, Zval =  5.0
     Generated using "atomic" code by A. Dal Corso  v.5.1
     Using radial grid of 1085 points,  4 beta functions with: 
                l(1) =   0
                l(2) =   0
                l(3) =   1
                l(4) =   1
     Q(r) pseudized with 0 coefficients 


     PseudoPot. # 2 for H  read from file:
     ../../SSSP/H.pbe-rrkjus_psl.1.0.0.UPF
     MD5 check sum: f52b6d4d1c606e5624b1dc7b2218f220
     Pseudo is Ultrasoft, Zval =  1.0
     Generated using "atomic" code by A. Dal Corso  v.5.1
     Using radial grid of  929 points,  2 beta functions with: 
                l(1) =   0
                l(2) =   0
     Q(r) pseudized with 0 coefficients 


     atomic species   valence    mass     pseudopotential
        N              5.00    14.00700     N ( 1.00)
        H              1.00     1.00800     H ( 1.00)

     Starting magnetic structure 
     atomic species   magnetization
        N            0.100
        H            0.100

     No symmetry found



   Cartesian axes

     site n.     atom                  positions (alat units)
         1           N   tau(   1) = (   0.5000000   0.5000000   0.0000000  )
         2           H   tau(   2) = (   0.5000000   0.5404449  -0.0324140  )
         3           H   tau(   3) = (   0.5000000   0.4595551  -0.0324140  )

     number of k points=    10  Methfessel-Paxton smearing, width (Ry)=  0.0100
                       cart. coord. in units 2pi/alat
        k(    1) = (   0.0000000   0.0000000   0.0000000), wk =   0.0625000
        k(    2) = (   0.0000000   0.2500000   0.0000000), wk =   0.1250000
        k(    3) = (   0.0000000  -0.5000000   0.0000000), wk =   0.0625000
        k(    4) = (   0.2500000   0.0000000   0.0000000), wk =   0.1250000
        k(    5) = (   0.2500000   0.2500000   0.0000000), wk =   0.1250000
        k(    6) = (   0.2500000  -0.5000000   0.0000000), wk =   0.1250000
        k(    7) = (   0.2500000  -0.2500000   0.0000000), wk =   0.1250000
        k(    8) = (  -0.5000000   0.0000000   0.0000000), wk =   0.0625000
        k(    9) = (  -0.5000000   0.2500000   0.0000000), wk =   0.1250000
        k(   10) = (  -0.5000000  -0.5000000   0.0000000), wk =   0.0625000

     Dense  grid:  9587919 G-vectors     FFT dimensions: ( 270, 270, 270)

     Smooth grid:  3389267 G-vectors     FFT dimensions: ( 192, 192, 192)

     Estimated max dynamical RAM per process >     388.03 MB

     Estimated total dynamical RAM >      45.47 GB
     Generating pointlists ...
     new r_m :   0.0214 (alat units)  0.8081 (a.u.) for type    1
     new r_m :   0.0214 (alat units)  0.8081 (a.u.) for type    2

     Initial potential from superposition of free atoms

     starting charge    6.99997, renormalised to    7.00000

     negative rho (up, down):  9.679E-05 7.919E-05
     Starting wfcs are    6 randomized atomic wfcs +    2 random wfcs

     total cpu time spent up to now is       22.3 secs

     Self-consistent Calculation

     iteration #  1     ecut=    60.00 Ry     beta= 0.70
     CG style diagonalization
     c_bands:  4 eigenvalues not converged
     c_bands:  3 eigenvalues not converged
     c_bands:  4 eigenvalues not converged
     ethr =  1.00E-04,  avg # of iterations = 13.4

     negative rho (up, down):  2.208E-04 1.468E-04

     total cpu time spent up to now is       59.5 secs

     total energy              =     -22.32765260 Ry
     estimated scf accuracy    <       0.33759214 Ry

     total magnetization       =     1.00 Bohr mag/cell
     absolute magnetization    =     1.01 Bohr mag/cell

     iteration #  2     ecut=    60.00 Ry     beta= 0.70
     CG style diagonalization
     ethr =  4.82E-03,  avg # of iterations =  3.4

     negative rho (up, down):  1.490E-04 1.331E-04

     total cpu time spent up to now is       78.3 secs

     total energy              =     -22.28970703 Ry
     estimated scf accuracy    <       0.33417392 Ry

     total magnetization       =     0.46 Bohr mag/cell
     absolute magnetization    =     0.77 Bohr mag/cell

     iteration #  3     ecut=    60.00 Ry     beta= 0.70
     CG style diagonalization
     ethr =  4.77E-03,  avg # of iterations =  3.3

     negative rho (up, down):  1.253E-04 8.721E-05

     total cpu time spent up to now is       96.9 secs

     total energy              =     -22.43444553 Ry
     estimated scf accuracy    <       0.01949313 Ry

     total magnetization       =     1.00 Bohr mag/cell
     absolute magnetization    =     1.04 Bohr mag/cell

     iteration #  4     ecut=    60.00 Ry     beta= 0.70
     CG style diagonalization
     ethr =  2.78E-04,  avg # of iterations =  3.1

     negative rho (up, down):  1.527E-04 1.033E-04

     total cpu time spent up to now is      115.1 secs

     total energy              =     -22.43408587 Ry
     estimated scf accuracy    <       0.00773402 Ry

     total magnetization       =     1.00 Bohr mag/cell
     absolute magnetization    =     1.05 Bohr mag/cell

     iteration #  5     ecut=    60.00 Ry     beta= 0.70
     CG style diagonalization
     ethr =  1.10E-04,  avg # of iterations =  3.3

     negative rho (up, down):  6.205E-03 1.007E-04

     total cpu time spent up to now is      133.7 secs

     total energy              =     -22.43468385 Ry
     estimated scf accuracy    <       0.00095350 Ry

     total magnetization       =     0.93 Bohr mag/cell
     absolute magnetization    =     1.13 Bohr mag/cell

     iteration #  6     ecut=    60.00 Ry     beta= 0.70
     CG style diagonalization
     ethr =  1.36E-05,  avg # of iterations =  5.0

     negative rho (up, down):  1.554E-04 3.389E-04

     total cpu time spent up to now is      155.8 secs

     total energy              =     -22.43471766 Ry
     estimated scf accuracy    <       0.00033372 Ry

     total magnetization       =     1.00 Bohr mag/cell
     absolute magnetization    =     1.07 Bohr mag/cell

     iteration #  7     ecut=    60.00 Ry     beta= 0.70
     CG style diagonalization
     c_bands:  1 eigenvalues not converged
     c_bands:  1 eigenvalues not converged
     ethr =  4.77E-06,  avg # of iterations =  6.6

     negative rho (up, down):  1.460E-04 2.478E-02

     total cpu time spent up to now is      181.1 secs

     total energy              =     -22.43467459 Ry
     estimated scf accuracy    <       0.00009159 Ry

     total magnetization       =     1.03 Bohr mag/cell
     absolute magnetization    =     1.11 Bohr mag/cell

     iteration #  8     ecut=    60.00 Ry     beta= 0.70
     CG style diagonalization
     c_bands:  1 eigenvalues not converged
     ethr =  1.31E-06,  avg # of iterations =  7.2

     negative rho (up, down):  1.449E-04 2.488E-02

     total cpu time spent up to now is      207.8 secs

     total energy              =     -22.43481270 Ry
     estimated scf accuracy    <       0.00002206 Ry

     total magnetization       =     1.04 Bohr mag/cell
     absolute magnetization    =     1.12 Bohr mag/cell

     iteration #  9     ecut=    60.00 Ry     beta= 0.70
     CG style diagonalization
     c_bands:  1 eigenvalues not converged
     ethr =  3.15E-07,  avg # of iterations =  5.5

     negative rho (up, down):  1.481E-04 1.723E-02

     total cpu time spent up to now is      231.3 secs

     total energy              =     -22.43480565 Ry
     estimated scf accuracy    <       0.00001045 Ry

     total magnetization       =     1.02 Bohr mag/cell
     absolute magnetization    =     1.09 Bohr mag/cell

     iteration # 10     ecut=    60.00 Ry     beta= 0.70
     CG style diagonalization
     ethr =  1.49E-07,  avg # of iterations =  5.0

     negative rho (up, down):  1.504E-04 1.484E-02

     total cpu time spent up to now is      253.6 secs

     total energy              =     -22.43480799 Ry
     estimated scf accuracy    <       0.00000096 Ry

     total magnetization       =     1.02 Bohr mag/cell
     absolute magnetization    =     1.10 Bohr mag/cell

     iteration # 11     ecut=    60.00 Ry     beta= 0.70
     CG style diagonalization
     c_bands:  1 eigenvalues not converged
     ethr =  1.37E-08,  avg # of iterations =  4.9

     negative rho (up, down):  1.556E-04 1.059E-02

     total cpu time spent up to now is      276.1 secs

     total energy              =     -22.43481500 Ry
     estimated scf accuracy    <       0.00000059 Ry

     total magnetization       =     1.02 Bohr mag/cell
     absolute magnetization    =     1.10 Bohr mag/cell

     iteration # 12     ecut=    60.00 Ry     beta= 0.70
     CG style diagonalization
     c_bands:  1 eigenvalues not converged
     ethr =  8.39E-09,  avg # of iterations =  4.3

     negative rho (up, down):  1.559E-04 1.031E-02

     total cpu time spent up to now is      297.3 secs

     total energy              =     -22.43481509 Ry
     estimated scf accuracy    <       0.00000026 Ry

     total magnetization       =     1.02 Bohr mag/cell
     absolute magnetization    =     1.09 Bohr mag/cell

     iteration # 13     ecut=    60.00 Ry     beta= 0.70
     CG style diagonalization
     ethr =  3.74E-09,  avg # of iterations =  3.7

     negative rho (up, down):  1.663E-04 9.396E-03

     total cpu time spent up to now is      317.4 secs

     total energy              =     -22.43481646 Ry
     estimated scf accuracy    <       0.00000016 Ry

     total magnetization       =     1.02 Bohr mag/cell
     absolute magnetization    =     1.09 Bohr mag/cell

     iteration # 14     ecut=    60.00 Ry     beta= 0.70
     CG style diagonalization
     ethr =  2.25E-09,  avg # of iterations =  3.7

     negative rho (up, down):  1.671E-04 9.379E-03

     total cpu time spent up to now is      337.7 secs

     total energy              =     -22.43481635 Ry
     estimated scf accuracy    <       0.00000001 Ry

     total magnetization       =     1.02 Bohr mag/cell
     absolute magnetization    =     1.09 Bohr mag/cell

     iteration # 15     ecut=    60.00 Ry     beta= 0.70
     CG style diagonalization
     c_bands:  1 eigenvalues not converged
     c_bands:  1 eigenvalues not converged
     ethr =  1.80E-10,  avg # of iterations =  4.2

     negative rho (up, down):  1.593E-04 9.219E-03

     Magnetic moment per site:
     atom:    1    charge:    1.3479    magn:    0.2679    constr:    0.0000
     atom:    2    charge:    0.4495    magn:   -0.0053    constr:    0.0000
     atom:    3    charge:    0.4495    magn:   -0.0053    constr:    0.0000

     total cpu time spent up to now is      356.4 secs

     End of self-consistent calculation

 ------ SPIN UP ------------


          k = 0.0000 0.0000 0.0000 (423701 PWs)   bands (ev):

   -12.8913  -3.2241   0.3536   0.7088   2.3628   2.6974   2.8303   2.8772

          k = 0.0000 0.2500 0.0000 (423725 PWs)   bands (ev):

   -12.8913  -3.2241   0.3536   0.7088   2.3756   2.6317   2.8217   2.8468

          k = 0.0000-0.5000 0.0000 (423542 PWs)   bands (ev):

   -12.8913  -3.2241   0.3536   0.7088   2.3928   2.5790   2.8613   2.8889

          k = 0.2500 0.0000 0.0000 (423725 PWs)   bands (ev):

   -12.8913  -3.2241   0.3536   0.7088   2.3753   2.6350   2.8067   2.8527

          k = 0.2500 0.2500 0.0000 (423766 PWs)   bands (ev):

   -12.8913  -3.2241   0.3536   0.7088   2.3871   2.6331   2.7113   2.8783

          k = 0.2500-0.5000 0.0000 (423782 PWs)   bands (ev):

   -12.8913  -3.2241   0.3536   0.7088   2.4025   2.6022   2.7238   2.7927

          k = 0.2500-0.2500 0.0000 (423766 PWs)   bands (ev):

   -12.8913  -3.2241   0.3536   0.7088   2.3871   2.6335   2.7113   2.8788

          k =-0.5000 0.0000 0.0000 (423542 PWs)   bands (ev):

   -12.8913  -3.2241   0.3536   0.7088   2.3913   2.5836   2.8310   2.8897

          k =-0.5000 0.2500 0.0000 (423782 PWs)   bands (ev):

   -12.8913  -3.2241   0.3536   0.7088   2.4015   2.6065   2.7163   2.7956

          k =-0.5000-0.5000 0.0000 (423708 PWs)   bands (ev):

   -12.8913  -3.2241   0.3536   0.7088   2.4136   2.6609   2.6643   2.6914

 ------ SPIN DOWN ----------


          k = 0.0000 0.0000 0.0000 (423701 PWs)   bands (ev):

   -11.6251  -2.8571   0.9299   2.4991   2.8160   2.8984   2.9066   3.8869

          k = 0.0000 0.2500 0.0000 (423725 PWs)   bands (ev):

   -11.6251  -2.8571   0.9299   2.5213   2.7087   2.8872   2.9232   3.8869

          k = 0.0000-0.5000 0.0000 (423542 PWs)   bands (ev):

   -11.6251  -2.8571   0.9299   2.5715   2.6148   2.9371   2.9924   3.8869

          k = 0.2500 0.0000 0.0000 (423725 PWs)   bands (ev):

   -11.6251  -2.8571   0.9299   2.5204   2.7106   2.8810   2.9252   3.8869

          k = 0.2500 0.2500 0.0000 (423766 PWs)   bands (ev):

   -11.6251  -2.8571   0.9299   2.5426   2.7127   2.7630   2.9311   3.8869

          k = 0.2500-0.5000 0.0000 (423782 PWs)   bands (ev):

   -11.6251  -2.8571   0.9299   2.5918   2.6375   2.7994   2.8279   3.8869

          k = 0.2500-0.2500 0.0000 (423766 PWs)   bands (ev):

   -11.6251  -2.8571   0.9299   2.5428   2.7144   2.7613   2.9299   3.8869

          k =-0.5000 0.0000 0.0000 (423542 PWs)   bands (ev):

   -11.6251  -2.8571   0.9299   2.5687   2.6192   2.9252   2.9927   3.8869

          k =-0.5000 0.2500 0.0000 (423782 PWs)   bands (ev):

   -11.6251  -2.8571   0.9299   2.5895   2.6420   2.7924   2.8329   3.8869

          k =-0.5000-0.5000 0.0000 (423708 PWs)   bands (ev):

   -11.6251  -2.8571   0.9299   2.6276   2.6992   2.7081   2.7281   3.8869

     the Fermi energy is     2.2779 ev

!    total energy              =     -22.43481610 Ry
     estimated scf accuracy    <          8.2E-09 Ry
     smearing contrib. (-TS)   =       0.00044918 Ry
     internal energy E=F+TS    =     -22.43526528 Ry

     The total energy is F=E-TS. E is the sum of the following terms:
     one-electron contribution =     -48.83213135 Ry
     hartree contribution      =      27.52297421 Ry
     xc contribution           =      -6.71689249 Ry
     ewald contribution        =       5.59088270 Ry
     Dispersion Correction     =      -0.00009835 Ry

     total magnetization       =     1.02 Bohr mag/cell
     absolute magnetization    =     1.09 Bohr mag/cell

     convergence has been achieved in  15 iterations

     negative rho (up, down):  1.593E-04 9.219E-03

     Forces acting on atoms (cartesian axes, Ry/au):

     atom    1 type  1   force =    -0.00000043   -0.00000038    0.00308450
     atom    2 type  2   force =     0.00000031   -0.00363482   -0.00155649
     atom    3 type  2   force =     0.00000012    0.00363520   -0.00155694

     Total force =     0.005592     Total SCF correction =     0.000020

     BFGS Geometry Optimization
     Energy error            =      0.0E+00
     Gradient error          =      3.6E-03

     number of scf cycles    =   1
     number of bfgs steps    =   0

     energy   new            =     -22.4348161005 Ry

     new trust radius        =       0.0039545837 bohr
     new conv_thr            =       0.0000000100 Ry


ATOMIC_POSITIONS (angstrom)
N            10.0000000000       10.0000000000        0.0000000000    0   0   0
H            10.0000001665       10.8069753251       -0.6491045110
H            10.0000000629        9.1930249289       -0.6491047498



     Writing output data file ./NH2_ESM_p5.save/
     NEW-OLD atomic charge density approx. for the potential

     negative rho (up, down):  1.558E-03 5.319E-03
     Generating pointlists ...

     total cpu time spent up to now is      379.2 secs

     Self-consistent Calculation

     iteration #  1     ecut=    60.00 Ry     beta= 0.70
     CG style diagonalization
     ethr =  1.00E-06,  avg # of iterations =  2.6

     Threshold (ethr) on eigenvalues was too large:
     Diagonalizing with lowered threshold

     CG style diagonalization
     ethr =  1.99E-08,  avg # of iterations =  3.0

     negative rho (up, down):  1.970E-04 9.485E-03

     total cpu time spent up to now is      405.1 secs

     total energy              =     -22.43484259 Ry
     estimated scf accuracy    <       0.00000164 Ry

     total magnetization       =     1.02 Bohr mag/cell
     absolute magnetization    =     1.10 Bohr mag/cell

     iteration #  2     ecut=    60.00 Ry     beta= 0.70
     CG style diagonalization
     ethr =  2.35E-08,  avg # of iterations =  4.0

     negative rho (up, down):  1.668E-04 8.738E-03

     total cpu time spent up to now is      424.8 secs

     total energy              =     -22.43484320 Ry
     estimated scf accuracy    <       0.00000030 Ry

     total magnetization       =     1.02 Bohr mag/cell
     absolute magnetization    =     1.09 Bohr mag/cell

     iteration #  3     ecut=    60.00 Ry     beta= 0.70
     CG style diagonalization
     c_bands:  1 eigenvalues not converged
     c_bands:  1 eigenvalues not converged
     ethr =  4.32E-09,  avg # of iterations =  3.9

     negative rho (up, down):  1.599E-04 9.439E-03

     total cpu time spent up to now is      444.6 secs

     total energy              =     -22.43484192 Ry
     estimated scf accuracy    <       0.00000002 Ry

     total magnetization       =     1.02 Bohr mag/cell
     absolute magnetization    =     1.09 Bohr mag/cell

     iteration #  4     ecut=    60.00 Ry     beta= 0.70
     CG style diagonalization
     c_bands:  1 eigenvalues not converged
     c_bands:  1 eigenvalues not converged
     ethr =  3.42E-10,  avg # of iterations =  4.0

     negative rho (up, down):  1.602E-04 9.471E-03

     Magnetic moment per site:
     atom:    1    charge:    1.3483    magn:    0.2678    constr:    0.0000
     atom:    2    charge:    0.4503    magn:   -0.0053    constr:    0.0000
     atom:    3    charge:    0.4503    magn:   -0.0053    constr:    0.0000

     total cpu time spent up to now is      462.8 secs

     End of self-consistent calculation

 ------ SPIN UP ------------


          k = 0.0000 0.0000 0.0000 (423701 PWs)   bands (ev):

   -12.9036  -3.2212   0.3443   0.7071   2.3672   2.6993   2.8357   2.8824

          k = 0.0000 0.2500 0.0000 (423725 PWs)   bands (ev):

   -12.9036  -3.2212   0.3443   0.7071   2.3800   2.6348   2.8245   2.8506

          k = 0.0000-0.5000 0.0000 (423542 PWs)   bands (ev):

   -12.9036  -3.2212   0.3443   0.7071   2.3976   2.5818   2.8565   2.8935

          k = 0.2500 0.0000 0.0000 (423725 PWs)   bands (ev):

   -12.9036  -3.2212   0.3443   0.7071   2.3797   2.6380   2.8098   2.8563

          k = 0.2500 0.2500 0.0000 (423766 PWs)   bands (ev):

   -12.9036  -3.2212   0.3443   0.7071   2.3915   2.6355   2.7165   2.8816

          k = 0.2500-0.5000 0.0000 (423782 PWs)   bands (ev):

   -12.9036  -3.2212   0.3443   0.7071   2.4067   2.6050   2.7286   2.7951

          k = 0.2500-0.2500 0.0000 (423766 PWs)   bands (ev):

   -12.9036  -3.2212   0.3443   0.7071   2.3915   2.6371   2.7148   2.8825

          k =-0.5000 0.0000 0.0000 (423542 PWs)   bands (ev):

   -12.9036  -3.2212   0.3443   0.7071   2.3965   2.5865   2.8333   2.8956

          k =-0.5000 0.2500 0.0000 (423782 PWs)   bands (ev):

   -12.9036  -3.2212   0.3443   0.7071   2.4065   2.6096   2.7209   2.7984

          k =-0.5000-0.5000 0.0000 (423708 PWs)   bands (ev):

   -12.9036  -3.2212   0.3443   0.7071   2.4186   2.6643   2.6688   2.6934

 ------ SPIN DOWN ----------


          k = 0.0000 0.0000 0.0000 (423701 PWs)   bands (ev):

   -11.6382  -2.8538   0.9213   2.5025   2.8206   2.9018   2.9107   3.8851

          k = 0.0000 0.2500 0.0000 (423725 PWs)   bands (ev):

   -11.6382  -2.8538   0.9213   2.5246   2.7115   2.8914   2.9260   3.8851

          k = 0.0000-0.5000 0.0000 (423542 PWs)   bands (ev):

   -11.6382  -2.8538   0.9213   2.5757   2.6165   2.9405   2.9954   3.8851

          k = 0.2500 0.0000 0.0000 (423725 PWs)   bands (ev):

   -11.6382  -2.8538   0.9213   2.5238   2.7135   2.8842   2.9290   3.8851

          k = 0.2500 0.2500 0.0000 (423766 PWs)   bands (ev):

   -11.6382  -2.8538   0.9213   2.5460   2.7156   2.7661   2.9344   3.8851

          k = 0.2500-0.5000 0.0000 (423782 PWs)   bands (ev):

   -11.6382  -2.8538   0.9213   2.5959   2.6395   2.8036   2.8302   3.8851

          k = 0.2500-0.2500 0.0000 (423766 PWs)   bands (ev):

   -11.6382  -2.8538   0.9213   2.5462   2.7168   2.7651   2.9330   3.8851

          k =-0.5000 0.0000 0.0000 (423542 PWs)   bands (ev):

   -11.6382  -2.8538   0.9213   2.5725   2.6219   2.9312   2.9972   3.8851

          k =-0.5000 0.2500 0.0000 (423782 PWs)   bands (ev):

   -11.6382  -2.8538   0.9213   2.5922   2.6447   2.7960   2.8360   3.8851

          k =-0.5000-0.5000 0.0000 (423708 PWs)   bands (ev):

   -11.6382  -2.8538   0.9213   2.6311   2.7008   2.7111   2.7321   3.8852

     the Fermi energy is     2.2826 ev

!    total energy              =     -22.43484182 Ry
     estimated scf accuracy    <          5.8E-09 Ry
     smearing contrib. (-TS)   =       0.00045353 Ry
     internal energy E=F+TS    =     -22.43529534 Ry

     The total energy is F=E-TS. E is the sum of the following terms:
     one-electron contribution =     -48.85070666 Ry
     hartree contribution      =      27.53207172 Ry
     xc contribution           =      -6.71858527 Ry
     ewald contribution        =       5.60202104 Ry
     Dispersion Correction     =      -0.00009617 Ry

     total magnetization       =     1.02 Bohr mag/cell
     absolute magnetization    =     1.09 Bohr mag/cell

     convergence has been achieved in   4 iterations

     negative rho (up, down):  1.602E-04 9.471E-03

     Forces acting on atoms (cartesian axes, Ry/au):

     atom    1 type  1   force =    -0.00000044   -0.00000028    0.00411173
     atom    2 type  2   force =     0.00000026   -0.00193072   -0.00204923
     atom    3 type  2   force =     0.00000018    0.00193100   -0.00204985

     Total force =     0.003982     Total SCF correction =     0.000006
     Energy error            =      2.6E-05
     Gradient error          =      2.0E-03

     number of scf cycles    =   2
     number of bfgs steps    =   1

     energy   old            =     -22.4348161005 Ry
     energy   new            =     -22.4348418171 Ry

     CASE: energy  _new < energy  _old

     new trust radius        =       0.0043500421 bohr
     new conv_thr            =       0.0000000005 Ry


ATOMIC_POSITIONS (angstrom)
N            10.0000000000       10.0000000000        0.0000000000    0   0   0
H            10.0000003762       10.8052376848       -0.6506136085
H            10.0000001924        9.1947628010       -0.6506143003



     Writing output data file ./NH2_ESM_p5.save/
     NEW-OLD atomic charge density approx. for the potential

     negative rho (up, down):  1.609E-03 5.456E-03
     Generating pointlists ...

     total cpu time spent up to now is      484.5 secs

     Self-consistent Calculation

     iteration #  1     ecut=    60.00 Ry     beta= 0.70
     CG style diagonalization
     ethr =  1.00E-06,  avg # of iterations =  3.0

     Threshold (ethr) on eigenvalues was too large:
     Diagonalizing with lowered threshold

     CG style diagonalization
     c_bands:  1 eigenvalues not converged
     ethr =  1.03E-08,  avg # of iterations =  3.8

     negative rho (up, down):  2.226E-04 8.879E-03

     total cpu time spent up to now is      512.9 secs

     total energy              =     -22.43486357 Ry
     estimated scf accuracy    <       0.00000077 Ry

     total magnetization       =     1.02 Bohr mag/cell
     absolute magnetization    =     1.10 Bohr mag/cell

     iteration #  2     ecut=    60.00 Ry     beta= 0.70
     CG style diagonalization
     c_bands:  1 eigenvalues not converged
     ethr =  1.09E-08,  avg # of iterations =  3.9

     negative rho (up, down):  1.644E-04 8.968E-03

     total cpu time spent up to now is      532.6 secs

     total energy              =     -22.43486451 Ry
     estimated scf accuracy    <       0.00000008 Ry

     total magnetization       =     1.02 Bohr mag/cell
     absolute magnetization    =     1.09 Bohr mag/cell

     iteration #  3     ecut=    60.00 Ry     beta= 0.70
     CG style diagonalization
     c_bands:  1 eigenvalues not converged
     c_bands:  1 eigenvalues not converged
     ethr =  1.18E-09,  avg # of iterations =  4.2

     negative rho (up, down):  1.622E-04 9.499E-03

     total cpu time spent up to now is      552.9 secs

     total energy              =     -22.43486348 Ry
     estimated scf accuracy    <       0.00000002 Ry

     total magnetization       =     1.02 Bohr mag/cell
     absolute magnetization    =     1.09 Bohr mag/cell

     iteration #  4     ecut=    60.00 Ry     beta= 0.70
     CG style diagonalization
     c_bands:  1 eigenvalues not converged
     c_bands:  1 eigenvalues not converged
     ethr =  3.52E-10,  avg # of iterations =  4.2

     negative rho (up, down):  1.626E-04 9.454E-03

     total cpu time spent up to now is      573.3 secs

     total energy              =     -22.43486329 Ry
     estimated scf accuracy    <          9.4E-09 Ry

     total magnetization       =     1.02 Bohr mag/cell
     absolute magnetization    =     1.09 Bohr mag/cell

     iteration #  5     ecut=    60.00 Ry     beta= 0.70
     CG style diagonalization
     c_bands:  1 eigenvalues not converged
     c_bands:  1 eigenvalues not converged
     ethr =  1.34E-10,  avg # of iterations =  4.1

     negative rho (up, down):  1.630E-04 9.441E-03

     total cpu time spent up to now is      593.5 secs

     total energy              =     -22.43486327 Ry
     estimated scf accuracy    <          8.9E-09 Ry

     total magnetization       =     1.02 Bohr mag/cell
     absolute magnetization    =     1.09 Bohr mag/cell

     iteration #  6     ecut=    60.00 Ry     beta= 0.70
     CG style diagonalization
     c_bands:  1 eigenvalues not converged
     c_bands:  1 eigenvalues not converged
     ethr =  1.27E-10,  avg # of iterations =  4.0

     negative rho (up, down):  1.650E-04 9.169E-03

     total cpu time spent up to now is      613.6 secs

     total energy              =     -22.43485259 Ry
     estimated scf accuracy    <       0.00000001 Ry

     total magnetization       =     1.02 Bohr mag/cell
     absolute magnetization    =     1.09 Bohr mag/cell

     iteration #  7     ecut=    60.00 Ry     beta= 0.70
     CG style diagonalization
     c_bands:  1 eigenvalues not converged
     c_bands:  1 eigenvalues not converged
     ethr =  1.27E-10,  avg # of iterations =  4.0

     negative rho (up, down):  1.626E-04 9.406E-03

     total cpu time spent up to now is      633.8 secs

     total energy              =     -22.43486190 Ry
     estimated scf accuracy    <          5.6E-09 Ry

     total magnetization       =     1.02 Bohr mag/cell
     absolute magnetization    =     1.09 Bohr mag/cell

     iteration #  8     ecut=    60.00 Ry     beta= 0.70
     CG style diagonalization
     c_bands:  1 eigenvalues not converged
     c_bands:  1 eigenvalues not converged
     ethr =  7.97E-11,  avg # of iterations =  3.9

     negative rho (up, down):  1.631E-04 9.446E-03

     total cpu time spent up to now is      653.9 secs

     total energy              =     -22.43486191 Ry
     estimated scf accuracy    <          1.2E-09 Ry

     total magnetization       =     1.02 Bohr mag/cell
     absolute magnetization    =     1.09 Bohr mag/cell

     iteration #  9     ecut=    60.00 Ry     beta= 0.70
     CG style diagonalization
     c_bands:  1 eigenvalues not converged
     c_bands:  1 eigenvalues not converged
     ethr =  1.71E-11,  avg # of iterations =  3.5

     negative rho (up, down):  1.630E-04 9.441E-03

     Magnetic moment per site:
     atom:    1    charge:    1.3484    magn:    0.2678    constr:    0.0000
     atom:    2    charge:    0.4507    magn:   -0.0053    constr:    0.0000
     atom:    3    charge:    0.4507    magn:   -0.0053    constr:    0.0000

     total cpu time spent up to now is      671.1 secs

     End of self-consistent calculation

 ------ SPIN UP ------------


          k = 0.0000 0.0000 0.0000 (423701 PWs)   bands (ev):

   -12.9111  -3.2116   0.3338   0.7064   2.3657   2.6949   2.8364   2.8846

          k = 0.0000 0.2500 0.0000 (423725 PWs)   bands (ev):

   -12.9111  -3.2116   0.3338   0.7064   2.3785   2.6311   2.8234   2.8450

          k = 0.0000-0.5000 0.0000 (423542 PWs)   bands (ev):

   -12.9111  -3.2116   0.3338   0.7064   2.3952   2.5794   2.8546   2.8864

          k = 0.2500 0.0000 0.0000 (423725 PWs)   bands (ev):

   -12.9111  -3.2116   0.3338   0.7064   2.3782   2.6346   2.8067   2.8569

          k = 0.2500 0.2500 0.0000 (423766 PWs)   bands (ev):

   -12.9111  -3.2116   0.3338   0.7064   2.3900   2.6316   2.7166   2.8786

          k = 0.2500-0.5000 0.0000 (423782 PWs)   bands (ev):

   -12.9111  -3.2116   0.3338   0.7064   2.4049   2.6023   2.7276   2.7931

          k = 0.2500-0.2500 0.0000 (423766 PWs)   bands (ev):

   -12.9111  -3.2116   0.3338   0.7064   2.3900   2.6332   2.7143   2.8797

          k =-0.5000 0.0000 0.0000 (423542 PWs)   bands (ev):

   -12.9111  -3.2116   0.3338   0.7064   2.3944   2.5839   2.8312   2.8966

          k =-0.5000 0.2500 0.0000 (423782 PWs)   bands (ev):

   -12.9111  -3.2116   0.3338   0.7064   2.4047   2.6067   2.7200   2.7961

          k =-0.5000-0.5000 0.0000 (423708 PWs)   bands (ev):

   -12.9111  -3.2116   0.3338   0.7064   2.4164   2.6613   2.6656   2.6942

 ------ SPIN DOWN ----------


          k = 0.0000 0.0000 0.0000 (423701 PWs)   bands (ev):

   -11.6464  -2.8440   0.9113   2.5006   2.8141   2.9042   2.9114   3.8841

          k = 0.0000 0.2500 0.0000 (423725 PWs)   bands (ev):

   -11.6464  -2.8440   0.9113   2.5229   2.7097   2.8920   2.9233   3.8841

          k = 0.0000-0.5000 0.0000 (423542 PWs)   bands (ev):

   -11.6464  -2.8440   0.9113   2.5736   2.6161   2.9378   2.9957   3.8841

          k = 0.2500 0.0000 0.0000 (423725 PWs)   bands (ev):

   -11.6464  -2.8440   0.9113   2.5226   2.7116   2.8823   2.9297   3.8841

          k = 0.2500 0.2500 0.0000 (423766 PWs)   bands (ev):

   -11.6464  -2.8440   0.9113   2.5448   2.7129   2.7666   2.9342   3.8841

          k = 0.2500-0.5000 0.0000 (423782 PWs)   bands (ev):

   -11.6464  -2.8440   0.9113   2.5939   2.6388   2.8013   2.8322   3.8841

          k = 0.2500-0.2500 0.0000 (423766 PWs)   bands (ev):

   -11.6464  -2.8440   0.9113   2.5448   2.7129   2.7672   2.9323   3.8842

          k =-0.5000 0.0000 0.0000 (423542 PWs)   bands (ev):

   -11.6464  -2.8440   0.9113   2.5708   2.6203   2.9256   2.9976   3.8841

          k =-0.5000 0.2500 0.0000 (423782 PWs)   bands (ev):

   -11.6464  -2.8440   0.9113   2.5915   2.6427   2.7947   2.8364   3.8841

          k =-0.5000-0.5000 0.0000 (423708 PWs)   bands (ev):

   -11.6464  -2.8440   0.9113   2.6299   2.6940   2.7110   2.7377   3.8842

     the Fermi energy is     2.2810 ev

!    total energy              =     -22.43486199 Ry
     estimated scf accuracy    <          2.9E-10 Ry
     smearing contrib. (-TS)   =       0.00045385 Ry
     internal energy E=F+TS    =     -22.43531584 Ry

     The total energy is F=E-TS. E is the sum of the following terms:
     one-electron contribution =     -48.85931923 Ry
     hartree contribution      =      27.53618026 Ry
     xc contribution           =      -6.71930957 Ry
     ewald contribution        =       5.60722695 Ry
     Dispersion Correction     =      -0.00009426 Ry

     total magnetization       =     1.02 Bohr mag/cell
     absolute magnetization    =     1.09 Bohr mag/cell

     convergence has been achieved in   9 iterations

     negative rho (up, down):  1.630E-04 9.441E-03

     Forces acting on atoms (cartesian axes, Ry/au):

     atom    1 type  1   force =    -0.00000041   -0.00000072    0.00402264
     atom    2 type  2   force =     0.00000023   -0.00079586   -0.00201160
     atom    3 type  2   force =     0.00000018    0.00079658   -0.00201231

     Total force =     0.003060     Total SCF correction =     0.000002
     Energy error            =      2.0E-05
     Gradient error          =      2.0E-03

     number of scf cycles    =   3
     number of bfgs steps    =   2

     energy   old            =     -22.4348418171 Ry
     energy   new            =     -22.4348619904 Ry

     CASE: energy  _new < energy  _old

     new trust radius        =       0.0065250631 bohr
     new conv_thr            =       0.0000000005 Ry


ATOMIC_POSITIONS (angstrom)
N            10.0000000000       10.0000000000        0.0000000000    0   0   0
H            10.0000007295       10.8030637243       -0.6532946465
H            10.0000004255        9.1969376214       -0.6532962355



     Writing output data file ./NH2_ESM_p5.save/
     NEW-OLD atomic charge density approx. for the potential

     negative rho (up, down):  1.613E-03 5.527E-03
     Generating pointlists ...

     total cpu time spent up to now is      694.0 secs

     Self-consistent Calculation

     iteration #  1     ecut=    60.00 Ry     beta= 0.70
     CG style diagonalization
     ethr =  1.00E-06,  avg # of iterations =  2.5

     Threshold (ethr) on eigenvalues was too large:
     Diagonalizing with lowered threshold

     CG style diagonalization
     ethr =  2.04E-08,  avg # of iterations =  2.8

     negative rho (up, down):  2.245E-04 9.224E-03

     total cpu time spent up to now is      719.0 secs

     total energy              =     -22.43488289 Ry
     estimated scf accuracy    <       0.00000147 Ry

     total magnetization       =     1.02 Bohr mag/cell
     absolute magnetization    =     1.10 Bohr mag/cell

     iteration #  2     ecut=    60.00 Ry     beta= 0.70
     CG style diagonalization
     ethr =  2.10E-08,  avg # of iterations =  3.5

     negative rho (up, down):  1.689E-04 8.497E-03

     total cpu time spent up to now is      737.6 secs

     total energy              =     -22.43488389 Ry
     estimated scf accuracy    <       0.00000021 Ry

     total magnetization       =     1.02 Bohr mag/cell
     absolute magnetization    =     1.09 Bohr mag/cell

     iteration #  3     ecut=    60.00 Ry     beta= 0.70
     CG style diagonalization
     ethr =  3.05E-09,  avg # of iterations =  3.7

     negative rho (up, down):  1.643E-04 9.387E-03

     total cpu time spent up to now is      756.8 secs

     total energy              =     -22.43488273 Ry
     estimated scf accuracy    <       0.00000004 Ry

     total magnetization       =     1.02 Bohr mag/cell
     absolute magnetization    =     1.10 Bohr mag/cell

     iteration #  4     ecut=    60.00 Ry     beta= 0.70
     CG style diagonalization
     ethr =  6.33E-10,  avg # of iterations =  3.6

     negative rho (up, down):  1.643E-04 9.407E-03

     total cpu time spent up to now is      775.9 secs

     total energy              =     -22.43488256 Ry
     estimated scf accuracy    <          1.0E-09 Ry

     total magnetization       =     1.02 Bohr mag/cell
     absolute magnetization    =     1.09 Bohr mag/cell

     iteration #  5     ecut=    60.00 Ry     beta= 0.70
     CG style diagonalization
     c_bands:  1 eigenvalues not converged
     c_bands:  1 eigenvalues not converged
     ethr =  1.48E-11,  avg # of iterations =  3.9

     negative rho (up, down):  1.644E-04 9.422E-03

     Magnetic moment per site:
     atom:    1    charge:    1.3483    magn:    0.2678    constr:    0.0000
     atom:    2    charge:    0.4508    magn:   -0.0053    constr:    0.0000
     atom:    3    charge:    0.4508    magn:   -0.0053    constr:    0.0000

     total cpu time spent up to now is      793.9 secs

     End of self-consistent calculation

 ------ SPIN UP ------------


          k = 0.0000 0.0000 0.0000 (423701 PWs)   bands (ev):

   -12.9169  -3.1926   0.3181   0.7060   2.3663   2.6953   2.8314   2.8859

          k = 0.0000 0.2500 0.0000 (423725 PWs)   bands (ev):

   -12.9169  -3.1926   0.3181   0.7060   2.3793   2.6306   2.8221   2.8471

          k = 0.0000-0.5000 0.0000 (423542 PWs)   bands (ev):

   -12.9169  -3.1926   0.3181   0.7060   2.3962   2.5785   2.8539   2.8884

          k = 0.2500 0.0000 0.0000 (423725 PWs)   bands (ev):

   -12.9169  -3.1926   0.3181   0.7060   2.3789   2.6347   2.8095   2.8526

          k = 0.2500 0.2500 0.0000 (423766 PWs)   bands (ev):

   -12.9169  -3.1926   0.3181   0.7060   2.3907   2.6328   2.7143   2.8793

          k = 0.2500-0.5000 0.0000 (423782 PWs)   bands (ev):

   -12.9169  -3.1926   0.3181   0.7060   2.4059   2.6014   2.7284   2.7925

          k = 0.2500-0.2500 0.0000 (423766 PWs)   bands (ev):

   -12.9169  -3.1926   0.3181   0.7060   2.3908   2.6313   2.7170   2.8787

          k =-0.5000 0.0000 0.0000 (423542 PWs)   bands (ev):

   -12.9169  -3.1926   0.3181   0.7060   2.3951   2.5840   2.8346   2.8904

          k =-0.5000 0.2500 0.0000 (423782 PWs)   bands (ev):

   -12.9169  -3.1926   0.3181   0.7060   2.4053   2.6068   2.7193   2.7966

          k =-0.5000-0.5000 0.0000 (423708 PWs)   bands (ev):

   -12.9169  -3.1926   0.3181   0.7060   2.4173   2.6617   2.6635   2.6954

 ------ SPIN DOWN ----------


          k = 0.0000 0.0000 0.0000 (423701 PWs)   bands (ev):

   -11.6529  -2.8247   0.8962   2.5014   2.8135   2.9052   2.9129   3.8833

          k = 0.0000 0.2500 0.0000 (423725 PWs)   bands (ev):

   -11.6529  -2.8247   0.8962   2.5237   2.7104   2.8918   2.9245   3.8833

          k = 0.0000-0.5000 0.0000 (423542 PWs)   bands (ev):

   -11.6529  -2.8247   0.8962   2.5742   2.6172   2.9375   2.9970   3.8834

          k = 0.2500 0.0000 0.0000 (423725 PWs)   bands (ev):

   -11.6529  -2.8247   0.8962   2.5235   2.7117   2.8846   2.9297   3.8834

          k = 0.2500 0.2500 0.0000 (423766 PWs)   bands (ev):

   -11.6529  -2.8247   0.8962   2.5456   2.7134   2.7675   2.9351   3.8834

          k = 0.2500-0.5000 0.0000 (423782 PWs)   bands (ev):

   -11.6529  -2.8247   0.8962   2.5945   2.6397   2.8012   2.8338   3.8834

          k = 0.2500-0.2500 0.0000 (423766 PWs)   bands (ev):

   -11.6529  -2.8247   0.8962   2.5457   2.7125   2.7691   2.9331   3.8835

          k =-0.5000 0.0000 0.0000 (423542 PWs)   bands (ev):

   -11.6529  -2.8247   0.8962   2.5723   2.6199   2.9294   2.9970   3.8834

          k =-0.5000 0.2500 0.0000 (423782 PWs)   bands (ev):

   -11.6529  -2.8247   0.8962   2.5930   2.6422   2.7967   2.8366   3.8834

          k =-0.5000-0.5000 0.0000 (423708 PWs)   bands (ev):

   -11.6529  -2.8247   0.8962   2.6311   2.6923   2.7133   2.7392   3.8835

     the Fermi energy is     2.2817 ev

!    total energy              =     -22.43488249 Ry
     estimated scf accuracy    <          4.2E-10 Ry
     smearing contrib. (-TS)   =       0.00045457 Ry
     internal energy E=F+TS    =     -22.43533706 Ry

     The total energy is F=E-TS. E is the sum of the following terms:
     one-electron contribution =     -48.86175600 Ry
     hartree contribution      =      27.53730738 Ry
     xc contribution           =      -6.71943392 Ry
     ewald contribution        =       5.60863741 Ry
     Dispersion Correction     =      -0.00009192 Ry

     total magnetization       =     1.02 Bohr mag/cell
     absolute magnetization    =     1.09 Bohr mag/cell

     convergence has been achieved in   5 iterations

     negative rho (up, down):  1.644E-04 9.422E-03

     Forces acting on atoms (cartesian axes, Ry/au):

     atom    1 type  1   force =    -0.00000041   -0.00000060    0.00286471
     atom    2 type  2   force =     0.00000024    0.00018361   -0.00142966
     atom    3 type  2   force =     0.00000018   -0.00018300   -0.00143045

     Total force =     0.002039     Total SCF correction =     0.000003
     Energy error            =      2.0E-05
     Gradient error          =      1.4E-03

     number of scf cycles    =   4
     number of bfgs steps    =   3

     energy   old            =     -22.4348619904 Ry
     energy   new            =     -22.4348824889 Ry

     CASE: energy  _new < energy  _old

     new trust radius        =       0.0065091108 bohr
     new conv_thr            =       0.0000000004 Ry


ATOMIC_POSITIONS (angstrom)
N            10.0000000000       10.0000000000        0.0000000000    0   0   0
H            10.0000012020       10.8013203503       -0.6562634318
H            10.0000007325        9.1986820551       -0.6562663106



     Writing output data file ./NH2_ESM_p5.save/
     NEW-OLD atomic charge density approx. for the potential

     negative rho (up, down):  1.612E-03 5.549E-03
     Generating pointlists ...

     total cpu time spent up to now is      815.8 secs

     Self-consistent Calculation

     iteration #  1     ecut=    60.00 Ry     beta= 0.70
     CG style diagonalization
     ethr =  1.00E-06,  avg # of iterations =  2.5

     Threshold (ethr) on eigenvalues was too large:
     Diagonalizing with lowered threshold

     CG style diagonalization
     ethr =  2.25E-08,  avg # of iterations =  3.0

     negative rho (up, down):  2.319E-04 9.065E-03

     total cpu time spent up to now is      841.6 secs

     total energy              =     -22.43489148 Ry
     estimated scf accuracy    <       0.00000204 Ry

     total magnetization       =     1.02 Bohr mag/cell
     absolute magnetization    =     1.10 Bohr mag/cell

     iteration #  2     ecut=    60.00 Ry     beta= 0.70
     CG style diagonalization
     ethr =  2.91E-08,  avg # of iterations =  3.7

     negative rho (up, down):  1.827E-04 8.720E-03

     total cpu time spent up to now is      860.7 secs

     total energy              =     -22.43489225 Ry
     estimated scf accuracy    <       0.00000045 Ry

     total magnetization       =     1.02 Bohr mag/cell
     absolute magnetization    =     1.09 Bohr mag/cell

     iteration #  3     ecut=    60.00 Ry     beta= 0.70
     CG style diagonalization
     ethr =  6.42E-09,  avg # of iterations =  3.7

     negative rho (up, down):  1.666E-04 9.357E-03

     total cpu time spent up to now is      880.1 secs

     total energy              =     -22.43489146 Ry
     estimated scf accuracy    <       0.00000004 Ry

     total magnetization       =     1.02 Bohr mag/cell
     absolute magnetization    =     1.09 Bohr mag/cell

     iteration #  4     ecut=    60.00 Ry     beta= 0.70
     CG style diagonalization
     c_bands:  1 eigenvalues not converged
     ethr =  5.94E-10,  avg # of iterations =  3.5

     negative rho (up, down):  1.668E-04 9.384E-03

     total cpu time spent up to now is      899.1 secs

     total energy              =     -22.43489144 Ry
     estimated scf accuracy    <          6.0E-09 Ry

     total magnetization       =     1.02 Bohr mag/cell
     absolute magnetization    =     1.09 Bohr mag/cell

     iteration #  5     ecut=    60.00 Ry     beta= 0.70
     CG style diagonalization
     c_bands:  1 eigenvalues not converged
     c_bands:  1 eigenvalues not converged
     ethr =  8.54E-11,  avg # of iterations =  3.7

     negative rho (up, down):  1.668E-04 9.369E-03

     total cpu time spent up to now is      918.6 secs

     total energy              =     -22.43489133 Ry
     estimated scf accuracy    <          4.6E-09 Ry

     total magnetization       =     1.02 Bohr mag/cell
     absolute magnetization    =     1.09 Bohr mag/cell

     iteration #  6     ecut=    60.00 Ry     beta= 0.70
     CG style diagonalization
     c_bands:  1 eigenvalues not converged
     c_bands:  1 eigenvalues not converged
     ethr =  6.54E-11,  avg # of iterations =  3.6

     negative rho (up, down):  1.687E-04 9.312E-03

     total cpu time spent up to now is      937.9 secs

     total energy              =     -22.43489034 Ry
     estimated scf accuracy    <          2.0E-09 Ry

     total magnetization       =     1.02 Bohr mag/cell
     absolute magnetization    =     1.09 Bohr mag/cell

     iteration #  7     ecut=    60.00 Ry     beta= 0.70
     CG style diagonalization
     c_bands:  1 eigenvalues not converged
     c_bands:  1 eigenvalues not converged
     ethr =  2.93E-11,  avg # of iterations =  3.4

     negative rho (up, down):  1.675E-04 9.343E-03

     total cpu time spent up to now is      957.1 secs

     total energy              =     -22.43489101 Ry
     estimated scf accuracy    <          8.4E-10 Ry

     total magnetization       =     1.02 Bohr mag/cell
     absolute magnetization    =     1.09 Bohr mag/cell

     iteration #  8     ecut=    60.00 Ry     beta= 0.70
     CG style diagonalization
     c_bands:  1 eigenvalues not converged
     c_bands:  1 eigenvalues not converged
     ethr =  1.20E-11,  avg # of iterations =  3.4

     negative rho (up, down):  1.643E-04 9.439E-03

     total cpu time spent up to now is      976.2 secs

     total energy              =     -22.43489082 Ry
     estimated scf accuracy    <          6.3E-10 Ry

     total magnetization       =     1.02 Bohr mag/cell
     absolute magnetization    =     1.09 Bohr mag/cell

     iteration #  9     ecut=    60.00 Ry     beta= 0.70
     CG style diagonalization
     c_bands:  1 eigenvalues not converged
     c_bands:  1 eigenvalues not converged
     ethr =  8.95E-12,  avg # of iterations =  3.5

     negative rho (up, down):  1.642E-04 9.437E-03

     total cpu time spent up to now is      995.7 secs

     total energy              =     -22.43489087 Ry
     estimated scf accuracy    <          4.6E-10 Ry

     total magnetization       =     1.02 Bohr mag/cell
     absolute magnetization    =     1.09 Bohr mag/cell

     iteration # 10     ecut=    60.00 Ry     beta= 0.70
     CG style diagonalization
     c_bands:  1 eigenvalues not converged
     c_bands:  1 eigenvalues not converged
     ethr =  6.52E-12,  avg # of iterations =  3.5

     negative rho (up, down):  1.640E-04 9.444E-03

     total cpu time spent up to now is     1015.3 secs

     total energy              =     -22.43489070 Ry
     estimated scf accuracy    <          4.1E-10 Ry

     total magnetization       =     1.02 Bohr mag/cell
     absolute magnetization    =     1.09 Bohr mag/cell

     iteration # 11     ecut=    60.00 Ry     beta= 0.70
     CG style diagonalization
     c_bands:  1 eigenvalues not converged
     c_bands:  1 eigenvalues not converged
     ethr =  5.88E-12,  avg # of iterations =  3.4

     negative rho (up, down):  1.638E-04 9.451E-03

     total cpu time spent up to now is     1034.9 secs

     total energy              =     -22.43489060 Ry
     estimated scf accuracy    <          5.2E-10 Ry

     total magnetization       =     1.02 Bohr mag/cell
     absolute magnetization    =     1.09 Bohr mag/cell

     iteration # 12     ecut=    60.00 Ry     beta= 0.70
     CG style diagonalization
     c_bands:  1 eigenvalues not converged
     c_bands:  1 eigenvalues not converged
     ethr =  5.88E-12,  avg # of iterations =  3.4

     negative rho (up, down):  1.648E-04 9.461E-03

     total cpu time spent up to now is     1054.4 secs

     total energy              =     -22.43488987 Ry
     estimated scf accuracy    <          4.0E-10 Ry

     total magnetization       =     1.02 Bohr mag/cell
     absolute magnetization    =     1.09 Bohr mag/cell

     iteration # 13     ecut=    60.00 Ry     beta= 0.70
     CG style diagonalization
     c_bands:  1 eigenvalues not converged
     c_bands:  1 eigenvalues not converged
     ethr =  5.69E-12,  avg # of iterations =  3.4

     negative rho (up, down):  1.660E-04 9.502E-03

     total cpu time spent up to now is     1074.0 secs

     total energy              =     -22.43489028 Ry
     estimated scf accuracy    <          3.2E-09 Ry

     total magnetization       =     1.02 Bohr mag/cell
     absolute magnetization    =     1.09 Bohr mag/cell

     iteration # 14     ecut=    60.00 Ry     beta= 0.70
     CG style diagonalization
     c_bands:  1 eigenvalues not converged
     c_bands:  1 eigenvalues not converged
     ethr =  5.69E-12,  avg # of iterations =  3.5

     negative rho (up, down):  1.640E-04 9.484E-03

     total cpu time spent up to now is     1093.7 secs

     total energy              =     -22.43488975 Ry
     estimated scf accuracy    <          7.6E-09 Ry

     total magnetization       =     1.02 Bohr mag/cell
     absolute magnetization    =     1.09 Bohr mag/cell

     iteration # 15     ecut=    60.00 Ry     beta= 0.70
     CG style diagonalization
     c_bands:  1 eigenvalues not converged
     c_bands:  1 eigenvalues not converged
     ethr =  5.69E-12,  avg # of iterations =  3.5

     negative rho (up, down):  1.636E-04 9.442E-03

     total cpu time spent up to now is     1113.5 secs

     total energy              =     -22.43488923 Ry
     estimated scf accuracy    <          1.8E-09 Ry

     total magnetization       =     1.02 Bohr mag/cell
     absolute magnetization    =     1.09 Bohr mag/cell

     iteration # 16     ecut=    60.00 Ry     beta= 0.70
     CG style diagonalization
     c_bands:  1 eigenvalues not converged
     c_bands:  1 eigenvalues not converged
     ethr =  5.69E-12,  avg # of iterations =  3.5

     negative rho (up, down):  1.662E-04 9.474E-03

     total cpu time spent up to now is     1133.2 secs

     total energy              =     -22.43488769 Ry
     estimated scf accuracy    <          4.0E-10 Ry

     total magnetization       =     1.02 Bohr mag/cell
     absolute magnetization    =     1.09 Bohr mag/cell

     iteration # 17     ecut=    60.00 Ry     beta= 0.70
     CG style diagonalization
     c_bands:  1 eigenvalues not converged
     c_bands:  1 eigenvalues not converged
     ethr =  5.69E-12,  avg # of iterations =  3.7

     negative rho (up, down):  1.659E-04 9.449E-03

     total cpu time spent up to now is     1153.4 secs

     total energy              =     -22.43489105 Ry
     estimated scf accuracy    <          6.4E-09 Ry

     total magnetization       =     1.02 Bohr mag/cell
     absolute magnetization    =     1.09 Bohr mag/cell

     iteration # 18     ecut=    60.00 Ry     beta= 0.70
     CG style diagonalization
     c_bands:  1 eigenvalues not converged
     c_bands:  1 eigenvalues not converged
     ethr =  5.69E-12,  avg # of iterations =  3.5

     negative rho (up, down):  1.656E-04 9.457E-03

     total cpu time spent up to now is     1173.1 secs

     total energy              =     -22.43489108 Ry
     estimated scf accuracy    <          4.6E-09 Ry

     total magnetization       =     1.02 Bohr mag/cell
     absolute magnetization    =     1.09 Bohr mag/cell

     iteration # 19     ecut=    60.00 Ry     beta= 0.70
     CG style diagonalization
     c_bands:  1 eigenvalues not converged
     c_bands:  1 eigenvalues not converged
     ethr =  5.69E-12,  avg # of iterations =  3.5

     negative rho (up, down):  1.662E-04 9.365E-03

     total cpu time spent up to now is     1192.7 secs

     total energy              =     -22.43488992 Ry
     estimated scf accuracy    <          4.2E-09 Ry

     total magnetization       =     1.02 Bohr mag/cell
     absolute magnetization    =     1.09 Bohr mag/cell

     iteration # 20     ecut=    60.00 Ry     beta= 0.70
     CG style diagonalization
     c_bands:  1 eigenvalues not converged
     c_bands:  1 eigenvalues not converged
     ethr =  5.69E-12,  avg # of iterations =  3.4

     negative rho (up, down):  1.641E-04 9.441E-03

     total cpu time spent up to now is     1212.2 secs

     total energy              =     -22.43489060 Ry
     estimated scf accuracy    <          9.7E-10 Ry

     total magnetization       =     1.02 Bohr mag/cell
     absolute magnetization    =     1.09 Bohr mag/cell

     iteration # 21     ecut=    60.00 Ry     beta= 0.70
     CG style diagonalization
     c_bands:  1 eigenvalues not converged
     c_bands:  1 eigenvalues not converged
     ethr =  5.69E-12,  avg # of iterations =  3.5

     negative rho (up, down):  1.646E-04 9.399E-03

     Magnetic moment per site:
     atom:    1    charge:    1.3481    magn:    0.2678    constr:    0.0000
     atom:    2    charge:    0.4505    magn:   -0.0053    constr:    0.0000
     atom:    3    charge:    0.4505    magn:   -0.0053    constr:    0.0000

     total cpu time spent up to now is     1229.4 secs

     End of self-consistent calculation

 ------ SPIN UP ------------


          k = 0.0000 0.0000 0.0000 (423701 PWs)   bands (ev):

   -12.9176  -3.1699   0.3031   0.7064   2.3664   2.6956   2.8313   2.8873

          k = 0.0000 0.2500 0.0000 (423725 PWs)   bands (ev):

   -12.9176  -3.1699   0.3031   0.7064   2.3792   2.6320   2.8204   2.8462

          k = 0.0000-0.5000 0.0000 (423542 PWs)   bands (ev):

   -12.9176  -3.1699   0.3031   0.7064   2.3964   2.5803   2.8493   2.8853

          k = 0.2500 0.0000 0.0000 (423725 PWs)   bands (ev):

   -12.9176  -3.1699   0.3031   0.7064   2.3791   2.6333   2.8130   2.8522

          k = 0.2500 0.2500 0.0000 (423766 PWs)   bands (ev):

   -12.9176  -3.1699   0.3031   0.7064   2.3918   2.6316   2.7158   2.8793

          k = 0.2500-0.5000 0.0000 (423782 PWs)   bands (ev):

   -12.9176  -3.1699   0.3031   0.7064   2.4061   2.6029   2.7252   2.7947

          k = 0.2500-0.2500 0.0000 (423766 PWs)   bands (ev):

   -12.9176  -3.1699   0.3031   0.7064   2.3916   2.6315   2.7161   2.8793

          k =-0.5000 0.0000 0.0000 (423542 PWs)   bands (ev):

   -12.9176  -3.1699   0.3031   0.7064   2.3959   2.5818   2.8404   2.8904

          k =-0.5000 0.2500 0.0000 (423782 PWs)   bands (ev):

   -12.9176  -3.1699   0.3031   0.7064   2.4060   2.6043   2.7227   2.7955

          k =-0.5000-0.5000 0.0000 (423708 PWs)   bands (ev):

   -12.9176  -3.1699   0.3031   0.7064   2.4179   2.6561   2.6677   2.6971

 ------ SPIN DOWN ----------


          k = 0.0000 0.0000 0.0000 (423701 PWs)   bands (ev):

   -11.6540  -2.8018   0.8816   2.5020   2.8123   2.9014   2.9058   2.9191

          k = 0.0000 0.2500 0.0000 (423725 PWs)   bands (ev):

   -11.6540  -2.8018   0.8816   2.5242   2.7120   2.8914   2.9247   3.1088

          k = 0.0000-0.5000 0.0000 (423542 PWs)   bands (ev):

   -11.6540  -2.8018   0.8816   2.5725   2.6207   2.9344   2.9924   3.0035

          k = 0.2500 0.0000 0.0000 (423725 PWs)   bands (ev):

   -11.6540  -2.8018   0.8816   2.5243   2.7115   2.8871   2.9303   3.0883

          k = 0.2500 0.2500 0.0000 (423766 PWs)   bands (ev):

   -11.6540  -2.8018   0.8816   2.5463   2.7133   2.7695   2.9354   3.8823

          k = 0.2500-0.5000 0.0000 (423782 PWs)   bands (ev):

   -11.6540  -2.8018   0.8816   2.5932   2.6431   2.7985   2.8376   3.8826

          k = 0.2500-0.2500 0.0000 (423766 PWs)   bands (ev):

   -11.6540  -2.8018   0.8816   2.5463   2.7128   2.7703   2.9343   3.8829

          k =-0.5000 0.0000 0.0000 (423542 PWs)   bands (ev):

   -11.6540  -2.8018   0.8816   2.5745   2.6183   2.9313   2.9987   3.8828

          k =-0.5000 0.2500 0.0000 (423782 PWs)   bands (ev):

   -11.6540  -2.8018   0.8816   2.5948   2.6405   2.8009   2.8358   3.8830

          k =-0.5000-0.5000 0.0000 (423708 PWs)   bands (ev):

   -11.6540  -2.8018   0.8816   2.6315   2.6885   2.7195   2.7402   3.8833

     the Fermi energy is     2.2822 ev

!    total energy              =     -22.43489121 Ry
     estimated scf accuracy    <          1.3E-10 Ry
     smearing contrib. (-TS)   =       0.00045517 Ry
     internal energy E=F+TS    =     -22.43534638 Ry

     The total energy is F=E-TS. E is the sum of the following terms:
     one-electron contribution =     -48.85499982 Ry
     hartree contribution      =      27.53398971 Ry
     xc contribution           =      -6.71871173 Ry
     ewald contribution        =       5.60446556 Ry
     Dispersion Correction     =      -0.00009010 Ry

     total magnetization       =     1.02 Bohr mag/cell
     absolute magnetization    =     1.09 Bohr mag/cell

     convergence has been achieved in  21 iterations

     negative rho (up, down):  1.646E-04 9.399E-03

     Forces acting on atoms (cartesian axes, Ry/au):

     atom    1 type  1   force =    -0.00000056   -0.00000086    0.00082766
     atom    2 type  2   force =     0.00000031    0.00051769   -0.00041298
     atom    3 type  2   force =     0.00000026   -0.00051683   -0.00041381

     Total force =     0.000936     Total SCF correction =     0.000001
     Energy error            =      8.7E-06
     Gradient error          =      5.2E-04

     number of scf cycles    =   5
     number of bfgs steps    =   4

     energy   old            =     -22.4348824889 Ry
     energy   new            =     -22.4348912102 Ry

     CASE: energy  _new < energy  _old

     new trust radius        =       0.0006761626 bohr
     new conv_thr            =       0.0000000001 Ry


ATOMIC_POSITIONS (angstrom)
N            10.0000000000       10.0000000000        0.0000000000    0   0   0
H            10.0000014039       10.8014043881       -0.6566108381
H            10.0000008900        9.1985985544       -0.6566142409



     Writing output data file ./NH2_ESM_p5.save/
     NEW-OLD atomic charge density approx. for the potential

     negative rho (up, down):  1.596E-03 5.571E-03
     Generating pointlists ...

     total cpu time spent up to now is     1253.2 secs

     Self-consistent Calculation

     iteration #  1     ecut=    60.00 Ry     beta= 0.70
     CG style diagonalization
     ethr =  1.00E-06,  avg # of iterations =  2.1

     Threshold (ethr) on eigenvalues was too large:
     Diagonalizing with lowered threshold

     CG style diagonalization
     c_bands:  1 eigenvalues not converged
     c_bands:  1 eigenvalues not converged
     ethr =  9.32E-10,  avg # of iterations =  3.3

     negative rho (up, down):  2.450E-04 8.950E-03

     total cpu time spent up to now is     1278.7 secs

     total energy              =     -22.43489274 Ry
     estimated scf accuracy    <       0.00000012 Ry

     total magnetization       =     1.02 Bohr mag/cell
     absolute magnetization    =     1.10 Bohr mag/cell

     iteration #  2     ecut=    60.00 Ry     beta= 0.70
     CG style diagonalization
     c_bands:  1 eigenvalues not converged
     c_bands:  1 eigenvalues not converged
     ethr =  1.78E-09,  avg # of iterations =  4.0

     negative rho (up, down):  1.911E-04 8.810E-03

     total cpu time spent up to now is     1298.5 secs

     total energy              =     -22.43489321 Ry
     estimated scf accuracy    <       0.00000004 Ry

     total magnetization       =     1.02 Bohr mag/cell
     absolute magnetization    =     1.09 Bohr mag/cell

     iteration #  3     ecut=    60.00 Ry     beta= 0.70
     CG style diagonalization
     c_bands:  1 eigenvalues not converged
     c_bands:  1 eigenvalues not converged
     ethr =  5.81E-10,  avg # of iterations =  3.8

     negative rho (up, down):  1.723E-04 9.201E-03

     total cpu time spent up to now is     1317.9 secs

     total energy              =     -22.43489262 Ry
     estimated scf accuracy    <          2.0E-09 Ry

     total magnetization       =     1.02 Bohr mag/cell
     absolute magnetization    =     1.09 Bohr mag/cell

     iteration #  4     ecut=    60.00 Ry     beta= 0.70
     CG style diagonalization
     c_bands:  1 eigenvalues not converged
     c_bands:  1 eigenvalues not converged
     ethr =  2.86E-11,  avg # of iterations =  4.1

     negative rho (up, down):  1.678E-04 9.296E-03

     total cpu time spent up to now is     1338.1 secs

     total energy              =     -22.43489236 Ry
     estimated scf accuracy    <          1.4E-09 Ry

     total magnetization       =     1.02 Bohr mag/cell
     absolute magnetization    =     1.09 Bohr mag/cell

     iteration #  5     ecut=    60.00 Ry     beta= 0.70
     CG style diagonalization
     c_bands:  1 eigenvalues not converged
     c_bands:  1 eigenvalues not converged
     ethr =  1.94E-11,  avg # of iterations =  3.7

     negative rho (up, down):  1.681E-04 9.256E-03

     total cpu time spent up to now is     1357.3 secs

     total energy              =     -22.43489249 Ry
     estimated scf accuracy    <          1.5E-09 Ry

     total magnetization       =     1.02 Bohr mag/cell
     absolute magnetization    =     1.09 Bohr mag/cell

     iteration #  6     ecut=    60.00 Ry     beta= 0.70
     CG style diagonalization
     c_bands:  1 eigenvalues not converged
     c_bands:  1 eigenvalues not converged
     ethr =  1.94E-11,  avg # of iterations =  3.5

     negative rho (up, down):  1.687E-04 9.301E-03

     total cpu time spent up to now is     1376.4 secs

     total energy              =     -22.43489224 Ry
     estimated scf accuracy    <          1.3E-09 Ry

     total magnetization       =     1.02 Bohr mag/cell
     absolute magnetization    =     1.09 Bohr mag/cell

     iteration #  7     ecut=    60.00 Ry     beta= 0.70
     CG style diagonalization
     c_bands:  1 eigenvalues not converged
     c_bands:  1 eigenvalues not converged
     ethr =  1.88E-11,  avg # of iterations =  3.4

     negative rho (up, down):  1.681E-04 9.325E-03

     total cpu time spent up to now is     1395.5 secs

     total energy              =     -22.43489203 Ry
     estimated scf accuracy    <          3.1E-10 Ry

     total magnetization       =     1.02 Bohr mag/cell
     absolute magnetization    =     1.09 Bohr mag/cell

     iteration #  8     ecut=    60.00 Ry     beta= 0.70
     CG style diagonalization
     c_bands:  1 eigenvalues not converged
     c_bands:  1 eigenvalues not converged
     ethr =  4.39E-12,  avg # of iterations =  3.4

     negative rho (up, down):  1.669E-04 9.362E-03

     Magnetic moment per site:
     atom:    1    charge:    1.3479    magn:    0.2678    constr:    0.0000
     atom:    2    charge:    0.4503    magn:   -0.0053    constr:    0.0000
     atom:    3    charge:    0.4503    magn:   -0.0053    constr:    0.0000

     total cpu time spent up to now is     1412.6 secs

     End of self-consistent calculation

 ------ SPIN UP ------------


          k = 0.0000 0.0000 0.0000 (423701 PWs)   bands (ev):

   -12.9153  -3.1666   0.3023   0.7067   2.3665   2.6950   2.8284   2.8883

          k = 0.0000 0.2500 0.0000 (423725 PWs)   bands (ev):

   -12.9153  -3.1666   0.3023   0.7067   2.3794   2.6311   2.8192   2.8469

          k = 0.0000-0.5000 0.0000 (423542 PWs)   bands (ev):

   -12.9153  -3.1666   0.3023   0.7067   2.3964   2.5792   2.8487   2.8863

          k = 0.2500 0.0000 0.0000 (423725 PWs)   bands (ev):

   -12.9153  -3.1666   0.3023   0.7067   2.3792   2.6326   2.8146   2.8488

          k = 0.2500 0.2500 0.0000 (423766 PWs)   bands (ev):

   -12.9153  -3.1666   0.3023   0.7067   2.3914   2.6305   2.7160   2.8787

          k = 0.2500-0.5000 0.0000 (423782 PWs)   bands (ev):

   -12.9153  -3.1666   0.3023   0.7067   2.4061   2.6018   2.7255   2.7936

          k = 0.2500-0.2500 0.0000 (423766 PWs)   bands (ev):

   -12.9153  -3.1666   0.3023   0.7067   2.3912   2.6308   2.7157   2.8787

          k =-0.5000 0.0000 0.0000 (423542 PWs)   bands (ev):

   -12.9153  -3.1666   0.3023   0.7067   2.3958   2.5812   2.8427   2.8860

          k =-0.5000 0.2500 0.0000 (423782 PWs)   bands (ev):

   -12.9153  -3.1666   0.3023   0.7067   2.4059   2.6038   2.7222   2.7950

          k =-0.5000-0.5000 0.0000 (423708 PWs)   bands (ev):

   -12.9153  -3.1666   0.3023   0.7067   2.4178   2.6551   2.6673   2.6966

 ------ SPIN DOWN ----------


          k = 0.0000 0.0000 0.0000 (423701 PWs)   bands (ev):

   -11.6517  -2.7986   0.8808   2.5021   2.8111   2.9013   2.9052   2.9210

          k = 0.0000 0.2500 0.0000 (423725 PWs)   bands (ev):

   -11.6517  -2.7986   0.8808   2.5243   2.7117   2.8911   2.9251   3.1085

          k = 0.0000-0.5000 0.0000 (423542 PWs)   bands (ev):

   -11.6517  -2.7986   0.8808   2.5728   2.6203   2.9342   2.9920   3.0029

          k = 0.2500 0.0000 0.0000 (423725 PWs)   bands (ev):

   -11.6517  -2.7986   0.8808   2.5244   2.7109   2.8885   2.9294   3.0878

          k = 0.2500 0.2500 0.0000 (423766 PWs)   bands (ev):

   -11.6517  -2.7986   0.8808   2.5464   2.7125   2.7702   2.9352   3.1074

          k = 0.2500-0.5000 0.0000 (423782 PWs)   bands (ev):

   -11.6517  -2.7986   0.8808   2.5935   2.6425   2.7988   2.8373   3.2105

          k = 0.2500-0.2500 0.0000 (423766 PWs)   bands (ev):

   -11.6517  -2.7986   0.8808   2.5464   2.7118   2.7713   2.9339   3.1083

          k =-0.5000 0.0000 0.0000 (423542 PWs)   bands (ev):

   -11.6517  -2.7986   0.8808   2.5750   2.6173   2.9318   2.9955   3.0003

          k =-0.5000 0.2500 0.0000 (423782 PWs)   bands (ev):

   -11.6517  -2.7986   0.8808   2.5953   2.6396   2.8019   2.8353   3.8824

          k =-0.5000-0.5000 0.0000 (423708 PWs)   bands (ev):

   -11.6517  -2.7986   0.8808   2.6318   2.6871   2.7207   2.7400   3.8834

     the Fermi energy is     2.2821 ev

!    total energy              =     -22.43489183 Ry
     estimated scf accuracy    <          8.4E-11 Ry
     smearing contrib. (-TS)   =       0.00045515 Ry
     internal energy E=F+TS    =     -22.43534698 Ry

     The total energy is F=E-TS. E is the sum of the following terms:
     one-electron contribution =     -48.85018931 Ry
     hartree contribution      =      27.53165626 Ry
     xc contribution           =      -6.71826266 Ry
     ewald contribution        =       5.60153891 Ry
     Dispersion Correction     =      -0.00009019 Ry

     total magnetization       =     1.02 Bohr mag/cell
     absolute magnetization    =     1.09 Bohr mag/cell

     convergence has been achieved in   8 iterations

     negative rho (up, down):  1.669E-04 9.362E-03

     Forces acting on atoms (cartesian axes, Ry/au):

     atom    1 type  1   force =    -0.00000036   -0.00000059    0.00027278
     atom    2 type  2   force =     0.00000021    0.00023386   -0.00013656
     atom    3 type  2   force =     0.00000015   -0.00023326   -0.00013745

     Total force =     0.000383     Total SCF correction =     0.000001
     Energy error            =      6.2E-07
     Gradient error          =      2.3E-04

     bfgs converged in   6 scf cycles and   5 bfgs steps
     (criteria: energy <  7.3E-07 Ry, force <  3.9E-04 Ry/Bohr)

     End of BFGS Geometry Optimization

     Final energy   =     -22.4348918313 Ry

     File ./NH2_ESM_p5.bfgs deleted, as requested
Begin final coordinates

ATOMIC_POSITIONS (angstrom)
N            10.0000000000       10.0000000000        0.0000000000    0   0   0
H            10.0000014039       10.8014043881       -0.6566108381
H            10.0000008900        9.1985985544       -0.6566142409
End final coordinates



     Writing output data file ./NH2_ESM_p5.save/

     init_run     :     20.80s CPU     22.05s WALL (       1 calls)
     electrons    :   1208.87s CPU   1292.98s WALL (       6 calls)
     update_pot   :     38.91s CPU     41.21s WALL (       5 calls)
     forces       :     52.02s CPU     55.47s WALL (       6 calls)

     Called by init_run:
     wfcinit      :      1.68s CPU      1.92s WALL (       1 calls)
     potinit      :      7.76s CPU      8.42s WALL (       1 calls)
     hinit0       :      1.46s CPU      1.55s WALL (       1 calls)

     Called by electrons:
     c_bands      :    496.02s CPU    503.32s WALL (      67 calls)
     sum_band     :    151.66s CPU    156.65s WALL (      67 calls)
     v_of_rho     :    394.45s CPU    428.31s WALL (      68 calls)
     newd         :     48.66s CPU     51.75s WALL (      68 calls)
     mix_rho      :     89.84s CPU    109.71s WALL (      67 calls)

     Called by c_bands:
     init_us_2    :      2.44s CPU      2.54s WALL (     423 calls)
     ccgdiagg     :    396.04s CPU    400.75s WALL (     201 calls)
     wfcrot       :     93.99s CPU     95.04s WALL (     171 calls)

     Called by *cgdiagg:
     h_psi        :    430.91s CPU    435.93s WALL (    6552 calls)
     s_psi        :     20.31s CPU     20.57s WALL (   12933 calls)

     Called by h_psi:
     h_psi:calbec :     15.85s CPU     16.08s WALL (    6552 calls)
     vloc_psi     :    394.43s CPU    398.98s WALL (    6552 calls)
     add_vuspsi   :     18.56s CPU     18.79s WALL (    6552 calls)
     hs_1psi      :    353.38s CPU    357.54s WALL (    6381 calls)
     s_1psi       :     23.27s CPU     23.54s WALL (    6381 calls)

     General routines
     calbec       :     29.71s CPU     30.13s WALL (   13206 calls)
     fft          :    410.88s CPU    421.75s WALL (    1793 calls)
     ffts         :     21.00s CPU     21.23s WALL (     270 calls)
     fftw         :    370.65s CPU    374.81s WALL (   17106 calls)
     interpolate  :     44.82s CPU     48.70s WALL (     136 calls)
     davcio       :      0.25s CPU     12.04s WALL (    1415 calls)

     Parallel routines
     fft_scatt_xy :    129.57s CPU    131.15s WALL (   19169 calls)
     fft_scatt_yz :    267.54s CPU    270.65s WALL (   19169 calls)

     PWSCF        :  22m13.71s CPU  23m45.95s WALL


   This run was terminated on:  13:22: 4   1Jul2022            

=------------------------------------------------------------------------------=
   JOB DONE.
=------------------------------------------------------------------------------=
