     Message from routine get_command_line:
     unexpected argument # 4     :-in

     Program PWSCF v.6.7MaX starts on  5Jul2022 at 21:58:55 

     This program is part of the open-source Quantum ESPRESSO suite
     for quantum simulation of materials; please cite
         "P. Giannozzi et al., J. Phys.:Condens. Matter 21 395502 (2009);
         "P. Giannozzi et al., J. Phys.:Condens. Matter 29 465901 (2017);
          URL http://www.quantum-espresso.org", 
     in publications or presentations arising from this work. More details at
     http://www.quantum-espresso.org/quote

     Parallel version (MPI), running on   120 processors

     MPI processes distributed on     1 nodes
     K-points division:     npool     =       8
     R & G space division:  proc/nbgrp/npool/nimage =      15
     Waiting for input...
     Reading input from standard input
Warning: card &CELL ignored
Warning: card / ignored

     Current dimensions of program PWSCF are:
     Max number of different atomic species (ntypx) = 10
     Max number of k-points (npk) =  40000
     Max angular momentum in pseudopotentials (lmaxx) =  3

     IMPORTANT: XC functional enforced from input :
     Exchange-correlation= PBE
                           (   1   4   3   4   0   0   0)
     Any further DFT definition will be discarded
     Please, verify this is what you really want


     -------------------------------------------------
     Parameters for Dispersion (Grimme-D2) Correction:
     -------------------------------------------------
       atom      VdW radius       C_6     

        H          1.892          4.857

     Subspace diagonalization in iterative solution of the eigenvalue problem:
     one sub-group per band group will be used
     scalapack distributed-memory algorithm (size of sub-group:  3*  3 procs)


     Parallelization info
     --------------------
     sticks:   dense  smooth     PW     G-vecs:    dense   smooth      PW
     Min        3636    1818    468               639190   225950   29545
     Max        3637    1819    470               639197   225953   29547
     Sum       54553   27281   7033              9587919  3389267  443191



     bravais-lattice index     =            0
     lattice parameter (alat)  =      37.7945  a.u.
     unit-cell volume          =   53986.6760 (a.u.)^3
     number of atoms/cell      =            2
     number of atomic types    =            1
     number of electrons       =         2.00
     number of Kohn-Sham states=            5
     kinetic-energy cutoff     =      60.0000  Ry
     charge density cutoff     =     480.0000  Ry
     scf convergence threshold =      1.0E-08
     mixing beta               =       0.7000
     number of iterations used =           10  plain     mixing
     energy convergence thresh.=      7.3E-07
     force convergence thresh. =      3.9E-04
     Exchange-correlation= PBE
                           (   1   4   3   4   0   0   0)
     nstep                     =           50


     celldm(1)=  37.794522  celldm(2)=   0.000000  celldm(3)=   0.000000
     celldm(4)=   0.000000  celldm(5)=   0.000000  celldm(6)=   0.000000

     crystal axes: (cart. coord. in units of alat)
               a(1) = (   1.000000   0.000000   0.000000 )  
               a(2) = (   0.000000   1.000000   0.000000 )  
               a(3) = (   0.000000   0.000000   1.000000 )  

     reciprocal axes: (cart. coord. in units 2 pi/alat)
               b(1) = (  1.000000  0.000000  0.000000 )  
               b(2) = (  0.000000  1.000000  0.000000 )  
               b(3) = (  0.000000  0.000000  1.000000 )  


     PseudoPot. # 1 for H  read from file:
     ../../SSSP/H.pbe-rrkjus_psl.1.0.0.UPF
     MD5 check sum: f52b6d4d1c606e5624b1dc7b2218f220
     Pseudo is Ultrasoft, Zval =  1.0
     Generated using "atomic" code by A. Dal Corso  v.5.1
     Using radial grid of  929 points,  2 beta functions with: 
                l(1) =   0
                l(2) =   0
     Q(r) pseudized with 0 coefficients 


     atomic species   valence    mass     pseudopotential
        H              1.00     1.00800     H ( 1.00)

     Starting magnetic structure 
     atomic species   magnetization
        H            0.100

     No symmetry found



   Cartesian axes

     site n.     atom                  positions (alat units)
         1           H   tau(   1) = (   0.5000000   0.5000000   0.5000000  )
         2           H   tau(   2) = (   0.5000000   0.5000000   0.5369000  )

     number of k points=    10  Methfessel-Paxton smearing, width (Ry)=  0.0100
                       cart. coord. in units 2pi/alat
        k(    1) = (   0.0000000   0.0000000   0.0000000), wk =   0.0625000
        k(    2) = (   0.0000000   0.2500000   0.0000000), wk =   0.1250000
        k(    3) = (   0.0000000  -0.5000000   0.0000000), wk =   0.0625000
        k(    4) = (   0.2500000   0.0000000   0.0000000), wk =   0.1250000
        k(    5) = (   0.2500000   0.2500000   0.0000000), wk =   0.1250000
        k(    6) = (   0.2500000  -0.5000000   0.0000000), wk =   0.1250000
        k(    7) = (   0.2500000  -0.2500000   0.0000000), wk =   0.1250000
        k(    8) = (  -0.5000000   0.0000000   0.0000000), wk =   0.0625000
        k(    9) = (  -0.5000000   0.2500000   0.0000000), wk =   0.1250000
        k(   10) = (  -0.5000000  -0.5000000   0.0000000), wk =   0.0625000

     Dense  grid:  9587919 G-vectors     FFT dimensions: ( 270, 270, 270)

     Smooth grid:  3389267 G-vectors     FFT dimensions: ( 192, 192, 192)

     Estimated max dynamical RAM per process >     317.71 MB

     Estimated total dynamical RAM >      37.23 GB
     Generating pointlists ...
     new r_m :   0.0152 (alat units)  0.5753 (a.u.) for type    1

     Initial potential from superposition of free atoms

     starting charge    1.99998, renormalised to    2.00000

     negative rho (up, down):  2.630E-05 2.152E-05
     Starting wfcs are    2 randomized atomic wfcs +    3 random wfcs

     total cpu time spent up to now is       21.0 secs

     Self-consistent Calculation

     iteration #  1     ecut=    60.00 Ry     beta= 0.70
     CG style diagonalization
     c_bands:  3 eigenvalues not converged
     c_bands:  2 eigenvalues not converged
     c_bands:  2 eigenvalues not converged
     ethr =  1.00E-04,  avg # of iterations = 15.3

     negative rho (up, down):  5.268E-05 5.111E-05

     total cpu time spent up to now is       48.6 secs

     total energy              =      -2.32418242 Ry
     estimated scf accuracy    <       0.12006898 Ry

     total magnetization       =    -0.00 Bohr mag/cell
     absolute magnetization    =     0.01 Bohr mag/cell

     iteration #  2     ecut=    60.00 Ry     beta= 0.70
     CG style diagonalization
     ethr =  6.00E-03,  avg # of iterations =  3.0

     negative rho (up, down):  5.965E-05 5.934E-05

     total cpu time spent up to now is       62.9 secs

     total energy              =      -2.33247645 Ry
     estimated scf accuracy    <       0.00144726 Ry

     total magnetization       =     0.00 Bohr mag/cell
     absolute magnetization    =     0.00 Bohr mag/cell

     iteration #  3     ecut=    60.00 Ry     beta= 0.70
     CG style diagonalization
     ethr =  7.24E-05,  avg # of iterations =  7.2

     negative rho (up, down):  6.293E-05 6.256E-05

     total cpu time spent up to now is       81.9 secs

     total energy              =      -2.33302508 Ry
     estimated scf accuracy    <       0.00005452 Ry

     total magnetization       =     0.00 Bohr mag/cell
     absolute magnetization    =     0.00 Bohr mag/cell

     iteration #  4     ecut=    60.00 Ry     beta= 0.70
     CG style diagonalization
     c_bands:  1 eigenvalues not converged
     c_bands:  1 eigenvalues not converged
     ethr =  2.73E-06,  avg # of iterations = 10.2

     negative rho (up, down):  6.330E-05 6.314E-05

     total cpu time spent up to now is      104.0 secs

     total energy              =      -2.33302981 Ry
     estimated scf accuracy    <       0.00000675 Ry

     total magnetization       =     0.00 Bohr mag/cell
     absolute magnetization    =     0.00 Bohr mag/cell

     iteration #  5     ecut=    60.00 Ry     beta= 0.70
     CG style diagonalization
     ethr =  3.37E-07,  avg # of iterations =  3.5

     negative rho (up, down):  6.332E-05 6.331E-05

     Magnetic moment per site:
     atom:    1    charge:    0.2083    magn:   -0.0000    constr:    0.0000
     atom:    2    charge:    0.2082    magn:   -0.0000    constr:    0.0000

     total cpu time spent up to now is      117.3 secs

     End of self-consistent calculation

 ------ SPIN UP ------------


          k = 0.0000 0.0000 0.0000 (423701 PWs)   bands (ev):

   -10.3936  -0.1174   0.1294   0.1962   0.2505

          k = 0.0000 0.2500 0.0000 (423725 PWs)   bands (ev):

   -10.3936  -0.0956   0.0911   0.1359   0.2478

          k = 0.0000-0.5000 0.0000 (423542 PWs)   bands (ev):

   -10.3936  -0.0491   0.0014   0.1435   0.2870

          k = 0.2500 0.0000 0.0000 (423725 PWs)   bands (ev):

   -10.3936  -0.0957   0.0911   0.1359   0.2474

          k = 0.2500 0.2500 0.0000 (423766 PWs)   bands (ev):

   -10.3936  -0.0743   0.1001   0.1304   0.1416

          k = 0.2500-0.5000 0.0000 (423782 PWs)   bands (ev):

   -10.3936  -0.0291   0.0246   0.1479   0.1642

          k = 0.2500-0.2500 0.0000 (423766 PWs)   bands (ev):

   -10.3936  -0.0742   0.1002   0.1305   0.1416

          k =-0.5000 0.0000 0.0000 (423542 PWs)   bands (ev):

   -10.3936  -0.0491   0.0014   0.1435   0.2853

          k =-0.5000 0.2500 0.0000 (423782 PWs)   bands (ev):

   -10.3936  -0.0292   0.0248   0.1479   0.1641

          k =-0.5000-0.5000 0.0000 (423708 PWs)   bands (ev):

   -10.3936   0.0078   0.0842   0.0843   0.1526

 ------ SPIN DOWN ----------


          k = 0.0000 0.0000 0.0000 (423701 PWs)   bands (ev):

   -10.3936  -0.1175   0.1289   0.1947   0.2505

          k = 0.0000 0.2500 0.0000 (423725 PWs)   bands (ev):

   -10.3936  -0.0958   0.0910   0.1354   0.2466

          k = 0.0000-0.5000 0.0000 (423542 PWs)   bands (ev):

   -10.3936  -0.0494   0.0014   0.1429   0.2871

          k = 0.2500 0.0000 0.0000 (423725 PWs)   bands (ev):

   -10.3936  -0.0958   0.0909   0.1354   0.2468

          k = 0.2500 0.2500 0.0000 (423766 PWs)   bands (ev):

   -10.3936  -0.0744   0.1001   0.1303   0.1411

          k = 0.2500-0.5000 0.0000 (423782 PWs)   bands (ev):

   -10.3936  -0.0293   0.0246   0.1474   0.1643

          k = 0.2500-0.2500 0.0000 (423766 PWs)   bands (ev):

   -10.3936  -0.0744   0.1002   0.1303   0.1411

          k =-0.5000 0.0000 0.0000 (423542 PWs)   bands (ev):

   -10.3936  -0.0494   0.0014   0.1429   0.2859

          k =-0.5000 0.2500 0.0000 (423782 PWs)   bands (ev):

   -10.3936  -0.0294   0.0246   0.1474   0.1638

          k =-0.5000-0.5000 0.0000 (423708 PWs)   bands (ev):

   -10.3936   0.0080   0.0841   0.0993   0.1519

     the Fermi energy is    -5.0533 ev

!    total energy              =      -2.33303061 Ry
     estimated scf accuracy    <          4.3E-09 Ry
     smearing contrib. (-TS)   =       0.00000000 Ry
     internal energy E=F+TS    =      -2.33303061 Ry

     The total energy is F=E-TS. E is the sum of the following terms:
     one-electron contribution =      -4.41563689 Ry
     hartree contribution      =       2.33158077 Ry
     xc contribution           =      -1.38292200 Ry
     ewald contribution        =       1.13394916 Ry
     Dispersion Correction     =      -0.00000164 Ry

     total magnetization       =     0.00 Bohr mag/cell
     absolute magnetization    =     0.00 Bohr mag/cell

     convergence has been achieved in   5 iterations

     Forces acting on atoms (cartesian axes, Ry/au):

     atom    1 type  1   force =    -0.00000000    0.00000000   -0.01725342
     atom    2 type  1   force =     0.00000000   -0.00000000    0.01725342

     Total force =     0.017253     Total SCF correction =     0.000005

     BFGS Geometry Optimization
     Energy error            =      0.0E+00
     Gradient error          =      1.7E-02

     number of scf cycles    =   1
     number of bfgs steps    =   0

     energy   new            =      -2.3330306064 Ry

     new trust radius        =       0.0172534166 bohr
     new conv_thr            =       0.0000000100 Ry


ATOMIC_POSITIONS (angstrom)
H            10.0000000000       10.0000000000       10.0000000000    0   0   0
H            10.0000000008        9.9999999995       10.7471301149



     Writing output data file ./H2.save/
     NEW-OLD atomic charge density approx. for the potential

     negative rho (up, down):  6.309E-05 6.309E-05
     Generating pointlists ...

     total cpu time spent up to now is      129.6 secs

     Self-consistent Calculation

     iteration #  1     ecut=    60.00 Ry     beta= 0.70
     CG style diagonalization
     ethr =  1.00E-06,  avg # of iterations =  2.6

     negative rho (up, down):  6.277E-05 6.277E-05

     total cpu time spent up to now is      143.6 secs

     total energy              =      -2.33321142 Ry
     estimated scf accuracy    <       0.00003790 Ry

     total magnetization       =     0.00 Bohr mag/cell
     absolute magnetization    =     0.00 Bohr mag/cell

     iteration #  2     ecut=    60.00 Ry     beta= 0.70
     CG style diagonalization
     ethr =  1.89E-06,  avg # of iterations =  3.2

     negative rho (up, down):  6.277E-05 6.277E-05

     total cpu time spent up to now is      158.0 secs

     total energy              =      -2.33321610 Ry
     estimated scf accuracy    <       0.00000041 Ry

     total magnetization       =     0.00 Bohr mag/cell
     absolute magnetization    =     0.00 Bohr mag/cell

     iteration #  3     ecut=    60.00 Ry     beta= 0.70
     CG style diagonalization
     ethr =  2.07E-08,  avg # of iterations =  3.0

     negative rho (up, down):  6.281E-05 6.281E-05

     total cpu time spent up to now is      172.4 secs

     total energy              =      -2.33321616 Ry
     estimated scf accuracy    <       0.00000004 Ry

     total magnetization       =    -0.00 Bohr mag/cell
     absolute magnetization    =     0.00 Bohr mag/cell

     iteration #  4     ecut=    60.00 Ry     beta= 0.70
     CG style diagonalization
     ethr =  1.81E-09,  avg # of iterations =  3.2

     negative rho (up, down):  6.282E-05 6.282E-05

     Magnetic moment per site:
     atom:    1    charge:    0.2059    magn:   -0.0000    constr:    0.0000
     atom:    2    charge:    0.2056    magn:   -0.0000    constr:    0.0000

     total cpu time spent up to now is      185.3 secs

     End of self-consistent calculation

 ------ SPIN UP ------------


          k = 0.0000 0.0000 0.0000 (423701 PWs)   bands (ev):

   -10.3499  -0.1176   0.1152   0.1956   0.2499

          k = 0.0000 0.2500 0.0000 (423725 PWs)   bands (ev):

   -10.3499  -0.0960   0.0908   0.1210   0.2474

          k = 0.0000-0.5000 0.0000 (423542 PWs)   bands (ev):

   -10.3499  -0.0497   0.0014   0.1272   0.2865

          k = 0.2500 0.0000 0.0000 (423725 PWs)   bands (ev):

   -10.3499  -0.0960   0.0908   0.1210   0.2470

          k = 0.2500 0.2500 0.0000 (423766 PWs)   bands (ev):

   -10.3499  -0.0746   0.0997   0.1259   0.1302

          k = 0.2500-0.5000 0.0000 (423782 PWs)   bands (ev):

   -10.3499  -0.0298   0.0246   0.1312   0.1636

          k = 0.2500-0.2500 0.0000 (423766 PWs)   bands (ev):

   -10.3499  -0.0746   0.0998   0.1259   0.1303

          k =-0.5000 0.0000 0.0000 (423542 PWs)   bands (ev):

   -10.3499  -0.0497   0.0014   0.1272   0.2848

          k =-0.5000 0.2500 0.0000 (423782 PWs)   bands (ev):

   -10.3499  -0.0298   0.0248   0.1312   0.1635

          k =-0.5000-0.5000 0.0000 (423708 PWs)   bands (ev):

   -10.3499   0.0069   0.0841   0.0842   0.1354

 ------ SPIN DOWN ----------


          k = 0.0000 0.0000 0.0000 (423701 PWs)   bands (ev):

   -10.3499  -0.1176   0.1152   0.1945   0.2499

          k = 0.0000 0.2500 0.0000 (423725 PWs)   bands (ev):

   -10.3499  -0.0960   0.0908   0.1210   0.2464

          k = 0.0000-0.5000 0.0000 (423542 PWs)   bands (ev):

   -10.3499  -0.0498   0.0014   0.1272   0.2868

          k = 0.2500 0.0000 0.0000 (423725 PWs)   bands (ev):

   -10.3499  -0.0960   0.0908   0.1210   0.2466

          k = 0.2500 0.2500 0.0000 (423766 PWs)   bands (ev):

   -10.3499  -0.0746   0.0998   0.1259   0.1302

          k = 0.2500-0.5000 0.0000 (423782 PWs)   bands (ev):

   -10.3499  -0.0298   0.0246   0.1312   0.1639

          k = 0.2500-0.2500 0.0000 (423766 PWs)   bands (ev):

   -10.3499  -0.0746   0.0999   0.1259   0.1302

          k =-0.5000 0.0000 0.0000 (423542 PWs)   bands (ev):

   -10.3499  -0.0498   0.0014   0.1272   0.2857

          k =-0.5000 0.2500 0.0000 (423782 PWs)   bands (ev):

   -10.3499  -0.0299   0.0247   0.1312   0.1634

          k =-0.5000-0.5000 0.0000 (423708 PWs)   bands (ev):

   -10.3499   0.0073   0.0841   0.0993   0.1355

     the Fermi energy is    -5.0315 ev

!    total energy              =      -2.33321617 Ry
     estimated scf accuracy    <          3.2E-09 Ry
     smearing contrib. (-TS)   =       0.00000000 Ry
     internal energy E=F+TS    =      -2.33321617 Ry

     The total energy is F=E-TS. E is the sum of the following terms:
     one-electron contribution =      -4.39163222 Ry
     hartree contribution      =       2.31909165 Ry
     xc contribution           =      -1.37710199 Ry
     ewald contribution        =       1.11642807 Ry
     Dispersion Correction     =      -0.00000167 Ry

     total magnetization       =    -0.00 Bohr mag/cell
     absolute magnetization    =     0.00 Bohr mag/cell

     convergence has been achieved in   4 iterations

     Forces acting on atoms (cartesian axes, Ry/au):

     atom    1 type  1   force =    -0.00000000    0.00000000   -0.00438178
     atom    2 type  1   force =     0.00000000   -0.00000000    0.00438178

     Total force =     0.004382     Total SCF correction =     0.000014
     Energy error            =      1.9E-04
     Gradient error          =      4.4E-03

     number of scf cycles    =   2
     number of bfgs steps    =   1

     energy   old            =      -2.3330306064 Ry
     energy   new            =      -2.3332161674 Ry

     CASE: energy  _new < energy  _old

     new trust radius        =       0.0058734243 bohr
     new conv_thr            =       0.0000000011 Ry


ATOMIC_POSITIONS (angstrom)
H            10.0000000000       10.0000000000       10.0000000000    0   0   0
H            10.0000000008        9.9999999995       10.7502381972



     Writing output data file ./H2.save/
     NEW-OLD atomic charge density approx. for the potential

     negative rho (up, down):  6.279E-05 6.279E-05
     Generating pointlists ...

     total cpu time spent up to now is      197.9 secs

     Self-consistent Calculation

     iteration #  1     ecut=    60.00 Ry     beta= 0.70
     CG style diagonalization
     ethr =  1.00E-06,  avg # of iterations =  2.2

     negative rho (up, down):  6.269E-05 6.269E-05

     total cpu time spent up to now is      211.5 secs

     total energy              =      -2.33322899 Ry
     estimated scf accuracy    <       0.00000406 Ry

     total magnetization       =    -0.00 Bohr mag/cell
     absolute magnetization    =     0.00 Bohr mag/cell

     iteration #  2     ecut=    60.00 Ry     beta= 0.70
     CG style diagonalization
     ethr =  2.03E-07,  avg # of iterations =  3.0

     negative rho (up, down):  6.267E-05 6.267E-05

     total cpu time spent up to now is      225.8 secs

     total energy              =      -2.33322944 Ry
     estimated scf accuracy    <       0.00000005 Ry

     total magnetization       =     0.00 Bohr mag/cell
     absolute magnetization    =     0.00 Bohr mag/cell

     iteration #  3     ecut=    60.00 Ry     beta= 0.70
     CG style diagonalization
     ethr =  2.47E-09,  avg # of iterations =  3.2

     negative rho (up, down):  6.267E-05 6.267E-05

     total cpu time spent up to now is      240.4 secs

     total energy              =      -2.33322947 Ry
     estimated scf accuracy    <          7.2E-09 Ry

     total magnetization       =    -0.00 Bohr mag/cell
     absolute magnetization    =     0.00 Bohr mag/cell

     iteration #  4     ecut=    60.00 Ry     beta= 0.70
     CG style diagonalization
     ethr =  3.59E-10,  avg # of iterations =  3.2

     negative rho (up, down):  6.267E-05 6.267E-05

     Magnetic moment per site:
     atom:    1    charge:    0.2051    magn:    0.0000    constr:    0.0000
     atom:    2    charge:    0.2047    magn:   -0.0000    constr:    0.0000

     total cpu time spent up to now is      253.4 secs

     End of self-consistent calculation

 ------ SPIN UP ------------


          k = 0.0000 0.0000 0.0000 (423701 PWs)   bands (ev):

   -10.3348  -0.1176   0.1104   0.1955   0.2498

          k = 0.0000 0.2500 0.0000 (423725 PWs)   bands (ev):

   -10.3348  -0.0960   0.0908   0.1159   0.2473

          k = 0.0000-0.5000 0.0000 (423542 PWs)   bands (ev):

   -10.3348  -0.0498   0.0015   0.1217   0.2863

          k = 0.2500 0.0000 0.0000 (423725 PWs)   bands (ev):

   -10.3348  -0.0960   0.0907   0.1159   0.2470

          k = 0.2500 0.2500 0.0000 (423766 PWs)   bands (ev):

   -10.3348  -0.0747   0.0997   0.1206   0.1302

          k = 0.2500-0.5000 0.0000 (423782 PWs)   bands (ev):

   -10.3348  -0.0300   0.0247   0.1256   0.1635

          k = 0.2500-0.2500 0.0000 (423766 PWs)   bands (ev):

   -10.3348  -0.0747   0.0997   0.1206   0.1302

          k =-0.5000 0.0000 0.0000 (423542 PWs)   bands (ev):

   -10.3348  -0.0498   0.0014   0.1217   0.2848

          k =-0.5000 0.2500 0.0000 (423782 PWs)   bands (ev):

   -10.3348  -0.0300   0.0248   0.1256   0.1634

          k =-0.5000-0.5000 0.0000 (423708 PWs)   bands (ev):

   -10.3348   0.0067   0.0841   0.0842   0.1296

 ------ SPIN DOWN ----------


          k = 0.0000 0.0000 0.0000 (423701 PWs)   bands (ev):

   -10.3348  -0.1176   0.1104   0.1944   0.2497

          k = 0.0000 0.2500 0.0000 (423725 PWs)   bands (ev):

   -10.3348  -0.0960   0.0908   0.1159   0.2464

          k = 0.0000-0.5000 0.0000 (423542 PWs)   bands (ev):

   -10.3348  -0.0499   0.0015   0.1217   0.2867

          k = 0.2500 0.0000 0.0000 (423725 PWs)   bands (ev):

   -10.3348  -0.0960   0.0907   0.1159   0.2465

          k = 0.2500 0.2500 0.0000 (423766 PWs)   bands (ev):

   -10.3348  -0.0747   0.0997   0.1206   0.1302

          k = 0.2500-0.5000 0.0000 (423782 PWs)   bands (ev):

   -10.3348  -0.0300   0.0246   0.1256   0.1637

          k = 0.2500-0.2500 0.0000 (423766 PWs)   bands (ev):

   -10.3348  -0.0747   0.0998   0.1206   0.1302

          k =-0.5000 0.0000 0.0000 (423542 PWs)   bands (ev):

   -10.3348  -0.0499   0.0015   0.1217   0.2855

          k =-0.5000 0.2500 0.0000 (423782 PWs)   bands (ev):

   -10.3348  -0.0300   0.0247   0.1256   0.1633

          k =-0.5000-0.5000 0.0000 (423708 PWs)   bands (ev):

   -10.3348   0.0070   0.0841   0.0992   0.1297

     the Fermi energy is    -5.0241 ev

!    total energy              =      -2.33322947 Ry
     estimated scf accuracy    <          4.5E-10 Ry
     smearing contrib. (-TS)   =       0.00000000 Ry
     internal energy E=F+TS    =      -2.33322947 Ry

     The total energy is F=E-TS. E is the sum of the following terms:
     one-electron contribution =      -4.38352279 Ry
     hartree contribution      =       2.31487322 Ry
     xc contribution           =      -1.37513906 Ry
     ewald contribution        =       1.11056085 Ry
     Dispersion Correction     =      -0.00000168 Ry

     total magnetization       =     0.00 Bohr mag/cell
     absolute magnetization    =     0.00 Bohr mag/cell

     convergence has been achieved in   4 iterations

     Forces acting on atoms (cartesian axes, Ry/au):

     atom    1 type  1   force =     0.00000000   -0.00000000   -0.00016930
     atom    2 type  1   force =    -0.00000000    0.00000000    0.00016930

     Total force =     0.000169     Total SCF correction =     0.000006
     Energy error            =      1.3E-05
     Gradient error          =      1.7E-04

     number of scf cycles    =   3
     number of bfgs steps    =   2

     energy   old            =      -2.3332161674 Ry
     energy   new            =      -2.3332294695 Ry

     CASE: energy  _new < energy  _old

     new trust radius        =       0.0002360541 bohr
     new conv_thr            =            1.0E-10 Ry


ATOMIC_POSITIONS (angstrom)
H            10.0000000000       10.0000000000       10.0000000000    0   0   0
H            10.0000000008        9.9999999995       10.7503631116



     Writing output data file ./H2.save/
     NEW-OLD atomic charge density approx. for the potential

     negative rho (up, down):  6.267E-05 6.267E-05
     Generating pointlists ...

     total cpu time spent up to now is      266.1 secs

     Self-consistent Calculation

     iteration #  1     ecut=    60.00 Ry     beta= 0.70
     CG style diagonalization
     ethr =  1.00E-06,  avg # of iterations =  2.0

     Threshold (ethr) on eigenvalues was too large:
     Diagonalizing with lowered threshold

     CG style diagonalization
     ethr =  1.43E-10,  avg # of iterations =  2.2

     negative rho (up, down):  6.267E-05 6.267E-05

     total cpu time spent up to now is      283.8 secs

     total energy              =      -2.33322949 Ry
     estimated scf accuracy    <          5.8E-09 Ry

     total magnetization       =    -0.00 Bohr mag/cell
     absolute magnetization    =     0.00 Bohr mag/cell

     iteration #  2     ecut=    60.00 Ry     beta= 0.70
     CG style diagonalization
     ethr =  2.92E-10,  avg # of iterations =  3.0

     negative rho (up, down):  6.266E-05 6.266E-05

     Magnetic moment per site:
     atom:    1    charge:    0.2050    magn:    0.0000    constr:    0.0000
     atom:    2    charge:    0.2047    magn:   -0.0000    constr:    0.0000

     total cpu time spent up to now is      296.6 secs

     End of self-consistent calculation

 ------ SPIN UP ------------


          k = 0.0000 0.0000 0.0000 (423701 PWs)   bands (ev):

   -10.3343  -0.1176   0.1102   0.1954   0.2498

          k = 0.0000 0.2500 0.0000 (423725 PWs)   bands (ev):

   -10.3343  -0.0960   0.0907   0.1157   0.2473

          k = 0.0000-0.5000 0.0000 (423542 PWs)   bands (ev):

   -10.3343  -0.0498   0.0015   0.1215   0.2862

          k = 0.2500 0.0000 0.0000 (423725 PWs)   bands (ev):

   -10.3343  -0.0960   0.0907   0.1157   0.2470

          k = 0.2500 0.2500 0.0000 (423766 PWs)   bands (ev):

   -10.3343  -0.0747   0.0997   0.1204   0.1302

          k = 0.2500-0.5000 0.0000 (423782 PWs)   bands (ev):

   -10.3343  -0.0300   0.0246   0.1253   0.1634

          k = 0.2500-0.2500 0.0000 (423766 PWs)   bands (ev):

   -10.3343  -0.0747   0.0997   0.1203   0.1302

          k =-0.5000 0.0000 0.0000 (423542 PWs)   bands (ev):

   -10.3343  -0.0498   0.0014   0.1215   0.2847

          k =-0.5000 0.2500 0.0000 (423782 PWs)   bands (ev):

   -10.3343  -0.0300   0.0247   0.1253   0.1634

          k =-0.5000-0.5000 0.0000 (423708 PWs)   bands (ev):

   -10.3343   0.0067   0.0841   0.0842   0.1294

 ------ SPIN DOWN ----------


          k = 0.0000 0.0000 0.0000 (423701 PWs)   bands (ev):

   -10.3343  -0.1176   0.1102   0.1944   0.2497

          k = 0.0000 0.2500 0.0000 (423725 PWs)   bands (ev):

   -10.3343  -0.0960   0.0907   0.1157   0.2463

          k = 0.0000-0.5000 0.0000 (423542 PWs)   bands (ev):

   -10.3343  -0.0499   0.0015   0.1215   0.2866

          k = 0.2500 0.0000 0.0000 (423725 PWs)   bands (ev):

   -10.3343  -0.0960   0.0907   0.1157   0.2465

          k = 0.2500 0.2500 0.0000 (423766 PWs)   bands (ev):

   -10.3343  -0.0747   0.0997   0.1203   0.1302

          k = 0.2500-0.5000 0.0000 (423782 PWs)   bands (ev):

   -10.3343  -0.0300   0.0246   0.1253   0.1637

          k = 0.2500-0.2500 0.0000 (423766 PWs)   bands (ev):

   -10.3343  -0.0747   0.0998   0.1203   0.1301

          k =-0.5000 0.0000 0.0000 (423542 PWs)   bands (ev):

   -10.3343  -0.0499   0.0015   0.1215   0.2855

          k =-0.5000 0.2500 0.0000 (423782 PWs)   bands (ev):

   -10.3343  -0.0300   0.0247   0.1253   0.1633

          k =-0.5000-0.5000 0.0000 (423708 PWs)   bands (ev):

   -10.3343   0.0070   0.0841   0.0991   0.1294

     the Fermi energy is    -5.0238 ev

!    total energy              =      -2.33322949 Ry
     estimated scf accuracy    <          8.2E-11 Ry
     smearing contrib. (-TS)   =       0.00000000 Ry
     internal energy E=F+TS    =      -2.33322949 Ry

     The total energy is F=E-TS. E is the sum of the following terms:
     one-electron contribution =      -4.38319836 Ry
     hartree contribution      =       2.31470549 Ry
     xc contribution           =      -1.37506100 Ry
     ewald contribution        =       1.11032606 Ry
     Dispersion Correction     =      -0.00000168 Ry

     total magnetization       =     0.00 Bohr mag/cell
     absolute magnetization    =     0.00 Bohr mag/cell

     convergence has been achieved in   2 iterations

     Forces acting on atoms (cartesian axes, Ry/au):

     atom    1 type  1   force =     0.00000000    0.00000000   -0.00000149
     atom    2 type  1   force =    -0.00000000   -0.00000000    0.00000149

     Total force =     0.000001     Total SCF correction =     0.000000
     SCF correction compared to forces is large: reduce conv_thr to get better values
     Energy error            =      1.9E-08
     Gradient error          =      1.5E-06
Begin final coordinates

ATOMIC_POSITIONS (angstrom)
H            10.0000000000       10.0000000000       10.0000000000    0   0   0
H            10.0000000008        9.9999999995       10.7503631116
End final coordinates



     Writing output data file ./H2.save/

     lsda relaxation :  a final configuration with zero
                        absolute magnetization has been found

     the program is checking if it is really the minimum energy structure
     by performing a new scf iteration without any "electronic" history

     Initial potential from superposition of free atoms

     starting charge    1.99998, renormalised to    2.00000

     negative rho (up, down):  2.643E-05 2.162E-05

     total cpu time spent up to now is      307.9 secs

     Self-consistent Calculation

     iteration #  1     ecut=    60.00 Ry     beta= 0.70
     CG style diagonalization
     c_bands:  2 eigenvalues not converged
     c_bands:  1 eigenvalues not converged
     ethr =  1.00E-06,  avg # of iterations = 12.8

     negative rho (up, down):  5.234E-05 5.078E-05

     total cpu time spent up to now is      332.6 secs

     total energy              =      -2.32475809 Ry
     estimated scf accuracy    <       0.11557754 Ry

     total magnetization       =    -0.00 Bohr mag/cell
     absolute magnetization    =     0.01 Bohr mag/cell

     iteration #  2     ecut=    60.00 Ry     beta= 0.70
     CG style diagonalization
     ethr =  5.78E-03,  avg # of iterations =  3.0

     negative rho (up, down):  5.901E-05 5.870E-05

     total cpu time spent up to now is      346.9 secs

     total energy              =      -2.33269681 Ry
     estimated scf accuracy    <       0.00141166 Ry

     total magnetization       =    -0.00 Bohr mag/cell
     absolute magnetization    =     0.00 Bohr mag/cell

     iteration #  3     ecut=    60.00 Ry     beta= 0.70
     CG style diagonalization
     ethr =  7.06E-05,  avg # of iterations =  7.0

     negative rho (up, down):  6.243E-05 6.201E-05

     total cpu time spent up to now is      365.5 secs

     total energy              =      -2.33322434 Ry
     estimated scf accuracy    <       0.00005277 Ry

     total magnetization       =    -0.00 Bohr mag/cell
     absolute magnetization    =     0.00 Bohr mag/cell

     iteration #  4     ecut=    60.00 Ry     beta= 0.70
     CG style diagonalization
     c_bands:  1 eigenvalues not converged
     ethr =  2.64E-06,  avg # of iterations =  8.7

     negative rho (up, down):  6.268E-05 6.252E-05

     total cpu time spent up to now is      386.2 secs

     total energy              =      -2.33322854 Ry
     estimated scf accuracy    <       0.00000800 Ry

     total magnetization       =     0.00 Bohr mag/cell
     absolute magnetization    =     0.00 Bohr mag/cell

     iteration #  5     ecut=    60.00 Ry     beta= 0.70
     CG style diagonalization
     c_bands:  1 eigenvalues not converged
     ethr =  4.00E-07,  avg # of iterations =  3.3

     negative rho (up, down):  6.262E-05 6.259E-05

     total cpu time spent up to now is      401.2 secs

     total energy              =      -2.33322948 Ry
     estimated scf accuracy    <          5.4E-09 Ry

     total magnetization       =     0.00 Bohr mag/cell
     absolute magnetization    =     0.00 Bohr mag/cell

     iteration #  6     ecut=    60.00 Ry     beta= 0.70
     CG style diagonalization
     ethr =  2.70E-10,  avg # of iterations =  3.3

     negative rho (up, down):  6.266E-05 6.265E-05

     total cpu time spent up to now is      416.1 secs

     total energy              =      -2.33322949 Ry
     estimated scf accuracy    <       0.00000001 Ry

     total magnetization       =    -0.00 Bohr mag/cell
     absolute magnetization    =     0.00 Bohr mag/cell

     iteration #  7     ecut=    60.00 Ry     beta= 0.70
     CG style diagonalization
     ethr =  2.70E-10,  avg # of iterations =  3.2

     negative rho (up, down):  6.266E-05 6.266E-05

     total cpu time spent up to now is      431.1 secs

     total energy              =      -2.33322949 Ry
     estimated scf accuracy    <          1.4E-10 Ry

     total magnetization       =    -0.00 Bohr mag/cell
     absolute magnetization    =     0.00 Bohr mag/cell

     iteration #  8     ecut=    60.00 Ry     beta= 0.70
     CG style diagonalization
     ethr =  6.99E-12,  avg # of iterations =  3.2

     negative rho (up, down):  6.267E-05 6.267E-05

     Magnetic moment per site:
     atom:    1    charge:    0.2050    magn:    0.0000    constr:    0.0000
     atom:    2    charge:    0.2047    magn:    0.0000    constr:    0.0000

     total cpu time spent up to now is      444.0 secs

     End of self-consistent calculation

 ------ SPIN UP ------------


          k = 0.0000 0.0000 0.0000 (423701 PWs)   bands (ev):

   -10.3343  -0.1176   0.1102   0.1948   0.2496

          k = 0.0000 0.2500 0.0000 (423725 PWs)   bands (ev):

   -10.3343  -0.0960   0.0910   0.1158   0.2474

          k = 0.0000-0.5000 0.0000 (423542 PWs)   bands (ev):

   -10.3343  -0.0498   0.0015   0.1217   0.2847

          k = 0.2500 0.0000 0.0000 (423725 PWs)   bands (ev):

   -10.3343  -0.0960   0.0909   0.1156   0.2470

          k = 0.2500 0.2500 0.0000 (423766 PWs)   bands (ev):

   -10.3343  -0.0747   0.0997   0.1203   0.1303

          k = 0.2500-0.5000 0.0000 (423782 PWs)   bands (ev):

   -10.3343  -0.0300   0.0248   0.1255   0.1633

          k = 0.2500-0.2500 0.0000 (423766 PWs)   bands (ev):

   -10.3343  -0.0746   0.0997   0.1203   0.1303

          k =-0.5000 0.0000 0.0000 (423542 PWs)   bands (ev):

   -10.3343  -0.0496   0.0015   0.1217   0.3080

          k =-0.5000 0.2500 0.0000 (423782 PWs)   bands (ev):

   -10.3343  -0.0300   0.0248   0.1255   0.1633

          k =-0.5000-0.5000 0.0000 (423708 PWs)   bands (ev):

   -10.3343   0.0068   0.0842   0.0843   0.1293

 ------ SPIN DOWN ----------


          k = 0.0000 0.0000 0.0000 (423701 PWs)   bands (ev):

   -10.3343  -0.1177   0.1101   0.1944   0.2497

          k = 0.0000 0.2500 0.0000 (423725 PWs)   bands (ev):

   -10.3343  -0.0960   0.0907   0.1156   0.2461

          k = 0.0000-0.5000 0.0000 (423542 PWs)   bands (ev):

   -10.3343  -0.0497   0.0015   0.1216   0.3099

          k = 0.2500 0.0000 0.0000 (423725 PWs)   bands (ev):

   -10.3343  -0.0960   0.0907   0.1156   0.2461

          k = 0.2500 0.2500 0.0000 (423766 PWs)   bands (ev):

   -10.3343  -0.0747   0.0998   0.1203   0.1302

          k = 0.2500-0.5000 0.0000 (423782 PWs)   bands (ev):

   -10.3343  -0.0300   0.0248   0.1254   0.1633

          k = 0.2500-0.2500 0.0000 (423766 PWs)   bands (ev):

   -10.3343  -0.0747   0.0997   0.1203   0.1302

          k =-0.5000 0.0000 0.0000 (423542 PWs)   bands (ev):

   -10.3343  -0.0498   0.0015   0.1216   0.2847

          k =-0.5000 0.2500 0.0000 (423782 PWs)   bands (ev):

   -10.3343  -0.0301   0.0248   0.1254   0.1633

          k =-0.5000-0.5000 0.0000 (423708 PWs)   bands (ev):

   -10.3343   0.0067   0.0841   0.1059   0.1292

     the Fermi energy is    -5.0122 ev

!    total energy              =      -2.33322949 Ry
     estimated scf accuracy    <          7.5E-11 Ry
     smearing contrib. (-TS)   =       0.00000000 Ry
     internal energy E=F+TS    =      -2.33322949 Ry

     The total energy is F=E-TS. E is the sum of the following terms:
     one-electron contribution =      -4.38320171 Ry
     hartree contribution      =       2.31471224 Ry
     xc contribution           =      -1.37506440 Ry
     ewald contribution        =       1.11032606 Ry
     Dispersion Correction     =      -0.00000168 Ry

     total magnetization       =     0.00 Bohr mag/cell
     absolute magnetization    =     0.00 Bohr mag/cell

     convergence has been achieved in   8 iterations

     Forces acting on atoms (cartesian axes, Ry/au):

     atom    1 type  1   force =     0.00000000   -0.00000000    0.00000102
     atom    2 type  1   force =    -0.00000000    0.00000000   -0.00000102

     Total force =     0.000001     Total SCF correction =     0.000001
     SCF correction compared to forces is large: reduce conv_thr to get better values
     Energy error            =      1.9E-08
     Gradient error          =      1.0E-06

     bfgs converged in   4 scf cycles and   3 bfgs steps
     (criteria: energy <  7.3E-07 Ry, force <  3.9E-04 Ry/Bohr)

     End of BFGS Geometry Optimization

     Final energy   =      -2.3332294888 Ry

     File ./H2.bfgs deleted, as requested
Begin final coordinates

ATOMIC_POSITIONS (angstrom)
H            10.0000000000       10.0000000000       10.0000000000    0   0   0
H            10.0000000008        9.9999999995       10.7503631116
End final coordinates



     Writing output data file ./H2.save/

     init_run     :     18.14s CPU     19.27s WALL (       1 calls)
     electrons    :    355.11s CPU    382.84s WALL (       5 calls)
     update_pot   :     20.81s CPU     22.18s WALL (       3 calls)
     forces       :      8.19s CPU      8.37s WALL (       5 calls)

     Called by init_run:
     wfcinit      :      0.74s CPU      0.80s WALL (       1 calls)
     potinit      :     14.20s CPU     15.33s WALL (       2 calls)
     hinit0       :      0.53s CPU      0.67s WALL (       1 calls)

     Called by electrons:
     c_bands      :    118.43s CPU    120.34s WALL (      24 calls)
     sum_band     :     40.38s CPU     41.09s WALL (      24 calls)
     v_of_rho     :    156.85s CPU    170.65s WALL (      28 calls)
     newd         :     17.92s CPU     18.40s WALL (      28 calls)
     mix_rho      :     24.34s CPU     29.25s WALL (      24 calls)

     Called by c_bands:
     init_us_2    :      0.27s CPU      0.29s WALL (     162 calls)
     ccgdiagg     :     96.00s CPU     97.17s WALL (      72 calls)
     wfcrot       :     18.80s CPU     19.01s WALL (      57 calls)

     Called by *cgdiagg:
     h_psi        :    108.62s CPU    109.92s WALL (    1544 calls)
     s_psi        :      0.49s CPU      0.50s WALL (    3031 calls)

     Called by h_psi:
     h_psi:calbec :      2.02s CPU      2.05s WALL (    1544 calls)
     vloc_psi     :    104.66s CPU    105.91s WALL (    1544 calls)
     add_vuspsi   :      1.50s CPU      1.52s WALL (    1544 calls)
     hs_1psi      :     91.07s CPU     92.19s WALL (    1487 calls)
     s_1psi       :      1.07s CPU      1.08s WALL (    1487 calls)

     General routines
     calbec       :      2.93s CPU      2.98s WALL (    3163 calls)
     fft          :    162.99s CPU    167.95s WALL (     689 calls)
     ffts         :      8.39s CPU      8.48s WALL (     104 calls)
     fftw         :     96.25s CPU     97.35s WALL (    3904 calls)
     interpolate  :     19.24s CPU     20.75s WALL (      56 calls)
     davcio       :      0.05s CPU      2.36s WALL (     365 calls)

     Parallel routines
     fft_scatt_xy :     40.27s CPU     40.79s WALL (    4697 calls)
     fft_scatt_yz :     97.31s CPU     98.57s WALL (    4697 calls)

     PWSCF        :   6m57.67s CPU   7m29.66s WALL


   This run was terminated on:  22: 6:25   5Jul2022            

=------------------------------------------------------------------------------=
   JOB DONE.
=------------------------------------------------------------------------------=
