
     Program PHONON v.6.7MaX starts on 20Sep2022 at 23:21:38 

     This program is part of the open-source Quantum ESPRESSO suite
     for quantum simulation of materials; please cite
         "P. Giannozzi et al., J. Phys.:Condens. Matter 21 395502 (2009);
         "P. Giannozzi et al., J. Phys.:Condens. Matter 29 465901 (2017);
          URL http://www.quantum-espresso.org", 
     in publications or presentations arising from this work. More details at
     http://www.quantum-espresso.org/quote

     Parallel version (MPI), running on   120 processors

     MPI processes distributed on     1 nodes
     K-points division:     npool     =       8
     R & G space division:  proc/nbgrp/npool/nimage =      15
     Waiting for input...
     Reading input from standard input

     Reading xml data from directory:

     ./H2.save/

     IMPORTANT: XC functional enforced from input :
     Exchange-correlation= PBE
                           (   1   4   3   4   0   0   0)
     Any further DFT definition will be discarded
     Please, verify this is what you really want


     Parallelization info
     --------------------
     sticks:   dense  smooth     PW     G-vecs:    dense   smooth      PW
     Min        3636    1818    468               639190   225950   29545
     Max        3637    1819    470               639197   225953   29547
     Sum       54553   27281   7033              9587919  3389267  443191


     negative rho (up, down):  6.267E-05 6.267E-05
     Reading collected, re-writing distributed wavefunctions

     Calculation of q =    0.0000000   0.0000000   0.0000000

     phonons (vibrational modes) for H2                                         

     bravais-lattice index     =            0
     lattice parameter (alat)  =      37.7945  a.u.
     unit-cell volume          =   53986.6760 (a.u.)^3
     number of atoms/cell      =            2
     number of atomic types    =            1
     kinetic-energy cut-off    =      60.0000  Ry
     charge density cut-off    =     480.0000  Ry
     convergence threshold     =      1.0E-12
     beta                      =       0.7000
     number of iterations used =            4
     Exchange-correlation= PBE
                           (   1   4   3   4   0   0   0)


     celldm(1)=   37.79452  celldm(2)=    0.00000  celldm(3)=    0.00000
     celldm(4)=    0.00000  celldm(5)=    0.00000  celldm(6)=    0.00000

     crystal axes: (cart. coord. in units of alat)
               a(1) = (  1.0000  0.0000  0.0000 )  
               a(2) = (  0.0000  1.0000  0.0000 )  
               a(3) = (  0.0000  0.0000  1.0000 )  

     reciprocal axes: (cart. coord. in units 2 pi/alat)
               b(1) = (  1.0000  0.0000  0.0000 )  
               b(2) = (  0.0000  1.0000  0.0000 )  
               b(3) = (  0.0000  0.0000  1.0000 )  


     Atoms inside the unit cell: 

     Cartesian axes

     site n.  atom      mass           positions (alat units)
        1     H    1.0078   tau(    1) = (    0.50000    0.50000    0.50000  )
        2     H    1.0078   tau(    2) = (    0.50000    0.50000    0.53752  )

     Computing dynamical matrix for 
                    q = (   0.0000000   0.0000000   0.0000000 )

      2 Sym.Ops. (with q -> -q+G )


     G cutoff =17367.5767  ( 639197 G-vectors)     FFT grid: (270,270,270)
     G cutoff = 8683.7884  ( 225950 G-vectors)  smooth grid: (192,192,192)

     number of k points=    20  Methfessel-Paxton smearing, width (Ry)=  0.0100
                       cart. coord. in units 2pi/alat
        k(    1) = (   0.0000000   0.0000000   0.0000000), wk =   0.0625000
        k(    2) = (   0.0000000   0.2500000   0.0000000), wk =   0.1250000
        k(    3) = (   0.0000000  -0.5000000   0.0000000), wk =   0.0625000
        k(    4) = (   0.2500000   0.0000000   0.0000000), wk =   0.1250000
        k(    5) = (   0.2500000   0.2500000   0.0000000), wk =   0.1250000
        k(    6) = (   0.2500000  -0.5000000   0.0000000), wk =   0.1250000
        k(    7) = (   0.2500000  -0.2500000   0.0000000), wk =   0.1250000
        k(    8) = (  -0.5000000   0.0000000   0.0000000), wk =   0.0625000
        k(    9) = (  -0.5000000   0.2500000   0.0000000), wk =   0.1250000
        k(   10) = (  -0.5000000  -0.5000000   0.0000000), wk =   0.0625000
        k(   11) = (   0.0000000   0.0000000   0.0000000), wk =   0.0625000
        k(   12) = (   0.0000000   0.2500000   0.0000000), wk =   0.1250000
        k(   13) = (   0.0000000  -0.5000000   0.0000000), wk =   0.0625000
        k(   14) = (   0.2500000   0.0000000   0.0000000), wk =   0.1250000
        k(   15) = (   0.2500000   0.2500000   0.0000000), wk =   0.1250000
        k(   16) = (   0.2500000  -0.5000000   0.0000000), wk =   0.1250000
        k(   17) = (   0.2500000  -0.2500000   0.0000000), wk =   0.1250000
        k(   18) = (  -0.5000000   0.0000000   0.0000000), wk =   0.0625000
        k(   19) = (  -0.5000000   0.2500000   0.0000000), wk =   0.1250000
        k(   20) = (  -0.5000000  -0.5000000   0.0000000), wk =   0.0625000

     PseudoPot. # 1 for H  read from file:
     ../../SSSP/H.pbe-rrkjus_psl.1.0.0.UPF
     MD5 check sum: f52b6d4d1c606e5624b1dc7b2218f220
     Pseudo is Ultrasoft, Zval =  1.0
     Generated using "atomic" code by A. Dal Corso  v.5.1
     Using radial grid of  929 points,  2 beta functions with: 
                l(1) =   0
                l(2) =   0
     Q(r) pseudized with 0 coefficients 


     Mode symmetry, C_1 (1)     point group:


     Atomic displacements:
     There are    6 irreducible representations

     Representation     1      1 modes -  To be done

     Representation     2      1 modes -  To be done

     Representation     3      1 modes -  To be done

     Representation     4      1 modes -  To be done

     Representation     5      1 modes -  To be done

     Representation     6      1 modes -  To be done



     Alpha used in Ewald sum =   2.8000

     -------------------------------------------------
     Parameters for Dispersion (Grimme-D2) Correction:
     -------------------------------------------------
       atom      VdW radius       C_6     

        H          1.892          4.857

     Calculating the D2 contribution to the dynamical matrix.
     D2 energy =       -0.00000168 Ry
     Done.

     PHONON       :     57.13s CPU   1m 3.21s WALL



     Representation #   1 mode #   1

     Self-consistent Calculation

     Pert. #  1: Fermi energy shift (Ry) =     0.0000E+00     0.0000E+00

      iter #   1 total cpu time :    86.7 secs   av.it.:   4.0
      thresh= 1.000E-02 alpha_mix =  0.700 |ddv_scf|^2 =  5.232E-07

     Pert. #  1: Fermi energy shift (Ry) =     0.0000E+00     0.0000E+00

      iter #   2 total cpu time :   109.9 secs   av.it.:   7.0
      thresh= 7.233E-05 alpha_mix =  0.700 |ddv_scf|^2 =  6.853E-08

     Pert. #  1: Fermi energy shift (Ry) =     0.0000E+00     0.0000E+00

      iter #   3 total cpu time :   134.9 secs   av.it.:   6.0
      thresh= 2.618E-05 alpha_mix =  0.700 |ddv_scf|^2 =  1.209E-10

     Pert. #  1: Fermi energy shift (Ry) =     0.0000E+00     0.0000E+00

      iter #   4 total cpu time :   163.1 secs   av.it.:   8.0
      thresh= 1.099E-06 alpha_mix =  0.700 |ddv_scf|^2 =  4.974E-12

     Pert. #  1: Fermi energy shift (Ry) =     0.0000E+00     0.0000E+00

      iter #   5 total cpu time :   187.5 secs   av.it.:   7.0
      thresh= 2.230E-07 alpha_mix =  0.700 |ddv_scf|^2 =  2.837E-16

     End of self-consistent calculation

     Convergence has been achieved 


     Representation #   2 mode #   2

     Self-consistent Calculation

     Pert. #  1: Fermi energy shift (Ry) =     0.0000E+00     0.0000E+00

      iter #   1 total cpu time :   216.6 secs   av.it.:   4.0
      thresh= 1.000E-02 alpha_mix =  0.700 |ddv_scf|^2 =  5.232E-07

     Pert. #  1: Fermi energy shift (Ry) =     0.0000E+00     0.0000E+00

      iter #   2 total cpu time :   240.1 secs   av.it.:   7.0
      thresh= 7.233E-05 alpha_mix =  0.700 |ddv_scf|^2 =  6.853E-08

     Pert. #  1: Fermi energy shift (Ry) =     0.0000E+00     0.0000E+00

      iter #   3 total cpu time :   263.2 secs   av.it.:   6.0
      thresh= 2.618E-05 alpha_mix =  0.700 |ddv_scf|^2 =  1.209E-10

     Pert. #  1: Fermi energy shift (Ry) =     0.0000E+00     0.0000E+00

      iter #   4 total cpu time :   291.3 secs   av.it.:   8.0
      thresh= 1.099E-06 alpha_mix =  0.700 |ddv_scf|^2 =  4.974E-12

     Pert. #  1: Fermi energy shift (Ry) =     0.0000E+00     0.0000E+00

      iter #   5 total cpu time :   314.7 secs   av.it.:   7.0
      thresh= 2.230E-07 alpha_mix =  0.700 |ddv_scf|^2 =  2.837E-16

     End of self-consistent calculation

     Convergence has been achieved 


     Representation #   3 mode #   3

     Self-consistent Calculation

     Pert. #  1: Fermi energy shift (Ry) =     0.0000E+00     0.0000E+00

      iter #   1 total cpu time :   344.1 secs   av.it.:   6.0
      thresh= 1.000E-02 alpha_mix =  0.700 |ddv_scf|^2 =  3.864E-07

     Pert. #  1: Fermi energy shift (Ry) =     0.0000E+00     0.0000E+00

      iter #   2 total cpu time :   369.5 secs   av.it.:  10.0
      thresh= 6.216E-05 alpha_mix =  0.700 |ddv_scf|^2 =  3.944E-08

     Pert. #  1: Fermi energy shift (Ry) =     0.0000E+00     0.0000E+00

      iter #   3 total cpu time :   392.6 secs   av.it.:   9.0
      thresh= 1.986E-05 alpha_mix =  0.700 |ddv_scf|^2 =  1.414E-10

     Pert. #  1: Fermi energy shift (Ry) =     0.0000E+00     0.0000E+00

      iter #   4 total cpu time :   419.6 secs   av.it.:   9.0
      thresh= 1.189E-06 alpha_mix =  0.700 |ddv_scf|^2 =  8.407E-11

     Pert. #  1: Fermi energy shift (Ry) =     0.0000E+00     0.0000E+00

      iter #   5 total cpu time :   450.2 secs   av.it.:  10.0
      thresh= 9.169E-07 alpha_mix =  0.700 |ddv_scf|^2 =  2.277E-13

     End of self-consistent calculation

     Convergence has been achieved 


     Representation #   4 mode #   4

     Self-consistent Calculation

     Pert. #  1: Fermi energy shift (Ry) =     0.0000E+00     0.0000E+00

      iter #   1 total cpu time :   479.3 secs   av.it.:   4.0
      thresh= 1.000E-02 alpha_mix =  0.700 |ddv_scf|^2 =  4.137E-07

     Pert. #  1: Fermi energy shift (Ry) =     0.0000E+00     0.0000E+00

      iter #   2 total cpu time :   503.5 secs   av.it.:   7.0
      thresh= 6.432E-05 alpha_mix =  0.700 |ddv_scf|^2 =  5.693E-08

     Pert. #  1: Fermi energy shift (Ry) =     0.0000E+00     0.0000E+00

      iter #   3 total cpu time :   526.7 secs   av.it.:   6.0
      thresh= 2.386E-05 alpha_mix =  0.700 |ddv_scf|^2 =  4.247E-11

     Pert. #  1: Fermi energy shift (Ry) =     0.0000E+00     0.0000E+00

      iter #   4 total cpu time :   553.6 secs   av.it.:   8.0
      thresh= 6.517E-07 alpha_mix =  0.700 |ddv_scf|^2 =  2.199E-12

     Pert. #  1: Fermi energy shift (Ry) =     0.0000E+00     0.0000E+00

      iter #   5 total cpu time :   584.8 secs   av.it.:   7.0
      thresh= 1.483E-07 alpha_mix =  0.700 |ddv_scf|^2 =  3.627E-16

     End of self-consistent calculation

     Convergence has been achieved 


     Representation #   5 mode #   5

     Self-consistent Calculation

     Pert. #  1: Fermi energy shift (Ry) =     0.0000E+00     0.0000E+00

      iter #   1 total cpu time :   613.8 secs   av.it.:   4.0
      thresh= 1.000E-02 alpha_mix =  0.700 |ddv_scf|^2 =  4.137E-07

     Pert. #  1: Fermi energy shift (Ry) =     0.0000E+00     0.0000E+00

      iter #   2 total cpu time :   636.9 secs   av.it.:   7.0
      thresh= 6.432E-05 alpha_mix =  0.700 |ddv_scf|^2 =  5.693E-08

     Pert. #  1: Fermi energy shift (Ry) =     0.0000E+00     0.0000E+00

      iter #   3 total cpu time :   659.8 secs   av.it.:   6.0
      thresh= 2.386E-05 alpha_mix =  0.700 |ddv_scf|^2 =  4.247E-11

     Pert. #  1: Fermi energy shift (Ry) =     0.0000E+00     0.0000E+00

      iter #   4 total cpu time :   687.2 secs   av.it.:   8.0
      thresh= 6.517E-07 alpha_mix =  0.700 |ddv_scf|^2 =  2.199E-12

     Pert. #  1: Fermi energy shift (Ry) =     0.0000E+00     0.0000E+00

      iter #   5 total cpu time :   717.1 secs   av.it.:   7.0
      thresh= 1.483E-07 alpha_mix =  0.700 |ddv_scf|^2 =  3.627E-16

     End of self-consistent calculation

     Convergence has been achieved 


     Representation #   6 mode #   6

     Self-consistent Calculation

     Pert. #  1: Fermi energy shift (Ry) =     0.0000E+00     0.0000E+00

      iter #   1 total cpu time :   746.7 secs   av.it.:   6.0
      thresh= 1.000E-02 alpha_mix =  0.700 |ddv_scf|^2 =  7.950E-07

     Pert. #  1: Fermi energy shift (Ry) =     0.0000E+00     0.0000E+00

      iter #   2 total cpu time :   771.6 secs   av.it.:   9.0
      thresh= 8.916E-05 alpha_mix =  0.700 |ddv_scf|^2 =  1.013E-07

     Pert. #  1: Fermi energy shift (Ry) =     0.0000E+00     0.0000E+00

      iter #   3 total cpu time :   794.5 secs   av.it.:   9.0
      thresh= 3.183E-05 alpha_mix =  0.700 |ddv_scf|^2 =  1.544E-10

     Pert. #  1: Fermi energy shift (Ry) =     0.0000E+00     0.0000E+00

      iter #   4 total cpu time :   822.3 secs   av.it.:  11.0
      thresh= 1.242E-06 alpha_mix =  0.700 |ddv_scf|^2 =  1.998E-12

     Pert. #  1: Fermi energy shift (Ry) =     0.0000E+00     0.0000E+00

      iter #   5 total cpu time :   850.6 secs   av.it.:  11.0
      thresh= 1.413E-07 alpha_mix =  0.700 |ddv_scf|^2 =  7.432E-14

     End of self-consistent calculation

     Convergence has been achieved 

     Number of q in the star =    1
     List of q in the star:
          1   0.000000000   0.000000000   0.000000000

     Diagonalizing the dynamical matrix

     q = (    0.000000000   0.000000000   0.000000000 ) 

 **************************************************************************
     freq (    1) =      -3.091663 [THz] =    -103.126771 [cm-1]
     freq (    2) =      -3.091662 [THz] =    -103.126759 [cm-1]
     freq (    3) =      -2.547477 [THz] =     -84.974670 [cm-1]
     freq (    4) =      -0.675817 [THz] =     -22.542841 [cm-1]
     freq (    5) =      -0.675817 [THz] =     -22.542823 [cm-1]
     freq (    6) =     129.287876 [THz] =    4312.579329 [cm-1]
 **************************************************************************

     Mode symmetry, C_1 (1)     point group:

     freq (   1-   1) =       -103.1  [cm-1]   --> A               I+R
     freq (   2-   2) =       -103.1  [cm-1]   --> A               I+R
     freq (   3-   3) =        -85.0  [cm-1]   --> A               I+R
     freq (   4-   4) =        -22.5  [cm-1]   --> A               I+R
     freq (   5-   5) =        -22.5  [cm-1]   --> A               I+R
     freq (   6-   6) =       4312.6  [cm-1]   --> A               I+R

     PHONON       :  11m46.70s CPU  14m21.93s WALL

     INITIALIZATION: 
     phq_setup    :     12.50s CPU     14.18s WALL (       1 calls)
     phq_init     :     26.20s CPU     28.02s WALL (       1 calls)

     phq_init     :     26.20s CPU     28.02s WALL (       1 calls)
     init_vloc    :      0.15s CPU      0.15s WALL (       1 calls)
     init_us_1    :      0.00s CPU      0.00s WALL (       1 calls)
     newd         :      0.68s CPU      0.72s WALL (       1 calls)
     dvanqq       :      7.02s CPU      7.16s WALL (       1 calls)
     drho         :     11.71s CPU     13.26s WALL (       1 calls)

     DYNAMICAL MATRIX:
     dynmat0      :      0.88s CPU      0.97s WALL (       1 calls)
     phqscf       :    649.43s CPU    793.29s WALL (       1 calls)
     dynmatrix    :      0.09s CPU      0.15s WALL (       1 calls)

     phqscf       :    649.43s CPU    793.29s WALL (       1 calls)
     solve_linter :    645.52s CPU    778.99s WALL (       6 calls)
     drhodv       :      3.91s CPU      4.05s WALL (       6 calls)

     dynmat0      :      0.88s CPU      0.97s WALL (       1 calls)
     dynmat_us    :      0.68s CPU      0.72s WALL (       1 calls)
     d2ionq       :      0.20s CPU      0.20s WALL (       1 calls)

     dynmat_us    :      0.68s CPU      0.72s WALL (       1 calls)
     addusdynmat  :      0.00s CPU      0.00s WALL (       1 calls)

     phqscf       :    649.43s CPU    793.29s WALL (       1 calls)
     solve_linter :    645.52s CPU    778.99s WALL (       6 calls)

     solve_linter :    645.52s CPU    778.99s WALL (       6 calls)
     dvqpsi_us    :      8.36s CPU      8.56s WALL (      18 calls)
     ortho        :      1.00s CPU      1.03s WALL (      90 calls)
     cgsolve      :     52.33s CPU     53.26s WALL (      90 calls)
     incdrhoscf   :      7.35s CPU      7.51s WALL (      90 calls)
     addusddens   :     20.53s CPU     23.56s WALL (      36 calls)
     vpsifft      :      6.21s CPU      6.40s WALL (      72 calls)
     dv_of_drho   :    224.38s CPU    231.49s WALL (      30 calls)
     mix_pot      :     15.58s CPU     44.33s WALL (      30 calls)
     ef_shift     :     30.64s CPU     31.28s WALL (      36 calls)
     localdos     :     12.58s CPU     13.31s WALL (       6 calls)
     psymdvscf    :    150.03s CPU    211.10s WALL (      30 calls)
     newdq        :     24.47s CPU     26.71s WALL (      30 calls)
     adddvscf     :      0.15s CPU      0.16s WALL (      72 calls)
     drhodvus     :      4.48s CPU     14.34s WALL (       6 calls)

     dvqpsi_us    :      8.36s CPU      8.56s WALL (      18 calls)
     dvqpsi_us_on :      0.08s CPU      0.09s WALL (      18 calls)

     cgsolve      :     52.33s CPU     53.26s WALL (      90 calls)
     ch_psi       :     51.32s CPU     52.22s WALL (     654 calls)

     ch_psi       :     51.32s CPU     52.22s WALL (     654 calls)
     h_psi        :     49.98s CPU     50.86s WALL (     654 calls)
     last         :      1.08s CPU      1.09s WALL (     654 calls)

     h_psi        :     49.98s CPU     50.86s WALL (     654 calls)
     add_vuspsi   :      0.66s CPU      0.67s WALL (     654 calls)

     incdrhoscf   :      7.35s CPU      7.51s WALL (      90 calls)
     addusdbec    :      0.40s CPU      0.40s WALL (     108 calls)

     drhodvus     :      4.48s CPU     14.34s WALL (       6 calls)

      General routines
     calbec       :      2.56s CPU      2.70s WALL (    1626 calls)
     fft          :    291.60s CPU    297.50s WALL (    1069 calls)
     ffts         :     17.83s CPU     18.32s WALL (     224 calls)
     fftw         :     55.82s CPU     56.81s WALL (    1845 calls)
     davcio       :      0.15s CPU     31.64s WALL (     672 calls)
     write_rec    :      0.00s CPU     21.79s WALL (      36 calls)


     PHONON       :  11m46.70s CPU  14m21.93s WALL


   This run was terminated on:  23:36: 0  20Sep2022            

=------------------------------------------------------------------------------=
   JOB DONE.
=------------------------------------------------------------------------------=
