
     Program PWSCF v.6.4.1 starts on  4Jun2022 at 21: 8:50 

     This program is part of the open-source Quantum ESPRESSO suite
     for quantum simulation of materials; please cite
         "P. Giannozzi et al., J. Phys.:Condens. Matter 21 395502 (2009);
         "P. Giannozzi et al., J. Phys.:Condens. Matter 29 465901 (2017);
          URL http://www.quantum-espresso.org", 
     in publications or presentations arising from this work. More details at
     http://www.quantum-espresso.org/quote

     Parallel version (MPI), running on   160 processors

     MPI processes distributed on     8 nodes
     K-points division:     npool     =       8
     R & G space division:  proc/nbgrp/npool/nimage =      20
     Waiting for input...
     Reading input from standard input
Warning: card &CELL ignored
Warning: card / ignored

     Current dimensions of program PWSCF are:
     Max number of different atomic species (ntypx) = 10
     Max number of k-points (npk) =  40000
     Max angular momentum in pseudopotentials (lmaxx) =  3

     IMPORTANT: XC functional enforced from input :
     Exchange-correlation      = PBE ( 1  4  3  4 0 0)
     Any further DFT definition will be discarded
     Please, verify this is what you really want

               file Fe.pbe-spn-kjpaw_psl.0.2.1.UPF: wavefunction(s)  3D renormalized

     -------------------------------------------------
     Parameters for Dispersion (Grimme-D2) Correction:
     -------------------------------------------------
       atom      VdW radius       C_6     

        Fe         2.952        374.666
        N          2.640         42.670
        H          1.892          4.857

     Subspace diagonalization in iterative solution of the eigenvalue problem:
     one sub-group per band group will be used
     scalapack distributed-memory algorithm (size of sub-group:  3*  3 procs)


     Parallelization info
     --------------------
     sticks:   dense  smooth     PW     G-vecs:    dense   smooth      PW
     Min         634     317     83               145278    51361    6989
     Max         635     318     84               145287    51370    7000
     Sum       12685    6351   1677              2905603  1027285  139897



     bravais-lattice index     =            0
     lattice parameter (alat)  =      18.7640  a.u.
     unit-cell volume          =   16360.3167 (a.u.)^3
     number of atoms/cell      =           66
     number of atomic types    =            3
     number of electrons       =      1030.00
     number of Kohn-Sham states=          618
     kinetic-energy cutoff     =      60.0000  Ry
     charge density cutoff     =     480.0000  Ry
     convergence threshold     =      1.0E-08
     mixing beta               =       0.2000
     number of iterations used =           10  local-TF  mixing
     Exchange-correlation      = PBE ( 1  4  3  4 0 0)
     nstep                     =           50


     celldm(1)=  18.764036  celldm(2)=   0.000000  celldm(3)=   0.000000
     celldm(4)=   0.000000  celldm(5)=   0.000000  celldm(6)=   0.000000

     crystal axes: (cart. coord. in units of alat)
               a(1) = (   1.000000   0.000000   0.000000 )  
               a(2) = (   0.333330   0.942807   0.000000 )  
               a(3) = (   0.000000   0.000000   2.626577 )  

     reciprocal axes: (cart. coord. in units 2 pi/alat)
               b(1) = (  1.000000 -0.353551  0.000000 )  
               b(2) = (  0.000000  1.060662  0.000000 )  
               b(3) = (  0.000000  0.000000  0.380724 )  


     PseudoPot. # 1 for Fe read from file:
     ../../SSSP/Fe.pbe-spn-kjpaw_psl.0.2.1.UPF
     MD5 check sum: e86618425769142926afa95317d90200
     Pseudo is Projector augmented-wave + core cor, Zval = 16.0
     Generated using "atomic" code by A. Dal Corso v.5.0.99 svn rev. 10869
     Shape of augmentation charge: PSQ
     Using radial grid of 1191 points,  6 beta functions with: 
                l(1) =   0
                l(2) =   0
                l(3) =   1
                l(4) =   1
                l(5) =   2
                l(6) =   2
     Q(r) pseudized with 0 coefficients 


     PseudoPot. # 2 for N  read from file:
     ../../SSSP/N.pbe-n-radius_5.UPF
     MD5 check sum: 16739722b17309cd8fe442a2ace49922
     Pseudo is Ultrasoft + core correction, Zval =  5.0
     Generated using "atomic" code by A. Dal Corso v.5.1
     Using radial grid of 1085 points,  4 beta functions with: 
                l(1) =   0
                l(2) =   0
                l(3) =   1
                l(4) =   1
     Q(r) pseudized with 0 coefficients 


     PseudoPot. # 3 for H  read from file:
     ../../SSSP/H.pbe-rrkjus_psl.1.0.0.UPF
     MD5 check sum: f52b6d4d1c606e5624b1dc7b2218f220
     Pseudo is Ultrasoft, Zval =  1.0
     Generated using "atomic" code by A. Dal Corso v.5.1
     Using radial grid of  929 points,  2 beta functions with: 
                l(1) =   0
                l(2) =   0
     Q(r) pseudized with 0 coefficients 


     atomic species   valence    mass     pseudopotential
        Fe            16.00    55.84500     Fe( 1.00)
        N              5.00    14.00700     N ( 1.00)
        H              1.00     1.00800     H ( 1.00)

     Starting magnetic structure 
     atomic species   magnetization
        Fe           0.100
        N            0.100
        H            0.100

     No symmetry found



   Cartesian axes

     site n.     atom                  positions (alat units)
         1           Fe  tau(   1) = (   0.1666663   0.1178509   0.0000000  )
         2           Fe  tau(   2) = (   0.0000000   0.0000000   0.2041376  )
         3           Fe  tau(   3) = (   0.4999989   0.3535526   0.0000000  )
         4           Fe  tau(   4) = (   0.3333326   0.2357017   0.2041376  )
         5           Fe  tau(   5) = (   0.1691472   0.1176094   0.4056660  )
         6           Fe  tau(   6) = (   0.3359380   0.9392018   0.6058109  )
         7           Fe  tau(   7) = (   0.4995901   0.3558703   0.4071094  )
         8           Fe  tau(   8) = (   0.3412681   0.2358492   0.6065705  )
         9           Fe  tau(   9) = (   0.2499989   0.3535526   0.0000000  )
        10           Fe  tau(  10) = (   0.4166663   0.1178509   0.0000000  )
        11           Fe  tau(  11) = (   0.0833326   0.2357017   0.2041376  )
        12           Fe  tau(  12) = (   0.2500000   0.0000000   0.2041376  )
        13           Fe  tau(  13) = (   0.2500218   0.3535847   0.4074555  )
        14           Fe  tau(  14) = (   0.4191520   0.1196486   0.4060441  )
        15           Fe  tau(  15) = (   0.0915614   0.2321511   0.6071614  )
        16           Fe  tau(  16) = (   0.2530336   0.0021777   0.6066172  )
        17           Fe  tau(  17) = (   0.6666663   0.1178509   0.0000000  )
        18           Fe  tau(  18) = (   0.5000000   0.0000000   0.2041376  )
        19           Fe  tau(  19) = (   0.9999989   0.3535526   0.0000000  )
        20           Fe  tau(  20) = (   0.8333326   0.2357017   0.2041376  )
        21           Fe  tau(  21) = (   0.6686653   0.1166981   0.4070739  )
        22           Fe  tau(  22) = (   0.5027470   0.0075037   0.6066117  )
        23           Fe  tau(  23) = (   1.0004776   0.3513212   0.4070776  )
        24           Fe  tau(  24) = (   0.8513672   0.2102859   0.6020526  )
        25           Fe  tau(  25) = (   0.7499989   0.3535526   0.0000000  )
        26           Fe  tau(  26) = (   0.9166663   0.1178509   0.0000000  )
        27           Fe  tau(  27) = (   0.5833326   0.2357017   0.2041376  )
        28           Fe  tau(  28) = (   0.7500000   0.0000000   0.2041376  )
        29           Fe  tau(  29) = (   0.7500413   0.3535585   0.4083588  )
        30           Fe  tau(  30) = (   0.9196400   0.1137006   0.4025538  )
        31           Fe  tau(  31) = (   0.5921530   0.2419357   0.6052781  )
        32           Fe  tau(  32) = (   1.0840202   0.9339264   0.6071563  )
        33           Fe  tau(  33) = (   0.3333315   0.5892543   0.0000000  )
        34           Fe  tau(  34) = (   0.1666652   0.4714034   0.2041376  )
        35           Fe  tau(  35) = (   0.6666640   0.8249560   0.0000000  )
        36           Fe  tau(  36) = (   0.4999977   0.7071052   0.2041376  )
        37           Fe  tau(  37) = (   0.3308935   0.5895421   0.4056869  )
        38           Fe  tau(  38) = (   1.1587769   0.4713705   0.6066133  )
        39           Fe  tau(  39) = (   0.6672561   0.8273892   0.4056891  )
        40           Fe  tau(  40) = (   0.4974300   0.7108097   0.6059108  )
        41           Fe  tau(  41) = (   0.4166640   0.8249560   0.0000000  )
        42           Fe  tau(  42) = (   0.5833315   0.5892543   0.0000000  )
        43           Fe  tau(  43) = (   0.2499978   0.7071052   0.2041376  )
        44           Fe  tau(  44) = (   0.4166652   0.4714034   0.2041376  )
        45           Fe  tau(  45) = (   0.4166844   0.8249818   0.4044816  )
        46           Fe  tau(  46) = (   0.5803842   0.5934793   0.4025899  )
        47           Fe  tau(  47) = (   1.2470077   0.7050318   0.6066043  )
        48           Fe  tau(  48) = (   0.4085172   0.4750833   0.6072198  )
        49           Fe  tau(  49) = (   0.8333314   0.5892543   0.0000000  )
        50           Fe  tau(  50) = (   0.6666652   0.4714034   0.2041376  )
        51           Fe  tau(  51) = (   1.1666640   0.8249560   0.0000000  )
        52           Fe  tau(  52) = (   0.9999977   0.7071052   0.2041376  )
        53           Fe  tau(  53) = (   0.8313388   0.5904534   0.4071156  )
        54           Fe  tau(  54) = (   0.6487232   0.4968744   0.6020552  )
        55           Fe  tau(  55) = (   1.1661157   0.8225743   0.4056597  )
        56           Fe  tau(  56) = (   0.9972943   0.6997385   0.6065670  )
        57           Fe  tau(  57) = (   0.9166640   0.8249560   0.0000000  )
        58           Fe  tau(  58) = (   1.0833314   0.5892543   0.0000000  )
        59           Fe  tau(  59) = (   0.7499977   0.7071052   0.2041376  )
        60           Fe  tau(  60) = (   0.9166652   0.4714034   0.2041376  )
        61           Fe  tau(  61) = (   0.9166776   0.8249875   0.4074566  )
        62           Fe  tau(  62) = (   1.0808628   0.5875460   0.4060466  )
        63           Fe  tau(  63) = (   0.7493229   0.7160880   0.6072273  )
        64           Fe  tau(  64) = (   0.9079495   0.4652293   0.6052882  )
        65           N   tau(  65) = (   0.7500494   0.3535839   0.6399018  )
        66           H   tau(  66) = (   0.4594390   0.8541215   0.6991287  )

     number of k points=    10  Methfessel-Paxton smearing, width (Ry)=  0.0100
                       cart. coord. in units 2pi/alat
        k(    1) = (   0.0000000   0.0000000   0.0000000), wk =   0.0625000
        k(    2) = (   0.0000000   0.2651656   0.0000000), wk =   0.1250000
        k(    3) = (   0.0000000  -0.5303312   0.0000000), wk =   0.0625000
        k(    4) = (   0.2500000  -0.0883877   0.0000000), wk =   0.1250000
        k(    5) = (   0.2500000   0.1767780   0.0000000), wk =   0.1250000
        k(    6) = (   0.2500000  -0.6187189   0.0000000), wk =   0.1250000
        k(    7) = (   0.2500000  -0.3535533   0.0000000), wk =   0.1250000
        k(    8) = (  -0.5000000   0.1767753   0.0000000), wk =   0.0625000
        k(    9) = (  -0.5000000   0.4419409   0.0000000), wk =   0.1250000
        k(   10) = (  -0.5000000  -0.3535559   0.0000000), wk =   0.0625000

     Dense  grid:  2905603 G-vectors     FFT dimensions: ( 135, 135, 360)

     Smooth grid:  1027285 G-vectors     FFT dimensions: (  96,  96, 243)

     Estimated max dynamical RAM per process >       1.01 GB

     Estimated total dynamical RAM >     161.82 GB
     Generating pointlists ...
     new r_m :   0.0722 (alat units)  1.3555 (a.u.) for type    1
     new r_m :   0.0741 (alat units)  1.3896 (a.u.) for type    2
     new r_m :   0.0722 (alat units)  1.3555 (a.u.) for type    3

     Check: negative core charge=   -0.000039

     Initial potential from superposition of free atoms

     starting charge 1029.97193, renormalised to 1030.00000

     negative rho (up, down):  2.478E-02 2.539E-03
     Starting wfcs are  837 randomized atomic wfcs
     Checking if some PAW data can be deallocated... 

     total cpu time spent up to now is       83.4 secs

     Self-consistent Calculation

     iteration #  1     ecut=    60.00 Ry     beta= 0.20
     Davidson diagonalization with overlap
     ethr =  1.00E-04,  avg # of iterations = 10.4

     negative rho (up, down):  1.260E-02 4.214E-03

     total cpu time spent up to now is      546.4 secs

     total energy              =  -21093.66684866 Ry
     Harris-Foulkes estimate   =  -21094.12135042 Ry
     estimated scf accuracy    <      27.82875037 Ry

     total magnetization       =   133.81 Bohr mag/cell
     absolute magnetization    =   134.08 Bohr mag/cell

     iteration #  2     ecut=    60.00 Ry     beta= 0.20
     Davidson diagonalization with overlap
     ethr =  2.70E-03,  avg # of iterations =  1.0

     negative rho (up, down):  6.653E-03 2.573E-02

     total cpu time spent up to now is      676.4 secs

     total energy              =  -21093.85514478 Ry
     Harris-Foulkes estimate   =  -21093.96392875 Ry
     estimated scf accuracy    <       7.72633797 Ry

     total magnetization       =   136.06 Bohr mag/cell
     absolute magnetization    =   136.58 Bohr mag/cell

     iteration #  3     ecut=    60.00 Ry     beta= 0.20
     Davidson diagonalization with overlap
     ethr =  7.50E-04,  avg # of iterations =  1.0

     negative rho (up, down):  1.900E-02 2.167E-01

     total cpu time spent up to now is      805.9 secs

     total energy              =  -21092.92534777 Ry
     Harris-Foulkes estimate   =  -21093.94752577 Ry
     estimated scf accuracy    <       9.66714247 Ry

     total magnetization       =   142.82 Bohr mag/cell
     absolute magnetization    =   143.78 Bohr mag/cell

     iteration #  4     ecut=    60.00 Ry     beta= 0.20
     Davidson diagonalization with overlap
     ethr =  7.50E-04,  avg # of iterations =  3.6

     negative rho (up, down):  1.077E-02 1.779E-01

     total cpu time spent up to now is      986.1 secs

     total energy              =  -21093.70167806 Ry
     Harris-Foulkes estimate   =  -21093.74676599 Ry
     estimated scf accuracy    <       2.20886154 Ry

     total magnetization       =   156.59 Bohr mag/cell
     absolute magnetization    =   161.54 Bohr mag/cell

     iteration #  5     ecut=    60.00 Ry     beta= 0.20
     Davidson diagonalization with overlap
     ethr =  2.14E-04,  avg # of iterations =  3.8

     negative rho (up, down):  4.516E-03 1.193E-01

     total cpu time spent up to now is     1163.0 secs

     total energy              =  -21093.78115406 Ry
     Harris-Foulkes estimate   =  -21093.76465685 Ry
     estimated scf accuracy    <       0.65305928 Ry

     total magnetization       =   155.40 Bohr mag/cell
     absolute magnetization    =   160.74 Bohr mag/cell

     iteration #  6     ecut=    60.00 Ry     beta= 0.20
     Davidson diagonalization with overlap
     ethr =  6.34E-05,  avg # of iterations =  5.8

     negative rho (up, down):  2.145E-03 8.213E-02

     total cpu time spent up to now is     1356.7 secs

     total energy              =  -21093.82218780 Ry
     Harris-Foulkes estimate   =  -21093.82970248 Ry
     estimated scf accuracy    <       0.44080943 Ry

     total magnetization       =   155.24 Bohr mag/cell
     absolute magnetization    =   161.24 Bohr mag/cell

     iteration #  7     ecut=    60.00 Ry     beta= 0.20
     Davidson diagonalization with overlap
     ethr =  4.28E-05,  avg # of iterations =  1.4

     negative rho (up, down):  1.077E-03 4.662E-02

     total cpu time spent up to now is     1496.6 secs

     total energy              =  -21093.79722123 Ry
     Harris-Foulkes estimate   =  -21093.83469865 Ry
     estimated scf accuracy    <       0.25540030 Ry

     total magnetization       =   157.47 Bohr mag/cell
     absolute magnetization    =   163.74 Bohr mag/cell

     iteration #  8     ecut=    60.00 Ry     beta= 0.20
     Davidson diagonalization with overlap
     ethr =  2.48E-05,  avg # of iterations =  4.5

     negative rho (up, down):  2.079E-04 2.050E-02

     total cpu time spent up to now is     1705.0 secs

     total energy              =  -21093.80242346 Ry
     Harris-Foulkes estimate   =  -21093.81697408 Ry
     estimated scf accuracy    <       0.16373620 Ry

     total magnetization       =   159.88 Bohr mag/cell
     absolute magnetization    =   167.04 Bohr mag/cell

     iteration #  9     ecut=    60.00 Ry     beta= 0.20
     Davidson diagonalization with overlap
     ethr =  1.59E-05,  avg # of iterations =  2.8

     negative rho (up, down):  1.452E-04 1.990E-02

     total cpu time spent up to now is     1864.6 secs

     total energy              =  -21093.80105066 Ry
     Harris-Foulkes estimate   =  -21093.81865033 Ry
     estimated scf accuracy    <       0.17178346 Ry

     total magnetization       =   159.95 Bohr mag/cell
     absolute magnetization    =   166.67 Bohr mag/cell

     iteration # 10     ecut=    60.00 Ry     beta= 0.20
     Davidson diagonalization with overlap
     ethr =  1.59E-05,  avg # of iterations =  1.0

     negative rho (up, down):  9.566E-05 1.804E-02

     total cpu time spent up to now is     1993.6 secs

     total energy              =  -21093.79514273 Ry
     Harris-Foulkes estimate   =  -21093.80462552 Ry
     estimated scf accuracy    <       0.13307704 Ry

     total magnetization       =   160.99 Bohr mag/cell
     absolute magnetization    =   167.96 Bohr mag/cell

     iteration # 11     ecut=    60.00 Ry     beta= 0.20
     Davidson diagonalization with overlap
     ethr =  1.29E-05,  avg # of iterations =  1.0

     negative rho (up, down):  6.379E-03 1.843E-02

     total cpu time spent up to now is     2125.7 secs

     total energy              =  -21093.78615215 Ry
     Harris-Foulkes estimate   =  -21093.79710977 Ry
     estimated scf accuracy    <       0.09454163 Ry

     total magnetization       =   161.31 Bohr mag/cell
     absolute magnetization    =   168.34 Bohr mag/cell

     iteration # 12     ecut=    60.00 Ry     beta= 0.20
     Davidson diagonalization with overlap
     ethr =  9.18E-06,  avg # of iterations =  1.6

     negative rho (up, down):  6.783E-02 1.859E-02

     total cpu time spent up to now is     2266.4 secs

     total energy              =  -21093.78162072 Ry
     Harris-Foulkes estimate   =  -21093.78879350 Ry
     estimated scf accuracy    <       0.06985533 Ry

     total magnetization       =   161.58 Bohr mag/cell
     absolute magnetization    =   168.66 Bohr mag/cell

     iteration # 13     ecut=    60.00 Ry     beta= 0.20
     Davidson diagonalization with overlap
     ethr =  6.78E-06,  avg # of iterations =  1.7

     negative rho (up, down):  1.708E-01 1.611E-02

     total cpu time spent up to now is     2427.8 secs

     total energy              =  -21093.77453144 Ry
     Harris-Foulkes estimate   =  -21093.78293101 Ry
     estimated scf accuracy    <       0.05985763 Ry

     total magnetization       =   161.12 Bohr mag/cell
     absolute magnetization    =   167.97 Bohr mag/cell

     iteration # 14     ecut=    60.00 Ry     beta= 0.20
     Davidson diagonalization with overlap
     ethr =  5.81E-06,  avg # of iterations =  6.0

     negative rho (up, down):  1.972E-01 1.648E-02

     total cpu time spent up to now is     2636.0 secs

     total energy              =  -21093.77376937 Ry
     Harris-Foulkes estimate   =  -21093.77635097 Ry
     estimated scf accuracy    <       0.02940066 Ry

     total magnetization       =   161.14 Bohr mag/cell
     absolute magnetization    =   168.05 Bohr mag/cell

     iteration # 15     ecut=    60.00 Ry     beta= 0.20
     Davidson diagonalization with overlap
     ethr =  2.85E-06,  avg # of iterations =  4.7

     negative rho (up, down):  2.161E-01 1.436E-02

     total cpu time spent up to now is     2877.1 secs

     total energy              =  -21093.76970041 Ry
     Harris-Foulkes estimate   =  -21093.77423849 Ry
     estimated scf accuracy    <       0.02269978 Ry

     total magnetization       =   160.86 Bohr mag/cell
     absolute magnetization    =   167.78 Bohr mag/cell

     iteration # 16     ecut=    60.00 Ry     beta= 0.20
     Davidson diagonalization with overlap
     ethr =  2.20E-06,  avg # of iterations =  6.2

     negative rho (up, down):  2.083E-01 1.795E-02

     total cpu time spent up to now is     3103.0 secs

     total energy              =  -21093.76619220 Ry
     Harris-Foulkes estimate   =  -21093.77021007 Ry
     estimated scf accuracy    <       0.01169448 Ry

     total magnetization       =   160.55 Bohr mag/cell
     absolute magnetization    =   167.48 Bohr mag/cell

     iteration # 17     ecut=    60.00 Ry     beta= 0.20
     Davidson diagonalization with overlap
     ethr =  1.14E-06,  avg # of iterations =  3.3

     negative rho (up, down):  1.753E-01 1.827E-02

     total cpu time spent up to now is     3269.8 secs

     total energy              =  -21093.76630925 Ry
     Harris-Foulkes estimate   =  -21093.76687837 Ry
     estimated scf accuracy    <       0.00575668 Ry

     total magnetization       =   160.03 Bohr mag/cell
     absolute magnetization    =   166.96 Bohr mag/cell

     iteration # 18     ecut=    60.00 Ry     beta= 0.20
     Davidson diagonalization with overlap
     ethr =  5.59E-07,  avg # of iterations =  1.0

     negative rho (up, down):  8.607E-02 2.052E-02

     total cpu time spent up to now is     3396.1 secs

     total energy              =  -21093.76584467 Ry
     Harris-Foulkes estimate   =  -21093.76636558 Ry
     estimated scf accuracy    <       0.00380982 Ry

     total magnetization       =   160.02 Bohr mag/cell
     absolute magnetization    =   166.93 Bohr mag/cell

     iteration # 19     ecut=    60.00 Ry     beta= 0.20
     Davidson diagonalization with overlap
     ethr =  3.70E-07,  avg # of iterations =  1.2

     negative rho (up, down):  6.362E-02 1.943E-02

     total cpu time spent up to now is     3534.8 secs

     total energy              =  -21093.76608354 Ry
     Harris-Foulkes estimate   =  -21093.76598138 Ry
     estimated scf accuracy    <       0.00068174 Ry

     total magnetization       =   160.13 Bohr mag/cell
     absolute magnetization    =   167.06 Bohr mag/cell

     iteration # 20     ecut=    60.00 Ry     beta= 0.20
     Davidson diagonalization with overlap
     ethr =  6.62E-08,  avg # of iterations =  3.1

     negative rho (up, down):  4.273E-02 1.893E-02

     total cpu time spent up to now is     3693.1 secs

     total energy              =  -21093.76631082 Ry
     Harris-Foulkes estimate   =  -21093.76614761 Ry
     estimated scf accuracy    <       0.00035322 Ry

     total magnetization       =   160.27 Bohr mag/cell
     absolute magnetization    =   167.22 Bohr mag/cell

     iteration # 21     ecut=    60.00 Ry     beta= 0.20
     Davidson diagonalization with overlap
     ethr =  3.43E-08,  avg # of iterations =  1.2

     negative rho (up, down):  2.895E-02 1.843E-02

     total cpu time spent up to now is     3829.1 secs

     total energy              =  -21093.76639757 Ry
     Harris-Foulkes estimate   =  -21093.76632451 Ry
     estimated scf accuracy    <       0.00013899 Ry

     total magnetization       =   160.33 Bohr mag/cell
     absolute magnetization    =   167.27 Bohr mag/cell

     iteration # 22     ecut=    60.00 Ry     beta= 0.20
     Davidson diagonalization with overlap
     ethr =  1.35E-08,  avg # of iterations =  2.5

     negative rho (up, down):  2.645E-02 1.816E-02

     total cpu time spent up to now is     3979.3 secs

     total energy              =  -21093.76641687 Ry
     Harris-Foulkes estimate   =  -21093.76640698 Ry
     estimated scf accuracy    <       0.00002356 Ry

     total magnetization       =   160.35 Bohr mag/cell
     absolute magnetization    =   167.28 Bohr mag/cell

     iteration # 23     ecut=    60.00 Ry     beta= 0.20
     Davidson diagonalization with overlap
     ethr =  2.29E-09,  avg # of iterations =  3.0

     negative rho (up, down):  2.566E-02 1.808E-02

     total cpu time spent up to now is     4196.7 secs

     total energy              =  -21093.76642645 Ry
     Harris-Foulkes estimate   =  -21093.76642121 Ry
     estimated scf accuracy    <       0.00000888 Ry

     total magnetization       =   160.35 Bohr mag/cell
     absolute magnetization    =   167.28 Bohr mag/cell

     iteration # 24     ecut=    60.00 Ry     beta= 0.20
     Davidson diagonalization with overlap
     ethr =  8.62E-10,  avg # of iterations =  2.1

     negative rho (up, down):  2.523E-02 1.806E-02

     total cpu time spent up to now is     4340.6 secs

     total energy              =  -21093.76642981 Ry
     Harris-Foulkes estimate   =  -21093.76642687 Ry
     estimated scf accuracy    <       0.00000516 Ry

     total magnetization       =   160.36 Bohr mag/cell
     absolute magnetization    =   167.29 Bohr mag/cell

     iteration # 25     ecut=    60.00 Ry     beta= 0.20
     Davidson diagonalization with overlap
     ethr =  5.01E-10,  avg # of iterations =  2.1

     negative rho (up, down):  2.526E-02 1.809E-02

     total cpu time spent up to now is     4486.3 secs

     total energy              =  -21093.76643194 Ry
     Harris-Foulkes estimate   =  -21093.76643025 Ry
     estimated scf accuracy    <       0.00000227 Ry

     total magnetization       =   160.37 Bohr mag/cell
     absolute magnetization    =   167.31 Bohr mag/cell

     iteration # 26     ecut=    60.00 Ry     beta= 0.20
     Davidson diagonalization with overlap
     ethr =  2.20E-10,  avg # of iterations =  2.9

     negative rho (up, down):  2.531E-02 1.811E-02

     total cpu time spent up to now is     4652.0 secs

     total energy              =  -21093.76643297 Ry
     Harris-Foulkes estimate   =  -21093.76643226 Ry
     estimated scf accuracy    <       0.00000078 Ry

     total magnetization       =   160.38 Bohr mag/cell
     absolute magnetization    =   167.31 Bohr mag/cell

     iteration # 27     ecut=    60.00 Ry     beta= 0.20
     Davidson diagonalization with overlap
     ethr =  7.54E-11,  avg # of iterations =  3.0

     negative rho (up, down):  2.535E-02 1.809E-02

     total cpu time spent up to now is     4831.8 secs

     total energy              =  -21093.76643347 Ry
     Harris-Foulkes estimate   =  -21093.76643310 Ry
     estimated scf accuracy    <       0.00000033 Ry

     total magnetization       =   160.38 Bohr mag/cell
     absolute magnetization    =   167.32 Bohr mag/cell

     iteration # 28     ecut=    60.00 Ry     beta= 0.20
     Davidson diagonalization with overlap
     ethr =  3.22E-11,  avg # of iterations =  3.0

     negative rho (up, down):  2.536E-02 1.808E-02

     total cpu time spent up to now is     4978.4 secs

     total energy              =  -21093.76643373 Ry
     Harris-Foulkes estimate   =  -21093.76643350 Ry
     estimated scf accuracy    <       0.00000015 Ry

     total magnetization       =   160.38 Bohr mag/cell
     absolute magnetization    =   167.32 Bohr mag/cell

     iteration # 29     ecut=    60.00 Ry     beta= 0.20
     Davidson diagonalization with overlap
     ethr =  1.44E-11,  avg # of iterations =  3.0

     negative rho (up, down):  2.537E-02 1.807E-02

     total cpu time spent up to now is     5148.6 secs

     total energy              =  -21093.76643389 Ry
     Harris-Foulkes estimate   =  -21093.76643377 Ry
     estimated scf accuracy    <       0.00000007 Ry

     total magnetization       =   160.38 Bohr mag/cell
     absolute magnetization    =   167.32 Bohr mag/cell

     iteration # 30     ecut=    60.00 Ry     beta= 0.20
     Davidson diagonalization with overlap
     ethr =  7.11E-12,  avg # of iterations =  3.0

     negative rho (up, down):  2.540E-02 1.806E-02

     total cpu time spent up to now is     5327.4 secs

     total energy              =  -21093.76643399 Ry
     Harris-Foulkes estimate   =  -21093.76643391 Ry
     estimated scf accuracy    <       0.00000003 Ry

     total magnetization       =   160.39 Bohr mag/cell
     absolute magnetization    =   167.33 Bohr mag/cell

     iteration # 31     ecut=    60.00 Ry     beta= 0.20
     Davidson diagonalization with overlap
     ethr =  2.89E-12,  avg # of iterations =  3.0

     negative rho (up, down):  2.542E-02 1.806E-02

     total cpu time spent up to now is     5509.6 secs

     total energy              =  -21093.76643405 Ry
     Harris-Foulkes estimate   =  -21093.76643399 Ry
     estimated scf accuracy    <       0.00000001 Ry

     total magnetization       =   160.39 Bohr mag/cell
     absolute magnetization    =   167.33 Bohr mag/cell

     iteration # 32     ecut=    60.00 Ry     beta= 0.20
     Davidson diagonalization with overlap
     ethr =  1.35E-12,  avg # of iterations =  2.9

     negative rho (up, down):  2.552E-02 1.804E-02

     Magnetic moment per site:
     atom:    1    charge:   12.4651    magn:    2.3281    constr:    0.0000
     atom:    2    charge:   12.4535    magn:    2.1384    constr:    0.0000
     atom:    3    charge:   12.4637    magn:    2.3279    constr:    0.0000
     atom:    4    charge:   12.4516    magn:    2.1765    constr:    0.0000
     atom:    5    charge:   12.4548    magn:    2.1825    constr:    0.0000
     atom:    6    charge:   12.4577    magn:    2.1834    constr:    0.0000
     atom:    7    charge:   12.4522    magn:    2.2284    constr:    0.0000
     atom:    8    charge:   12.4615    magn:    2.3315    constr:    0.0000
     atom:    9    charge:   12.4650    magn:    2.3217    constr:    0.0000
     atom:   10    charge:   12.4649    magn:    2.3257    constr:    0.0000
     atom:   11    charge:   12.4525    magn:    2.1838    constr:    0.0000
     atom:   12    charge:   12.4531    magn:    2.1729    constr:    0.0000
     atom:   13    charge:   12.4521    magn:    2.1796    constr:    0.0000
     atom:   14    charge:   12.4544    magn:    2.1509    constr:    0.0000
     atom:   15    charge:   12.4655    magn:    2.3091    constr:    0.0000
     atom:   16    charge:   12.4620    magn:    2.2176    constr:    0.0000
     atom:   17    charge:   12.4643    magn:    2.3281    constr:    0.0000
     atom:   18    charge:   12.4515    magn:    2.1764    constr:    0.0000
     atom:   19    charge:   12.4644    magn:    2.3292    constr:    0.0000
     atom:   20    charge:   12.4518    magn:    2.1966    constr:    0.0000
     atom:   21    charge:   12.4520    magn:    2.2281    constr:    0.0000
     atom:   22    charge:   12.4616    magn:    2.3322    constr:    0.0000
     atom:   23    charge:   12.4522    magn:    2.2252    constr:    0.0000
     atom:   24    charge:   12.4673    magn:    1.6065    constr:    0.0000
     atom:   25    charge:   12.4635    magn:    2.3348    constr:    0.0000
     atom:   26    charge:   12.4649    magn:    2.3289    constr:    0.0000
     atom:   27    charge:   12.4510    magn:    2.1940    constr:    0.0000
     atom:   28    charge:   12.4524    magn:    2.1799    constr:    0.0000
     atom:   29    charge:   12.4529    magn:    2.2558    constr:    0.0000
     atom:   30    charge:   12.4541    magn:    2.0401    constr:    0.0000
     atom:   31    charge:   12.4580    magn:    2.1137    constr:    0.0000
     atom:   32    charge:   12.4650    magn:    2.3075    constr:    0.0000
     atom:   33    charge:   12.4649    magn:    2.3291    constr:    0.0000
     atom:   34    charge:   12.4515    magn:    2.1721    constr:    0.0000
     atom:   35    charge:   12.4648    magn:    2.3280    constr:    0.0000
     atom:   36    charge:   12.4536    magn:    2.1386    constr:    0.0000
     atom:   37    charge:   12.4546    magn:    2.1711    constr:    0.0000
     atom:   38    charge:   12.4623    magn:    2.3231    constr:    0.0000
     atom:   39    charge:   12.4546    magn:    2.1825    constr:    0.0000
     atom:   40    charge:   12.4588    magn:    2.1759    constr:    0.0000
     atom:   41    charge:   12.4655    magn:    2.3302    constr:    0.0000
     atom:   42    charge:   12.4636    magn:    2.3287    constr:    0.0000
     atom:   43    charge:   12.4529    magn:    2.1727    constr:    0.0000
     atom:   44    charge:   12.4517    magn:    2.1798    constr:    0.0000
     atom:   45    charge:   12.4550    magn:    2.1290    constr:    0.0000
     atom:   46    charge:   12.4542    magn:    2.0399    constr:    0.0000
     atom:   47    charge:   12.4649    magn:    2.3281    constr:    0.0000
     atom:   48    charge:   12.4650    magn:    2.3077    constr:    0.0000
     atom:   49    charge:   12.4638    magn:    2.3289    constr:    0.0000
     atom:   50    charge:   12.4507    magn:    2.1969    constr:    0.0000
     atom:   51    charge:   12.4651    magn:    2.3292    constr:    0.0000
     atom:   52    charge:   12.4515    magn:    2.1721    constr:    0.0000
     atom:   53    charge:   12.4524    magn:    2.2256    constr:    0.0000
     atom:   54    charge:   12.4673    magn:    1.6064    constr:    0.0000
     atom:   55    charge:   12.4548    magn:    2.1713    constr:    0.0000
     atom:   56    charge:   12.4623    magn:    2.3227    constr:    0.0000
     atom:   57    charge:   12.4650    magn:    2.3217    constr:    0.0000
     atom:   58    charge:   12.4648    magn:    2.3260    constr:    0.0000
     atom:   59    charge:   12.4518    magn:    2.1837    constr:    0.0000
     atom:   60    charge:   12.4510    magn:    2.1947    constr:    0.0000
     atom:   61    charge:   12.4521    magn:    2.1796    constr:    0.0000
     atom:   62    charge:   12.4547    magn:    2.1588    constr:    0.0000
     atom:   63    charge:   12.4656    magn:    2.3097    constr:    0.0000
     atom:   64    charge:   12.4578    magn:    2.1193    constr:    0.0000
     atom:   65    charge:    3.7367    magn:   -0.1332    constr:    0.0000
     atom:   66    charge:    0.9561    magn:   -0.0234    constr:    0.0000

     total cpu time spent up to now is     5658.1 secs

     End of self-consistent calculation

 ------ SPIN UP ------------


          k = 0.0000 0.0000 0.0000 (128403 PWs)   bands (ev):

   -86.0019 -85.9506 -85.9441 -85.9112 -85.9099 -85.9023 -85.8978 -85.8966
   -85.8937 -85.8909 -85.8902 -85.8887 -85.8849 -85.8826 -85.8824 -85.8803
   -85.8799 -85.8796 -85.8771 -85.8754 -85.8740 -85.8682 -85.8675 -85.8659
   -85.8646 -85.8633 -85.8621 -85.8591 -85.8554 -85.8476 -85.8322 -85.8303
   -85.8295 -85.8255 -85.8227 -85.7800 -85.7703 -85.7694 -85.7609 -85.7602
   -85.7564 -85.7526 -85.7526 -85.7463 -85.7432 -85.7426 -85.7412 -85.7392
   -85.7373 -85.7367 -85.7342 -85.7314 -85.7306 -85.7284 -85.7283 -85.7283
   -85.7214 -85.7196 -85.7151 -85.7131 -85.7089 -85.6983 -85.6907 -85.6895
   -52.1795 -52.1296 -52.1127 -52.1065 -52.1057 -52.1038 -52.1028 -52.0988
   -52.0917 -52.0869 -52.0849 -52.0837 -52.0818 -52.0810 -52.0784 -52.0766
   -52.0742 -52.0706 -52.0703 -52.0682 -52.0677 -52.0666 -52.0633 -52.0611
   -52.0605 -52.0562 -52.0550 -52.0537 -52.0498 -52.0470 -52.0451 -52.0428
   -52.0356 -52.0341 -52.0331 -52.0310 -52.0233 -52.0208 -52.0192 -52.0166
   -52.0161 -52.0041 -51.9960 -51.9936 -51.9931 -51.9914 -51.9877 -51.9798
   -51.9762 -51.9725 -51.9620 -51.9567 -51.9519 -51.9468 -51.9402 -51.9388
   -51.9363 -51.9353 -51.9338 -51.9323 -51.9256 -51.9235 -51.9227 -51.9211
   -51.9202 -51.9156 -51.9148 -51.9114 -51.9112 -51.9096 -51.9043 -51.9010
   -51.9003 -51.8954 -51.8891 -51.8828 -51.8807 -51.8803 -51.8792 -51.8736
   -51.8722 -51.8716 -51.8685 -51.8626 -51.8625 -51.8599 -51.8584 -51.8582
   -51.8563 -51.8548 -51.8540 -51.8513 -51.8504 -51.8481 -51.8476 -51.8474
   -51.8461 -51.8449 -51.8422 -51.8406 -51.8373 -51.8360 -51.8339 -51.8311
   -51.8285 -51.8273 -51.8229 -51.8204 -51.8189 -51.8152 -51.8139 -51.8135
   -51.8099 -51.8034 -51.8030 -51.8011 -51.7988 -51.7949 -51.7938 -51.7929
   -51.7908 -51.7889 -51.7881 -51.7849 -51.7848 -51.7789 -51.7785 -51.7759
   -51.7757 -51.7744 -51.7717 -51.7706 -51.7694 -51.7674 -51.7668 -51.7635
   -51.7569 -51.7557 -51.7512 -51.7498 -51.7446 -51.7427 -51.7408 -51.7385
   -51.7383 -51.7365 -51.7358 -51.7314 -51.7271 -51.7251 -51.7232 -51.7226
   -51.7218 -51.7213 -51.7212 -51.7152 -51.7141 -51.7132 -51.7095 -51.7029
   -51.7027 -51.7023 -51.7012 -51.6999 -51.6984 -51.6962 -51.6900 -51.6883
   -51.6859 -51.6831 -51.6791 -51.6734 -51.6720 -51.6684 -51.6668 -51.6639
   -51.6612 -51.6549 -51.6504 -51.6493 -51.6475 -51.6456 -51.6448 -51.6443
   -51.6371 -51.6364 -51.6346 -51.6321 -51.6298 -51.6269 -51.5558 -51.5549
   -13.3312  -5.6901  -4.7127  -4.3694  -4.3219  -4.1427  -3.9947  -3.8962
    -3.8212  -3.8051  -3.5503  -3.4835  -3.2157  -3.0152  -2.9360  -2.8782
    -2.8542  -2.6900  -2.5872  -2.5525  -2.4359  -2.3867  -2.3571  -2.3507
    -2.3254  -2.2892  -2.2842  -2.2604  -2.2048  -2.1191  -1.9714  -1.9274
    -1.8924  -1.8819  -1.8639  -1.8378  -1.8241  -1.8229  -1.8132  -1.8007
    -1.7929  -1.7927  -1.7862  -1.7797  -1.7744  -1.7675  -1.7667  -1.7532
    -1.7310  -1.7255  -1.7246  -1.7224  -1.7024  -1.6976  -1.6761  -1.6548
    -1.6541  -1.6168  -1.6067  -1.5425  -1.5403  -1.5291  -1.5226  -1.4556
    -1.4530  -1.3639  -1.2787  -1.2622  -1.2407  -1.2176  -1.2095  -1.2046
    -1.1952  -1.1708  -1.1314  -1.0650  -1.0554  -1.0520  -1.0457  -1.0410
    -1.0298  -1.0297  -1.0268  -1.0070  -0.9942  -0.9910  -0.9891  -0.9865
    -0.9838  -0.9693  -0.9597  -0.9564  -0.9459  -0.9453  -0.9386  -0.9282
    -0.9082  -0.9076  -0.8972  -0.8892  -0.8889  -0.8837  -0.8784  -0.8724
    -0.8631  -0.8585  -0.8457  -0.8391  -0.8255  -0.8112  -0.7509  -0.7447
    -0.7408  -0.6793  -0.6759  -0.6756  -0.6682  -0.6364  -0.6064  -0.5895
    -0.5747  -0.5517  -0.5098  -0.4845  -0.4719  -0.4618  -0.4527  -0.4511
    -0.4445  -0.4429  -0.4280  -0.4157  -0.3838  -0.3736  -0.3509  -0.3498
    -0.3420  -0.3384  -0.3323  -0.3232  -0.3142  -0.3126  -0.3100  -0.3025
    -0.2822  -0.2550  -0.2340  -0.2019  -0.1898  -0.1558  -0.1547  -0.1509
    -0.1487  -0.1458  -0.1287  -0.1173  -0.1038  -0.0933  -0.0829  -0.0611
    -0.0397  -0.0253  -0.0233  -0.0209  -0.0169  -0.0153  -0.0150  -0.0036
     0.0037   0.0500   0.0635   0.0753   0.0845   0.0960   0.1053   0.1070
     0.1089   0.1276   0.1287   0.1326   0.1358   0.1424   0.1504   0.1629
     0.1815   0.2135   0.2307   0.2516   0.3680   0.3785   0.4871   0.5036
     0.6169   0.6317   0.6419   0.6449   0.6484   0.6573   0.6652   0.6687
     0.6773   0.6841   0.6981   0.7024   0.7034   0.7186   0.7482   0.7602
     0.7737   0.7888   0.7918   0.8077   0.8077   0.8155   0.8306   0.8388
     0.8435   0.8495   0.8594   0.8625   0.8708   0.8790   0.8875   0.8926
     0.9005   0.9138   0.9221   0.9316   0.9564   0.9697   0.9711   0.9715
     0.9877   0.9903   0.9964   0.9981   1.0008   1.0211   1.0231   1.0266
     1.0315   1.0322   1.0439   1.0500   1.0501   1.0582   1.0709   1.0754
     1.0772   1.0786   1.0851   1.0874   1.0892   1.0908   1.0989   1.1025
     1.1047   1.1071   1.1200   1.1212   1.1360   1.1389   1.1398   1.1491
     1.1528   1.1651   1.1720   1.1816   1.1847   1.1885   1.1900   1.1962
     1.2006   1.2010   1.2082   1.2108   1.2301   1.2335   1.2547   1.2594
     1.2726   1.2885   1.2970   1.3015   1.3077   1.3104   1.3196   1.3239
     1.3307   1.3381   1.3544   1.3571   1.4141   1.4384   1.4541   1.4554
     1.4624   1.4625   1.4684   1.4702   1.4737   1.4883   1.5031   1.5037
     1.5060   1.5208   1.5228   1.5303   1.5367   1.5394   1.5644   1.5683
     1.5704   1.6202   1.6323   1.8022   1.9014   1.9051   1.9468   1.9600
     1.9642   1.9875   2.0534   2.0587   2.0808   2.1137   2.1240   2.1269
     2.1455   2.2020   2.2032   2.2036   2.2377   2.2576   2.2697   2.2784
     2.2949   2.3082   2.3405   2.3972   2.4223   2.4376   2.4759   2.5289
     2.5459   2.7673   2.8847   2.9707   3.1642   3.2636   3.2801   3.2876
     3.3346   3.6288   3.8300   3.8786   3.9632   4.1003   4.1156   4.1357
     4.1510   4.1862

          k = 0.0000 0.2652 0.0000 (128375 PWs)   bands (ev):

   -86.0019 -85.9506 -85.9441 -85.9101 -85.9093 -85.9034 -85.9000 -85.8975
   -85.8925 -85.8906 -85.8897 -85.8860 -85.8858 -85.8849 -85.8836 -85.8814
   -85.8800 -85.8779 -85.8750 -85.8739 -85.8734 -85.8703 -85.8668 -85.8663
   -85.8653 -85.8632 -85.8625 -85.8588 -85.8542 -85.8484 -85.8321 -85.8303
   -85.8297 -85.8254 -85.8227 -85.7791 -85.7734 -85.7664 -85.7635 -85.7590
   -85.7557 -85.7545 -85.7503 -85.7457 -85.7435 -85.7426 -85.7418 -85.7394
   -85.7376 -85.7369 -85.7340 -85.7324 -85.7303 -85.7284 -85.7279 -85.7263
   -85.7219 -85.7205 -85.7163 -85.7129 -85.7070 -85.6990 -85.6906 -85.6897
   -52.1794 -52.1271 -52.1140 -52.1088 -52.1060 -52.1039 -52.1016 -52.0981
   -52.0912 -52.0897 -52.0841 -52.0824 -52.0804 -52.0799 -52.0792 -52.0753
   -52.0731 -52.0716 -52.0701 -52.0691 -52.0660 -52.0638 -52.0626 -52.0609
   -52.0596 -52.0566 -52.0555 -52.0530 -52.0496 -52.0470 -52.0450 -52.0418
   -52.0387 -52.0351 -52.0293 -52.0257 -52.0214 -52.0185 -52.0170 -52.0132
   -52.0072 -52.0037 -52.0010 -51.9936 -51.9910 -51.9869 -51.9852 -51.9802
   -51.9783 -51.9675 -51.9652 -51.9587 -51.9553 -51.9490 -51.9465 -51.9432
   -51.9394 -51.9376 -51.9339 -51.9301 -51.9292 -51.9283 -51.9221 -51.9198
   -51.9175 -51.9156 -51.9139 -51.9129 -51.9113 -51.9085 -51.9078 -51.9075
   -51.9041 -51.9025 -51.8996 -51.8963 -51.8922 -51.8873 -51.8854 -51.8821
   -51.8814 -51.8775 -51.8768 -51.8717 -51.8683 -51.8637 -51.8626 -51.8616
   -51.8601 -51.8570 -51.8551 -51.8498 -51.8487 -51.8458 -51.8435 -51.8420
   -51.8400 -51.8364 -51.8345 -51.8337 -51.8320 -51.8282 -51.8261 -51.8245
   -51.8228 -51.8206 -51.8191 -51.8177 -51.8165 -51.8149 -51.8134 -51.8112
   -51.8099 -51.8078 -51.8056 -51.8031 -51.7997 -51.7983 -51.7958 -51.7934
   -51.7919 -51.7875 -51.7862 -51.7822 -51.7807 -51.7781 -51.7767 -51.7746
   -51.7735 -51.7713 -51.7687 -51.7650 -51.7635 -51.7628 -51.7609 -51.7578
   -51.7547 -51.7518 -51.7487 -51.7454 -51.7436 -51.7418 -51.7398 -51.7386
   -51.7365 -51.7356 -51.7334 -51.7295 -51.7275 -51.7265 -51.7235 -51.7219
   -51.7217 -51.7174 -51.7165 -51.7155 -51.7135 -51.7130 -51.7100 -51.7083
   -51.7047 -51.7024 -51.7011 -51.7001 -51.6980 -51.6931 -51.6909 -51.6864
   -51.6818 -51.6808 -51.6787 -51.6742 -51.6716 -51.6690 -51.6665 -51.6642
   -51.6618 -51.6585 -51.6545 -51.6530 -51.6508 -51.6496 -51.6467 -51.6448
   -51.6421 -51.6397 -51.6387 -51.6346 -51.6308 -51.6282 -51.5563 -51.5553
   -13.3312  -5.5844  -4.8391  -4.5416  -4.3427  -4.1632  -4.0552  -3.9795
    -3.7866  -3.6196  -3.4389  -3.3045  -3.1837  -3.0334  -2.9292  -2.8634
    -2.7173  -2.6618  -2.6150  -2.5188  -2.4481  -2.3982  -2.3564  -2.3042
    -2.2948  -2.2742  -2.2516  -2.2363  -2.1898  -2.1500  -2.0700  -2.0088
    -1.9777  -1.9569  -1.9321  -1.9262  -1.9131  -1.9084  -1.8874  -1.8794
    -1.8635  -1.8385  -1.8318  -1.8157  -1.8058  -1.7805  -1.7670  -1.7519
    -1.7306  -1.7249  -1.7101  -1.7023  -1.6934  -1.6551  -1.6380  -1.6329
    -1.6288  -1.6217  -1.5949  -1.5573  -1.5061  -1.4930  -1.4604  -1.4492
    -1.4065  -1.3895  -1.3496  -1.3281  -1.2967  -1.2622  -1.2305  -1.1845
    -1.1644  -1.1548  -1.1313  -1.1030  -1.0684  -1.0605  -1.0459  -1.0418
    -1.0321  -1.0207  -1.0174  -1.0049  -0.9971  -0.9917  -0.9810  -0.9679
    -0.9593  -0.9518  -0.9429  -0.9410  -0.9260  -0.9230  -0.9142  -0.9095
    -0.9016  -0.8963  -0.8943  -0.8853  -0.8826  -0.8590  -0.8544  -0.8260
    -0.8051  -0.8002  -0.7952  -0.7835  -0.7799  -0.7703  -0.7520  -0.7414
    -0.7304  -0.7192  -0.7128  -0.6603  -0.6352  -0.6187  -0.6115  -0.5984
    -0.5760  -0.5604  -0.5456  -0.5244  -0.5054  -0.4819  -0.4535  -0.4462
    -0.4400  -0.4251  -0.4162  -0.4114  -0.4072  -0.3912  -0.3853  -0.3797
    -0.3593  -0.3543  -0.3421  -0.3325  -0.3274  -0.3191  -0.3074  -0.2947
    -0.2771  -0.2604  -0.2292  -0.2153  -0.2027  -0.1747  -0.1690  -0.1665
    -0.1561  -0.1395  -0.1315  -0.1266  -0.1240  -0.1144  -0.1069  -0.0978
    -0.0891  -0.0838  -0.0713  -0.0631  -0.0424  -0.0366   0.0014   0.0173
     0.0322   0.0421   0.0470   0.0602   0.0827   0.0923   0.1167   0.1265
     0.1388   0.1462   0.1606   0.1897   0.1993   0.2164   0.2491   0.2565
     0.2714   0.3082   0.3249   0.3397   0.3846   0.4790   0.4929   0.5263
     0.5385   0.5503   0.5730   0.5952   0.6084   0.6146   0.6319   0.6548
     0.6693   0.6800   0.6910   0.6952   0.7079   0.7133   0.7249   0.7293
     0.7409   0.7610   0.7649   0.7783   0.7914   0.8013   0.8102   0.8350
     0.8407   0.8484   0.8540   0.8700   0.8764   0.8898   0.8979   0.8994
     0.9039   0.9111   0.9257   0.9501   0.9568   0.9638   0.9683   0.9846
     0.9855   0.9919   0.9968   1.0056   1.0112   1.0157   1.0180   1.0251
     1.0299   1.0393   1.0491   1.0522   1.0636   1.0712   1.0762   1.0834
     1.0883   1.0907   1.0990   1.1076   1.1130   1.1163   1.1194   1.1275
     1.1321   1.1386   1.1466   1.1521   1.1625   1.1695   1.1720   1.1760
     1.1845   1.1869   1.1904   1.1946   1.1971   1.2041   1.2075   1.2195
     1.2239   1.2283   1.2371   1.2477   1.2590   1.2638   1.2792   1.2822
     1.2926   1.3205   1.3269   1.3320   1.3410   1.3468   1.3532   1.3672
     1.3727   1.3830   1.3896   1.3950   1.4037   1.4059   1.4234   1.4392
     1.4552   1.4605   1.4640   1.4708   1.4788   1.4923   1.4993   1.5023
     1.5127   1.5200   1.5397   1.5538   1.5719   1.6061   1.6183   1.6479
     1.6608   1.6782   1.7792   1.8252   1.8469   1.8684   1.8990   1.9173
     1.9285   1.9522   1.9767   2.0024   2.0154   2.0478   2.0569   2.0654
     2.0800   2.0967   2.1106   2.1190   2.1348   2.1426   2.1690   2.1817
     2.1998   2.2468   2.2702   2.2925   2.3257   2.3797   2.4743   2.6674
     2.7362   2.8114   2.8716   2.9219   3.0404   3.1683   3.2541   3.3114
     3.5069   3.5378   3.5658   3.5927   3.7043   3.7986   3.9160   3.9996
     4.0512   4.1193

          k = 0.0000-0.5303 0.0000 (128388 PWs)   bands (ev):

   -86.0019 -85.9506 -85.9441 -85.9085 -85.9081 -85.9048 -85.9035 -85.8974
   -85.8914 -85.8889 -85.8887 -85.8878 -85.8870 -85.8859 -85.8847 -85.8811
   -85.8794 -85.8762 -85.8749 -85.8729 -85.8716 -85.8710 -85.8686 -85.8669
   -85.8659 -85.8632 -85.8613 -85.8598 -85.8522 -85.8498 -85.8320 -85.8304
   -85.8298 -85.8254 -85.8226 -85.7769 -85.7765 -85.7648 -85.7634 -85.7602
   -85.7573 -85.7537 -85.7474 -85.7451 -85.7440 -85.7435 -85.7428 -85.7395
   -85.7381 -85.7369 -85.7341 -85.7321 -85.7298 -85.7287 -85.7279 -85.7242
   -85.7234 -85.7206 -85.7176 -85.7128 -85.7050 -85.7000 -85.6903 -85.6901
   -52.1793 -52.1220 -52.1190 -52.1098 -52.1054 -52.1044 -52.1006 -52.0968
   -52.0933 -52.0899 -52.0844 -52.0816 -52.0793 -52.0782 -52.0772 -52.0757
   -52.0725 -52.0715 -52.0705 -52.0686 -52.0650 -52.0626 -52.0616 -52.0606
   -52.0580 -52.0565 -52.0550 -52.0543 -52.0484 -52.0476 -52.0455 -52.0406
   -52.0393 -52.0365 -52.0283 -52.0213 -52.0176 -52.0120 -52.0100 -52.0066
   -52.0063 -52.0040 -52.0020 -52.0001 -51.9905 -51.9834 -51.9786 -51.9765
   -51.9702 -51.9685 -51.9676 -51.9640 -51.9616 -51.9527 -51.9504 -51.9498
   -51.9487 -51.9437 -51.9406 -51.9318 -51.9306 -51.9281 -51.9252 -51.9234
   -51.9197 -51.9157 -51.9147 -51.9125 -51.9111 -51.9096 -51.9078 -51.9064
   -51.9047 -51.8992 -51.8984 -51.8955 -51.8948 -51.8936 -51.8913 -51.8900
   -51.8844 -51.8833 -51.8814 -51.8787 -51.8771 -51.8747 -51.8714 -51.8681
   -51.8649 -51.8629 -51.8580 -51.8525 -51.8484 -51.8462 -51.8429 -51.8400
   -51.8353 -51.8349 -51.8336 -51.8324 -51.8300 -51.8273 -51.8236 -51.8227
   -51.8217 -51.8195 -51.8152 -51.8137 -51.8123 -51.8118 -51.8077 -51.8070
   -51.8041 -51.8000 -51.7986 -51.7970 -51.7957 -51.7935 -51.7906 -51.7893
   -51.7876 -51.7841 -51.7834 -51.7824 -51.7791 -51.7785 -51.7766 -51.7751
   -51.7729 -51.7709 -51.7681 -51.7649 -51.7632 -51.7598 -51.7571 -51.7559
   -51.7545 -51.7525 -51.7480 -51.7471 -51.7440 -51.7433 -51.7419 -51.7377
   -51.7372 -51.7297 -51.7293 -51.7276 -51.7266 -51.7240 -51.7223 -51.7216
   -51.7210 -51.7190 -51.7174 -51.7159 -51.7148 -51.7125 -51.7081 -51.7051
   -51.7025 -51.7019 -51.6998 -51.6971 -51.6925 -51.6901 -51.6881 -51.6842
   -51.6798 -51.6790 -51.6758 -51.6722 -51.6708 -51.6676 -51.6670 -51.6657
   -51.6641 -51.6631 -51.6599 -51.6589 -51.6574 -51.6549 -51.6540 -51.6480
   -51.6462 -51.6440 -51.6417 -51.6353 -51.6312 -51.6290 -51.5568 -51.5557
   -13.3311  -5.3475  -5.1810  -4.5928  -4.3401  -4.1330  -4.0561  -3.9238
    -3.9007  -3.5859  -3.4581  -3.1547  -3.1189  -2.9470  -2.8883  -2.6842
    -2.6501  -2.5911  -2.5729  -2.5197  -2.4815  -2.4142  -2.3643  -2.3424
    -2.3152  -2.2288  -2.2127  -2.1661  -2.1644  -2.1549  -2.1418  -2.1283
    -2.1208  -2.1024  -2.0976  -2.0645  -2.0598  -1.9911  -1.9516  -1.9350
    -1.8616  -1.8352  -1.8026  -1.7917  -1.7846  -1.7562  -1.7531  -1.6994
    -1.6978  -1.6913  -1.6840  -1.6814  -1.6709  -1.6651  -1.6622  -1.6378
    -1.6142  -1.5683  -1.5598  -1.5309  -1.5162  -1.5103  -1.4676  -1.4498
    -1.4352  -1.4145  -1.3768  -1.3667  -1.3277  -1.3069  -1.2848  -1.2734
    -1.2538  -1.1688  -1.1356  -1.0783  -1.0720  -1.0450  -1.0405  -1.0367
    -1.0316  -1.0218  -0.9971  -0.9913  -0.9854  -0.9773  -0.9669  -0.9628
    -0.9569  -0.9463  -0.9355  -0.9325  -0.9274  -0.9224  -0.9118  -0.8910
    -0.8776  -0.8592  -0.8401  -0.8303  -0.8270  -0.7994  -0.7885  -0.7817
    -0.7723  -0.7600  -0.7519  -0.7467  -0.7403  -0.7376  -0.7336  -0.7200
    -0.7147  -0.7033  -0.6983  -0.6853  -0.6808  -0.6712  -0.6520  -0.6405
    -0.6237  -0.5554  -0.5299  -0.4940  -0.4703  -0.4483  -0.4387  -0.4313
    -0.4211  -0.4122  -0.4112  -0.4041  -0.4007  -0.3951  -0.3800  -0.3779
    -0.3714  -0.3670  -0.3648  -0.3616  -0.3608  -0.3529  -0.3383  -0.3177
    -0.3129  -0.2935  -0.2788  -0.2787  -0.2545  -0.2504  -0.2310  -0.2224
    -0.2077  -0.2074  -0.2008  -0.1729  -0.1673  -0.1470  -0.1454  -0.1394
    -0.1121  -0.1063  -0.0840  -0.0491  -0.0442  -0.0084   0.0162   0.0346
     0.0701   0.0809   0.0870   0.0986   0.1085   0.1171   0.1212   0.1387
     0.1442   0.2350   0.2423   0.3193   0.3440   0.3504   0.3588   0.3859
     0.4056   0.4078   0.4304   0.4377   0.4659   0.4687   0.5166   0.5209
     0.5225   0.5414   0.5490   0.5594   0.5620   0.5707   0.5785   0.6065
     0.6111   0.6143   0.6275   0.6312   0.6856   0.7146   0.7182   0.7211
     0.7416   0.7478   0.7548   0.7641   0.7814   0.7916   0.8030   0.8060
     0.8130   0.8365   0.8610   0.8686   0.8721   0.8825   0.8865   0.8883
     0.9042   0.9072   0.9076   0.9129   0.9141   0.9220   0.9247   0.9298
     0.9302   0.9411   0.9490   0.9727   0.9835   1.0181   1.0288   1.0431
     1.0540   1.0567   1.0599   1.0631   1.0665   1.0761   1.0820   1.0864
     1.0895   1.1092   1.1102   1.1170   1.1187   1.1264   1.1321   1.1361
     1.1428   1.1460   1.1533   1.1631   1.1731   1.1739   1.1799   1.1841
     1.2024   1.2206   1.2270   1.2330   1.2359   1.2444   1.2581   1.2648
     1.2799   1.2828   1.2931   1.2969   1.3016   1.3110   1.3162   1.3304
     1.3404   1.3435   1.3462   1.3486   1.3534   1.3599   1.3624   1.3679
     1.3728   1.3744   1.3897   1.3972   1.4031   1.4110   1.4183   1.4201
     1.4437   1.4612   1.4785   1.4852   1.5559   1.5583   1.5620   1.5879
     1.5998   1.6210   1.6427   1.6664   1.6827   1.7322   1.7483   1.7576
     1.7679   1.7770   1.7838   1.7908   1.8115   1.8450   1.8511   1.8612
     1.8655   1.8818   1.9070   1.9105   1.9242   1.9367   2.0022   2.0081
     2.0304   2.0444   2.0465   2.0681   2.0785   2.1065   2.1250   2.1327
     2.1388   2.1421   2.1695   2.1800   2.1873   2.1925   2.3661   2.4323
     2.4910   2.5495   2.8662   2.8988   3.1074   3.1506   3.1850   3.2358
     3.2798   3.5939   3.8017   3.8447   3.9294   3.9394   3.9810   4.0157
     4.0186   4.0813

          k = 0.2500-0.0884 0.0000 (128371 PWs)   bands (ev):

   -86.0019 -85.9506 -85.9441 -85.9101 -85.9093 -85.9036 -85.9000 -85.8973
   -85.8925 -85.8906 -85.8898 -85.8861 -85.8860 -85.8847 -85.8836 -85.8814
   -85.8800 -85.8781 -85.8750 -85.8739 -85.8734 -85.8701 -85.8668 -85.8660
   -85.8653 -85.8636 -85.8625 -85.8588 -85.8542 -85.8484 -85.8321 -85.8303
   -85.8296 -85.8254 -85.8227 -85.7791 -85.7734 -85.7664 -85.7635 -85.7590
   -85.7556 -85.7545 -85.7503 -85.7457 -85.7436 -85.7426 -85.7418 -85.7394
   -85.7376 -85.7368 -85.7340 -85.7324 -85.7303 -85.7284 -85.7279 -85.7263
   -85.7219 -85.7205 -85.7163 -85.7129 -85.7070 -85.6990 -85.6906 -85.6897
   -52.1794 -52.1271 -52.1140 -52.1088 -52.1059 -52.1040 -52.1016 -52.0981
   -52.0911 -52.0897 -52.0843 -52.0824 -52.0804 -52.0798 -52.0790 -52.0752
   -52.0733 -52.0714 -52.0702 -52.0692 -52.0660 -52.0637 -52.0624 -52.0609
   -52.0599 -52.0565 -52.0554 -52.0532 -52.0497 -52.0470 -52.0450 -52.0417
   -52.0387 -52.0351 -52.0291 -52.0256 -52.0216 -52.0185 -52.0170 -52.0132
   -52.0073 -52.0037 -52.0010 -51.9936 -51.9910 -51.9869 -51.9852 -51.9802
   -51.9784 -51.9675 -51.9652 -51.9587 -51.9553 -51.9491 -51.9464 -51.9432
   -51.9394 -51.9376 -51.9339 -51.9301 -51.9291 -51.9283 -51.9221 -51.9198
   -51.9176 -51.9155 -51.9139 -51.9129 -51.9113 -51.9085 -51.9077 -51.9075
   -51.9041 -51.9025 -51.8996 -51.8961 -51.8922 -51.8874 -51.8854 -51.8821
   -51.8814 -51.8774 -51.8767 -51.8716 -51.8684 -51.8637 -51.8626 -51.8616
   -51.8602 -51.8571 -51.8552 -51.8497 -51.8487 -51.8458 -51.8435 -51.8421
   -51.8400 -51.8364 -51.8345 -51.8339 -51.8320 -51.8282 -51.8261 -51.8246
   -51.8228 -51.8206 -51.8191 -51.8178 -51.8165 -51.8149 -51.8134 -51.8112
   -51.8099 -51.8078 -51.8056 -51.8030 -51.7997 -51.7984 -51.7958 -51.7933
   -51.7919 -51.7875 -51.7861 -51.7822 -51.7807 -51.7781 -51.7767 -51.7746
   -51.7735 -51.7713 -51.7687 -51.7649 -51.7635 -51.7627 -51.7609 -51.7578
   -51.7547 -51.7518 -51.7487 -51.7454 -51.7436 -51.7418 -51.7398 -51.7387
   -51.7364 -51.7356 -51.7334 -51.7295 -51.7275 -51.7265 -51.7235 -51.7219
   -51.7217 -51.7174 -51.7166 -51.7155 -51.7134 -51.7129 -51.7100 -51.7083
   -51.7046 -51.7024 -51.7012 -51.7001 -51.6980 -51.6931 -51.6909 -51.6865
   -51.6818 -51.6808 -51.6787 -51.6742 -51.6716 -51.6690 -51.6665 -51.6642
   -51.6618 -51.6585 -51.6545 -51.6530 -51.6508 -51.6496 -51.6467 -51.6447
   -51.6421 -51.6397 -51.6387 -51.6346 -51.6308 -51.6282 -51.5563 -51.5553
   -13.3312  -5.5845  -4.8393  -4.5415  -4.3427  -4.1632  -4.0551  -3.9793
    -3.7867  -3.6198  -3.4389  -3.3043  -3.1836  -3.0334  -2.9292  -2.8633
    -2.7176  -2.6619  -2.6152  -2.5186  -2.4482  -2.3983  -2.3562  -2.3042
    -2.2948  -2.2742  -2.2516  -2.2363  -2.1898  -2.1498  -2.0699  -2.0090
    -1.9777  -1.9569  -1.9322  -1.9261  -1.9131  -1.9084  -1.8874  -1.8794
    -1.8635  -1.8383  -1.8317  -1.8157  -1.8057  -1.7805  -1.7670  -1.7519
    -1.7307  -1.7249  -1.7102  -1.7022  -1.6935  -1.6552  -1.6380  -1.6329
    -1.6288  -1.6218  -1.5949  -1.5574  -1.5061  -1.4928  -1.4604  -1.4493
    -1.4065  -1.3894  -1.3496  -1.3280  -1.2967  -1.2622  -1.2305  -1.1844
    -1.1644  -1.1549  -1.1313  -1.1030  -1.0684  -1.0606  -1.0460  -1.0418
    -1.0321  -1.0207  -1.0174  -1.0048  -0.9971  -0.9917  -0.9810  -0.9680
    -0.9594  -0.9518  -0.9428  -0.9410  -0.9261  -0.9230  -0.9141  -0.9095
    -0.9016  -0.8963  -0.8944  -0.8853  -0.8825  -0.8591  -0.8544  -0.8260
    -0.8050  -0.8002  -0.7952  -0.7836  -0.7799  -0.7705  -0.7520  -0.7415
    -0.7305  -0.7191  -0.7125  -0.6603  -0.6352  -0.6188  -0.6114  -0.5983
    -0.5760  -0.5604  -0.5456  -0.5243  -0.5053  -0.4820  -0.4535  -0.4462
    -0.4400  -0.4251  -0.4162  -0.4114  -0.4072  -0.3911  -0.3853  -0.3797
    -0.3593  -0.3542  -0.3421  -0.3326  -0.3276  -0.3191  -0.3074  -0.2946
    -0.2772  -0.2605  -0.2290  -0.2151  -0.2027  -0.1747  -0.1690  -0.1664
    -0.1562  -0.1396  -0.1316  -0.1267  -0.1240  -0.1144  -0.1071  -0.0978
    -0.0890  -0.0836  -0.0713  -0.0631  -0.0422  -0.0366   0.0013   0.0172
     0.0322   0.0424   0.0470   0.0604   0.0827   0.0924   0.1166   0.1265
     0.1388   0.1462   0.1605   0.1896   0.1993   0.2162   0.2492   0.2566
     0.2714   0.3080   0.3249   0.3397   0.3849   0.4788   0.4932   0.5263
     0.5385   0.5505   0.5733   0.5948   0.6083   0.6146   0.6319   0.6548
     0.6693   0.6800   0.6910   0.6951   0.7078   0.7134   0.7249   0.7294
     0.7409   0.7609   0.7649   0.7784   0.7914   0.8014   0.8102   0.8349
     0.8408   0.8485   0.8541   0.8700   0.8764   0.8899   0.8980   0.8992
     0.9039   0.9111   0.9257   0.9500   0.9569   0.9639   0.9683   0.9846
     0.9855   0.9918   0.9969   1.0055   1.0112   1.0157   1.0180   1.0251
     1.0299   1.0392   1.0491   1.0521   1.0636   1.0711   1.0763   1.0833
     1.0884   1.0907   1.0990   1.1077   1.1130   1.1163   1.1194   1.1274
     1.1321   1.1386   1.1466   1.1521   1.1625   1.1696   1.1719   1.1760
     1.1845   1.1869   1.1904   1.1946   1.1971   1.2041   1.2074   1.2195
     1.2239   1.2283   1.2371   1.2478   1.2590   1.2638   1.2792   1.2822
     1.2925   1.3205   1.3269   1.3320   1.3411   1.3468   1.3532   1.3672
     1.3727   1.3830   1.3897   1.3950   1.4037   1.4059   1.4234   1.4392
     1.4552   1.4605   1.4640   1.4708   1.4788   1.4922   1.4993   1.5024
     1.5127   1.5201   1.5396   1.5539   1.5719   1.6063   1.6182   1.6480
     1.6608   1.6781   1.7794   1.8251   1.8468   1.8685   1.8988   1.9173
     1.9285   1.9522   1.9767   2.0024   2.0154   2.0478   2.0568   2.0654
     2.0802   2.0966   2.1107   2.1189   2.1348   2.1427   2.1690   2.1816
     2.1999   2.2467   2.2701   2.2924   2.3257   2.3796   2.4745   2.6673
     2.7361   2.8114   2.8711   2.9217   3.0406   3.1683   3.2539   3.3114
     3.5070   3.5378   3.5659   3.5928   3.7045   3.7987   3.9160   3.9988
     4.0512   4.1188

          k = 0.2500 0.1768 0.0000 (128340 PWs)   bands (ev):

   -86.0019 -85.9506 -85.9440 -85.9094 -85.9086 -85.9034 -85.8993 -85.8984
   -85.8969 -85.8907 -85.8883 -85.8874 -85.8851 -85.8849 -85.8843 -85.8802
   -85.8783 -85.8757 -85.8756 -85.8740 -85.8724 -85.8699 -85.8679 -85.8671
   -85.8652 -85.8650 -85.8638 -85.8559 -85.8538 -85.8495 -85.8321 -85.8304
   -85.8297 -85.8255 -85.8226 -85.7789 -85.7710 -85.7702 -85.7643 -85.7594
   -85.7553 -85.7521 -85.7483 -85.7457 -85.7436 -85.7435 -85.7429 -85.7393
   -85.7384 -85.7357 -85.7350 -85.7318 -85.7303 -85.7282 -85.7281 -85.7265
   -85.7227 -85.7220 -85.7134 -85.7133 -85.7069 -85.6995 -85.6907 -85.6897
   -52.1793 -52.1267 -52.1131 -52.1082 -52.1076 -52.1033 -52.1018 -52.0976
   -52.0913 -52.0876 -52.0854 -52.0823 -52.0800 -52.0794 -52.0775 -52.0740
   -52.0732 -52.0718 -52.0702 -52.0688 -52.0664 -52.0636 -52.0607 -52.0603
   -52.0587 -52.0567 -52.0564 -52.0542 -52.0517 -52.0463 -52.0430 -52.0399
   -52.0364 -52.0334 -52.0321 -52.0228 -52.0201 -52.0139 -52.0137 -52.0090
   -52.0072 -52.0034 -51.9893 -51.9874 -51.9873 -51.9852 -51.9849 -51.9840
   -51.9733 -51.9696 -51.9669 -51.9661 -51.9558 -51.9498 -51.9496 -51.9460
   -51.9434 -51.9426 -51.9365 -51.9322 -51.9315 -51.9311 -51.9285 -51.9273
   -51.9259 -51.9206 -51.9171 -51.9152 -51.9143 -51.9140 -51.9117 -51.9101
   -51.9065 -51.9035 -51.9028 -51.8980 -51.8963 -51.8895 -51.8884 -51.8841
   -51.8838 -51.8812 -51.8777 -51.8725 -51.8705 -51.8660 -51.8655 -51.8638
   -51.8617 -51.8599 -51.8566 -51.8543 -51.8498 -51.8488 -51.8442 -51.8408
   -51.8382 -51.8367 -51.8296 -51.8280 -51.8257 -51.8252 -51.8223 -51.8202
   -51.8190 -51.8188 -51.8181 -51.8160 -51.8149 -51.8147 -51.8121 -51.8106
   -51.8065 -51.8056 -51.8040 -51.8007 -51.8002 -51.7969 -51.7946 -51.7932
   -51.7908 -51.7840 -51.7837 -51.7823 -51.7807 -51.7797 -51.7781 -51.7748
   -51.7734 -51.7681 -51.7648 -51.7630 -51.7601 -51.7577 -51.7528 -51.7517
   -51.7488 -51.7467 -51.7438 -51.7421 -51.7417 -51.7402 -51.7392 -51.7391
   -51.7351 -51.7339 -51.7306 -51.7304 -51.7292 -51.7276 -51.7243 -51.7206
   -51.7195 -51.7167 -51.7157 -51.7153 -51.7130 -51.7114 -51.7109 -51.7093
   -51.7060 -51.7043 -51.6991 -51.6960 -51.6945 -51.6930 -51.6877 -51.6863
   -51.6853 -51.6774 -51.6771 -51.6749 -51.6730 -51.6701 -51.6669 -51.6659
   -51.6626 -51.6604 -51.6576 -51.6559 -51.6526 -51.6518 -51.6504 -51.6483
   -51.6446 -51.6442 -51.6414 -51.6400 -51.6325 -51.6300 -51.5568 -51.5557
   -13.3312  -5.5442  -4.7098  -4.5117  -4.4673  -4.2960  -4.1112  -4.0703
    -3.8595  -3.5212  -3.4018  -3.2374  -3.1538  -3.1159  -2.9656  -2.8097
    -2.6965  -2.6045  -2.5305  -2.4384  -2.3454  -2.3448  -2.3052  -2.3028
    -2.2666  -2.2331  -2.2198  -2.2189  -2.1831  -2.1141  -2.1135  -2.0317
    -2.0040  -1.9931  -1.9780  -1.9618  -1.9093  -1.9029  -1.8963  -1.8718
    -1.8620  -1.8513  -1.8368  -1.8303  -1.8279  -1.8261  -1.8173  -1.8149
    -1.7785  -1.7738  -1.7434  -1.7352  -1.7014  -1.7013  -1.6623  -1.6410
    -1.6372  -1.5764  -1.5640  -1.5068  -1.4807  -1.4731  -1.4506  -1.4241
    -1.4059  -1.3749  -1.3494  -1.3391  -1.3224  -1.2735  -1.2424  -1.2281
    -1.1869  -1.1436  -1.1221  -1.1005  -1.0855  -1.0748  -1.0714  -1.0529
    -1.0509  -1.0483  -1.0394  -1.0349  -1.0262  -1.0221  -1.0170  -1.0054
    -1.0023  -0.9907  -0.9705  -0.9559  -0.9172  -0.9084  -0.9045  -0.8988
    -0.8727  -0.8700  -0.8517  -0.8428  -0.8296  -0.8200  -0.8156  -0.8072
    -0.7900  -0.7858  -0.7636  -0.7580  -0.7392  -0.7207  -0.7012  -0.6893
    -0.6843  -0.6790  -0.6543  -0.6539  -0.6419  -0.6310  -0.6193  -0.6170
    -0.6085  -0.6045  -0.6026  -0.5951  -0.5589  -0.5405  -0.5237  -0.5106
    -0.4834  -0.4498  -0.4485  -0.4391  -0.4260  -0.4235  -0.4144  -0.3961
    -0.3786  -0.3526  -0.3292  -0.3203  -0.3147  -0.3126  -0.2954  -0.2941
    -0.2808  -0.2733  -0.2529  -0.2370  -0.2258  -0.2126  -0.1839  -0.1663
    -0.1555  -0.1450  -0.1416  -0.1388  -0.1093  -0.1059  -0.0998  -0.0925
    -0.0691  -0.0495  -0.0463  -0.0397  -0.0393  -0.0247  -0.0158  -0.0121
     0.0053   0.0092   0.0144   0.0220   0.0327   0.0395   0.0421   0.0804
     0.0890   0.0930   0.1194   0.1711   0.2224   0.2593   0.2957   0.3280
     0.3564   0.3728   0.3892   0.4435   0.4515   0.4891   0.5033   0.5077
     0.5226   0.5496   0.5668   0.5771   0.5921   0.6076   0.6453   0.6475
     0.6606   0.6692   0.6873   0.6875   0.6937   0.7060   0.7160   0.7363
     0.7579   0.7634   0.7689   0.7704   0.7949   0.8012   0.8043   0.8117
     0.8213   0.8335   0.8444   0.8506   0.8834   0.8899   0.9002   0.9100
     0.9192   0.9340   0.9406   0.9498   0.9516   0.9563   0.9589   0.9785
     0.9891   0.9987   0.9996   1.0021   1.0152   1.0277   1.0302   1.0356
     1.0375   1.0474   1.0475   1.0555   1.0568   1.0803   1.0990   1.1035
     1.1065   1.1188   1.1205   1.1255   1.1298   1.1487   1.1503   1.1558
     1.1789   1.1800   1.1832   1.1911   1.1911   1.1999   1.2137   1.2223
     1.2239   1.2247   1.2322   1.2437   1.2440   1.2468   1.2593   1.2649
     1.2686   1.2697   1.2779   1.2809   1.2817   1.2898   1.2926   1.3207
     1.3216   1.3283   1.3291   1.3389   1.3392   1.3521   1.3578   1.3638
     1.3648   1.3670   1.3774   1.3901   1.3963   1.4191   1.4202   1.4389
     1.4550   1.4575   1.4733   1.4945   1.5045   1.5105   1.5198   1.5401
     1.5402   1.5524   1.5556   1.5633   1.6236   1.6247   1.6642   1.6698
     1.6726   1.6738   1.7831   1.8013   1.8708   1.8866   1.9270   1.9506
     1.9625   2.0022   2.0107   2.0215   2.0364   2.0439   2.0712   2.0807
     2.0996   2.1012   2.1102   2.1200   2.1249   2.1674   2.1799   2.2174
     2.2589   2.2974   2.3473   2.3529   2.3965   2.4081   2.5216   2.5400
     2.6376   2.6949   2.7573   2.9474   3.0483   3.0942   3.1320   3.1553
     3.2155   3.2233   3.2798   3.2987   3.3961   3.5154   3.6944   3.7780
     3.8812   3.9585

          k = 0.2500-0.6187 0.0000 (128424 PWs)   bands (ev):

   -86.0019 -85.9506 -85.9440 -85.9077 -85.9073 -85.9047 -85.9021 -85.8994
   -85.8958 -85.8923 -85.8892 -85.8871 -85.8840 -85.8836 -85.8819 -85.8797
   -85.8795 -85.8763 -85.8757 -85.8736 -85.8716 -85.8715 -85.8705 -85.8663
   -85.8651 -85.8634 -85.8632 -85.8565 -85.8528 -85.8505 -85.8320 -85.8304
   -85.8298 -85.8255 -85.8225 -85.7773 -85.7747 -85.7674 -85.7657 -85.7594
   -85.7542 -85.7529 -85.7470 -85.7454 -85.7447 -85.7434 -85.7428 -85.7400
   -85.7390 -85.7368 -85.7337 -85.7314 -85.7292 -85.7287 -85.7278 -85.7257
   -85.7241 -85.7223 -85.7154 -85.7119 -85.7048 -85.7006 -85.6905 -85.6900
   -52.1792 -52.1223 -52.1164 -52.1121 -52.1059 -52.1026 -52.1013 -52.0962
   -52.0922 -52.0898 -52.0850 -52.0814 -52.0803 -52.0776 -52.0757 -52.0742
   -52.0719 -52.0710 -52.0692 -52.0677 -52.0659 -52.0638 -52.0618 -52.0600
   -52.0582 -52.0573 -52.0546 -52.0530 -52.0513 -52.0464 -52.0420 -52.0397
   -52.0387 -52.0359 -52.0276 -52.0199 -52.0174 -52.0068 -52.0043 -52.0011
   -51.9998 -51.9993 -51.9987 -51.9933 -51.9912 -51.9858 -51.9773 -51.9769
   -51.9736 -51.9695 -51.9675 -51.9621 -51.9597 -51.9572 -51.9570 -51.9534
   -51.9504 -51.9482 -51.9449 -51.9418 -51.9362 -51.9342 -51.9284 -51.9265
   -51.9248 -51.9193 -51.9178 -51.9170 -51.9150 -51.9127 -51.9117 -51.9101
   -51.9049 -51.9022 -51.8996 -51.8980 -51.8959 -51.8942 -51.8909 -51.8895
   -51.8878 -51.8860 -51.8830 -51.8808 -51.8771 -51.8750 -51.8731 -51.8702
   -51.8666 -51.8644 -51.8625 -51.8598 -51.8548 -51.8487 -51.8444 -51.8408
   -51.8367 -51.8307 -51.8278 -51.8266 -51.8254 -51.8234 -51.8226 -51.8201
   -51.8185 -51.8163 -51.8158 -51.8118 -51.8098 -51.8084 -51.8058 -51.8042
   -51.8032 -51.8013 -51.7991 -51.7970 -51.7935 -51.7931 -51.7901 -51.7890
   -51.7872 -51.7846 -51.7824 -51.7801 -51.7771 -51.7750 -51.7726 -51.7701
   -51.7688 -51.7677 -51.7658 -51.7631 -51.7614 -51.7590 -51.7565 -51.7518
   -51.7506 -51.7488 -51.7459 -51.7443 -51.7423 -51.7396 -51.7388 -51.7363
   -51.7338 -51.7299 -51.7288 -51.7282 -51.7263 -51.7248 -51.7230 -51.7214
   -51.7181 -51.7168 -51.7155 -51.7144 -51.7133 -51.7124 -51.7094 -51.7066
   -51.7037 -51.6969 -51.6966 -51.6934 -51.6925 -51.6898 -51.6875 -51.6843
   -51.6804 -51.6778 -51.6765 -51.6741 -51.6701 -51.6686 -51.6676 -51.6665
   -51.6648 -51.6636 -51.6611 -51.6599 -51.6590 -51.6581 -51.6569 -51.6530
   -51.6514 -51.6488 -51.6463 -51.6404 -51.6336 -51.6316 -51.5573 -51.5561
   -13.3311  -5.3139  -5.0244  -4.7487  -4.4422  -4.2211  -4.1661  -3.8654
    -3.7583  -3.5658  -3.4885  -3.2703  -3.2092  -2.7730  -2.6951  -2.6445
    -2.6034  -2.5806  -2.5327  -2.5018  -2.4496  -2.3776  -2.3207  -2.3107
    -2.2878  -2.2770  -2.2414  -2.1966  -2.1718  -2.1465  -2.1405  -2.1365
    -2.1141  -2.0865  -2.0658  -2.0314  -2.0205  -1.9948  -1.9768  -1.9676
    -1.9432  -1.9394  -1.8971  -1.8849  -1.8611  -1.8412  -1.7817  -1.7695
    -1.7506  -1.7275  -1.6903  -1.6639  -1.6493  -1.6227  -1.5904  -1.5762
    -1.5426  -1.5340  -1.5233  -1.5073  -1.4973  -1.4866  -1.4550  -1.4462
    -1.4129  -1.4077  -1.3690  -1.3510  -1.3430  -1.3160  -1.2850  -1.2695
    -1.2472  -1.2083  -1.1917  -1.1606  -1.1279  -1.0850  -1.0712  -1.0618
    -1.0566  -1.0442  -1.0346  -1.0299  -1.0223  -0.9927  -0.9736  -0.9525
    -0.9377  -0.9283  -0.9123  -0.8955  -0.8833  -0.8660  -0.8586  -0.8547
    -0.8471  -0.8391  -0.8284  -0.8200  -0.8142  -0.8061  -0.8001  -0.7727
    -0.7661  -0.7565  -0.7493  -0.7345  -0.7248  -0.7150  -0.7082  -0.6959
    -0.6911  -0.6804  -0.6654  -0.6562  -0.6483  -0.6184  -0.6113  -0.6027
    -0.5926  -0.5835  -0.5791  -0.5708  -0.5657  -0.5532  -0.5420  -0.5295
    -0.5211  -0.5162  -0.5095  -0.4952  -0.4881  -0.4692  -0.4572  -0.4420
    -0.4284  -0.4175  -0.3915  -0.3501  -0.3198  -0.3001  -0.2856  -0.2810
    -0.2592  -0.2553  -0.2531  -0.2493  -0.2293  -0.2186  -0.2104  -0.2034
    -0.1975  -0.1911  -0.1807  -0.1713  -0.1651  -0.1564  -0.1402  -0.1302
    -0.1218  -0.1152  -0.0979  -0.0497  -0.0303  -0.0219  -0.0027   0.0302
     0.0334   0.0609   0.0736   0.1087   0.1170   0.1393   0.1546   0.1924
     0.2051   0.2337   0.2644   0.3007   0.3133   0.3321   0.3439   0.3630
     0.3960   0.4090   0.4155   0.4454   0.4593   0.4780   0.4872   0.5100
     0.5174   0.5242   0.5339   0.5444   0.5611   0.5718   0.5997   0.6181
     0.6314   0.6433   0.6561   0.6606   0.6864   0.7022   0.7131   0.7311
     0.7412   0.7527   0.7594   0.7721   0.7783   0.7877   0.8020   0.8138
     0.8209   0.8309   0.8339   0.8635   0.8715   0.8868   0.8917   0.8943
     0.9004   0.9139   0.9220   0.9264   0.9316   0.9341   0.9420   0.9456
     0.9491   0.9644   0.9736   0.9766   0.9983   1.0096   1.0206   1.0388
     1.0407   1.0583   1.0601   1.0735   1.0781   1.0860   1.0940   1.0972
     1.1041   1.1142   1.1208   1.1290   1.1310   1.1490   1.1506   1.1645
     1.1687   1.1844   1.1896   1.1932   1.2099   1.2157   1.2220   1.2248
     1.2328   1.2401   1.2434   1.2475   1.2513   1.2553   1.2608   1.2815
     1.2891   1.2950   1.2965   1.3042   1.3065   1.3150   1.3197   1.3251
     1.3297   1.3332   1.3445   1.3467   1.3528   1.3669   1.3831   1.3891
     1.3997   1.4077   1.4215   1.4318   1.4437   1.4520   1.4547   1.4711
     1.5099   1.5258   1.5358   1.5475   1.5654   1.5743   1.5799   1.6199
     1.6487   1.6605   1.6811   1.6860   1.7311   1.7397   1.7457   1.7592
     1.7655   1.7742   1.8119   1.8182   1.8353   1.8514   1.8640   1.8811
     1.9058   1.9204   1.9425   1.9572   1.9756   1.9899   1.9993   2.0197
     2.0398   2.0458   2.0643   2.0699   2.0809   2.0902   2.1137   2.1352
     2.1491   2.1626   2.1831   2.1991   2.2764   2.2938   2.3102   2.4179
     2.5228   2.5630   2.7341   2.7914   2.8792   2.9025   2.9941   3.0322
     3.1905   3.2867   3.4037   3.4590   3.6097   3.6378   3.7745   3.8532
     3.9095   3.9868

          k = 0.2500-0.3536 0.0000 (128397 PWs)   bands (ev):

   -86.0019 -85.9506 -85.9441 -85.9088 -85.9085 -85.9045 -85.9013 -85.8976
   -85.8961 -85.8901 -85.8881 -85.8872 -85.8858 -85.8829 -85.8822 -85.8803
   -85.8787 -85.8784 -85.8779 -85.8744 -85.8735 -85.8688 -85.8684 -85.8676
   -85.8633 -85.8632 -85.8620 -85.8585 -85.8544 -85.8489 -85.8320 -85.8304
   -85.8298 -85.8254 -85.8226 -85.7777 -85.7754 -85.7664 -85.7631 -85.7603
   -85.7542 -85.7536 -85.7512 -85.7454 -85.7438 -85.7421 -85.7418 -85.7401
   -85.7390 -85.7365 -85.7333 -85.7321 -85.7301 -85.7284 -85.7280 -85.7248
   -85.7222 -85.7217 -85.7181 -85.7117 -85.7055 -85.6999 -85.6904 -85.6901
   -52.1793 -52.1230 -52.1165 -52.1122 -52.1059 -52.1029 -52.1007 -52.0973
   -52.0921 -52.0895 -52.0846 -52.0829 -52.0801 -52.0789 -52.0775 -52.0735
   -52.0732 -52.0708 -52.0693 -52.0670 -52.0663 -52.0649 -52.0624 -52.0600
   -52.0594 -52.0566 -52.0539 -52.0522 -52.0509 -52.0461 -52.0446 -52.0422
   -52.0392 -52.0352 -52.0267 -52.0220 -52.0190 -52.0155 -52.0129 -52.0033
   -52.0021 -52.0010 -51.9978 -51.9963 -51.9938 -51.9898 -51.9851 -51.9822
   -51.9799 -51.9686 -51.9622 -51.9597 -51.9560 -51.9515 -51.9502 -51.9454
   -51.9417 -51.9406 -51.9317 -51.9311 -51.9285 -51.9262 -51.9245 -51.9237
   -51.9232 -51.9217 -51.9191 -51.9167 -51.9133 -51.9123 -51.9117 -51.9104
   -51.9079 -51.9034 -51.9009 -51.8983 -51.8971 -51.8956 -51.8905 -51.8892
   -51.8879 -51.8793 -51.8771 -51.8744 -51.8718 -51.8697 -51.8682 -51.8680
   -51.8626 -51.8620 -51.8588 -51.8507 -51.8479 -51.8467 -51.8431 -51.8377
   -51.8347 -51.8346 -51.8333 -51.8305 -51.8288 -51.8255 -51.8252 -51.8231
   -51.8219 -51.8204 -51.8196 -51.8137 -51.8118 -51.8105 -51.8088 -51.8068
   -51.8030 -51.8021 -51.7999 -51.7986 -51.7967 -51.7956 -51.7948 -51.7925
   -51.7919 -51.7868 -51.7855 -51.7823 -51.7815 -51.7806 -51.7790 -51.7756
   -51.7729 -51.7696 -51.7680 -51.7628 -51.7599 -51.7583 -51.7554 -51.7521
   -51.7511 -51.7459 -51.7443 -51.7440 -51.7427 -51.7398 -51.7390 -51.7382
   -51.7353 -51.7309 -51.7299 -51.7283 -51.7274 -51.7260 -51.7224 -51.7204
   -51.7180 -51.7171 -51.7166 -51.7153 -51.7145 -51.7142 -51.7133 -51.7082
   -51.7074 -51.7029 -51.7019 -51.6979 -51.6953 -51.6928 -51.6880 -51.6861
   -51.6825 -51.6806 -51.6776 -51.6741 -51.6703 -51.6674 -51.6666 -51.6655
   -51.6622 -51.6606 -51.6567 -51.6558 -51.6545 -51.6538 -51.6488 -51.6484
   -51.6457 -51.6440 -51.6431 -51.6378 -51.6326 -51.6308 -51.5568 -51.5557
   -13.3311  -5.4190  -4.9173  -4.8187  -4.4544  -4.1792  -4.0765  -3.8904
    -3.5660  -3.5328  -3.3085  -3.2536  -3.2294  -3.1174  -2.9717  -2.8493
    -2.6542  -2.4525  -2.4350  -2.4194  -2.3977  -2.3965  -2.3539  -2.3503
    -2.3159  -2.2901  -2.2478  -2.2363  -2.2124  -2.2046  -2.1757  -2.1697
    -2.1208  -2.0643  -2.0136  -2.0045  -1.9690  -1.9542  -1.9434  -1.9263
    -1.9128  -1.9037  -1.8908  -1.8636  -1.8521  -1.8245  -1.7961  -1.7621
    -1.7432  -1.7161  -1.7092  -1.6675  -1.6453  -1.6406  -1.5955  -1.5718
    -1.5436  -1.5299  -1.5120  -1.4949  -1.4869  -1.4788  -1.4584  -1.4357
    -1.4182  -1.4092  -1.3650  -1.3633  -1.3325  -1.2707  -1.2634  -1.2545
    -1.1859  -1.1784  -1.1528  -1.1435  -1.0736  -1.0691  -1.0582  -1.0543
    -1.0321  -1.0196  -1.0116  -1.0007  -0.9956  -0.9932  -0.9851  -0.9636
    -0.9625  -0.9519  -0.9375  -0.9363  -0.9329  -0.9213  -0.9036  -0.8755
    -0.8693  -0.8537  -0.8464  -0.8397  -0.8273  -0.8251  -0.8232  -0.8070
    -0.7944  -0.7867  -0.7677  -0.7514  -0.7318  -0.7193  -0.6992  -0.6805
    -0.6706  -0.6667  -0.6615  -0.6531  -0.6499  -0.6383  -0.6323  -0.6249
    -0.6118  -0.6068  -0.5991  -0.5681  -0.5503  -0.5330  -0.5092  -0.4841
    -0.4697  -0.4656  -0.4541  -0.4126  -0.3991  -0.3872  -0.3640  -0.3529
    -0.3379  -0.3247  -0.3217  -0.3158  -0.3128  -0.3018  -0.2960  -0.2940
    -0.2919  -0.2887  -0.2827  -0.2814  -0.2770  -0.2688  -0.2507  -0.2428
    -0.2333  -0.2247  -0.2121  -0.1899  -0.1709  -0.1540  -0.1322  -0.1016
    -0.0976  -0.0675  -0.0370  -0.0344  -0.0259   0.0110   0.0191   0.0392
     0.0569   0.0636   0.0771   0.0842   0.1398   0.1561   0.1796   0.1918
     0.2258   0.2687   0.2935   0.3147   0.3174   0.3307   0.3466   0.3489
     0.3640   0.3923   0.4086   0.4351   0.4528   0.4570   0.4727   0.4737
     0.4757   0.4805   0.5060   0.5368   0.5407   0.5822   0.5910   0.5961
     0.6188   0.6297   0.6299   0.6499   0.6757   0.7083   0.7214   0.7274
     0.7299   0.7360   0.7437   0.7468   0.7789   0.8027   0.8161   0.8197
     0.8309   0.8381   0.8550   0.8586   0.8702   0.8865   0.9043   0.9217
     0.9255   0.9389   0.9397   0.9405   0.9551   0.9582   0.9626   0.9869
     0.9897   0.9904   1.0026   1.0079   1.0226   1.0296   1.0340   1.0420
     1.0574   1.0602   1.0662   1.0699   1.0738   1.0800   1.0977   1.1011
     1.1022   1.1049   1.1225   1.1255   1.1272   1.1336   1.1342   1.1412
     1.1497   1.1528   1.1557   1.1639   1.1687   1.1700   1.1741   1.1904
     1.1933   1.1961   1.1975   1.2059   1.2133   1.2193   1.2237   1.2253
     1.2367   1.2576   1.2612   1.2626   1.2776   1.2836   1.2876   1.2904
     1.2914   1.3042   1.3056   1.3118   1.3239   1.3292   1.3479   1.3518
     1.3790   1.3846   1.3955   1.4075   1.4149   1.4194   1.4353   1.4588
     1.4787   1.4953   1.5034   1.5257   1.5290   1.5449   1.5491   1.5603
     1.5690   1.5815   1.5867   1.6104   1.6129   1.6417   1.6829   1.6942
     1.6983   1.7271   1.7364   1.7470   1.7997   1.8159   1.8427   1.8849
     1.9077   1.9113   1.9485   1.9502   1.9556   1.9901   2.0009   2.0148
     2.0255   2.0391   2.0541   2.0587   2.0655   2.0750   2.0946   2.0952
     2.1061   2.1097   2.1237   2.2996   2.5108   2.5579   2.5786   2.6865
     2.7192   2.8335   2.8812   2.9187   2.9447   3.0187   3.1012   3.1256
     3.1583   3.2365   3.3167   3.3999   3.5933   3.6581   3.7037   3.9697
     4.1101   4.4739

          k =-0.5000 0.1768 0.0000 (128388 PWs)   bands (ev):

   -86.0019 -85.9506 -85.9441 -85.9083 -85.9081 -85.9051 -85.9035 -85.8969
   -85.8914 -85.8888 -85.8886 -85.8880 -85.8878 -85.8853 -85.8847 -85.8811
   -85.8794 -85.8762 -85.8759 -85.8718 -85.8716 -85.8710 -85.8686 -85.8669
   -85.8647 -85.8645 -85.8614 -85.8598 -85.8522 -85.8498 -85.8320 -85.8304
   -85.8298 -85.8254 -85.8226 -85.7770 -85.7764 -85.7649 -85.7634 -85.7603
   -85.7572 -85.7537 -85.7474 -85.7451 -85.7441 -85.7435 -85.7428 -85.7395
   -85.7381 -85.7369 -85.7340 -85.7321 -85.7297 -85.7287 -85.7279 -85.7243
   -85.7234 -85.7206 -85.7176 -85.7128 -85.7050 -85.7000 -85.6903 -85.6901
   -52.1793 -52.1221 -52.1189 -52.1097 -52.1055 -52.1043 -52.1007 -52.0968
   -52.0932 -52.0897 -52.0848 -52.0817 -52.0794 -52.0780 -52.0767 -52.0756
   -52.0726 -52.0721 -52.0703 -52.0684 -52.0650 -52.0626 -52.0617 -52.0607
   -52.0580 -52.0567 -52.0550 -52.0544 -52.0484 -52.0477 -52.0454 -52.0406
   -52.0393 -52.0365 -52.0279 -52.0213 -52.0177 -52.0120 -52.0100 -52.0066
   -52.0063 -52.0040 -52.0020 -52.0001 -51.9905 -51.9834 -51.9786 -51.9769
   -51.9700 -51.9685 -51.9676 -51.9641 -51.9617 -51.9526 -51.9504 -51.9498
   -51.9486 -51.9437 -51.9407 -51.9318 -51.9305 -51.9280 -51.9250 -51.9235
   -51.9197 -51.9157 -51.9145 -51.9124 -51.9112 -51.9095 -51.9078 -51.9064
   -51.9046 -51.8992 -51.8984 -51.8955 -51.8948 -51.8936 -51.8913 -51.8900
   -51.8843 -51.8833 -51.8814 -51.8789 -51.8770 -51.8747 -51.8714 -51.8680
   -51.8649 -51.8631 -51.8577 -51.8525 -51.8483 -51.8464 -51.8431 -51.8399
   -51.8354 -51.8350 -51.8336 -51.8325 -51.8300 -51.8274 -51.8237 -51.8226
   -51.8218 -51.8196 -51.8152 -51.8136 -51.8123 -51.8117 -51.8076 -51.8071
   -51.8041 -51.8000 -51.7987 -51.7970 -51.7958 -51.7935 -51.7906 -51.7893
   -51.7876 -51.7841 -51.7834 -51.7824 -51.7792 -51.7786 -51.7766 -51.7751
   -51.7729 -51.7707 -51.7679 -51.7650 -51.7631 -51.7598 -51.7571 -51.7559
   -51.7545 -51.7524 -51.7480 -51.7471 -51.7441 -51.7433 -51.7419 -51.7377
   -51.7372 -51.7297 -51.7293 -51.7277 -51.7266 -51.7240 -51.7223 -51.7217
   -51.7210 -51.7190 -51.7173 -51.7160 -51.7147 -51.7124 -51.7082 -51.7050
   -51.7026 -51.7019 -51.6999 -51.6972 -51.6925 -51.6901 -51.6881 -51.6842
   -51.6798 -51.6790 -51.6758 -51.6722 -51.6708 -51.6675 -51.6670 -51.6658
   -51.6641 -51.6631 -51.6599 -51.6589 -51.6574 -51.6549 -51.6540 -51.6480
   -51.6462 -51.6440 -51.6417 -51.6353 -51.6312 -51.6290 -51.5568 -51.5557
   -13.3311  -5.3475  -5.1811  -4.5927  -4.3400  -4.1327  -4.0566  -3.9238
    -3.9007  -3.5854  -3.4581  -3.1544  -3.1194  -2.9470  -2.8886  -2.6841
    -2.6501  -2.5913  -2.5729  -2.5198  -2.4813  -2.4140  -2.3643  -2.3424
    -2.3151  -2.2287  -2.2126  -2.1663  -2.1642  -2.1549  -2.1419  -2.1283
    -2.1209  -2.1023  -2.0977  -2.0644  -2.0598  -1.9912  -1.9513  -1.9349
    -1.8615  -1.8353  -1.8023  -1.7917  -1.7847  -1.7562  -1.7530  -1.6993
    -1.6978  -1.6912  -1.6841  -1.6815  -1.6707  -1.6652  -1.6622  -1.6378
    -1.6144  -1.5684  -1.5598  -1.5308  -1.5164  -1.5102  -1.4675  -1.4497
    -1.4352  -1.4145  -1.3763  -1.3668  -1.3277  -1.3069  -1.2850  -1.2734
    -1.2539  -1.1689  -1.1356  -1.0785  -1.0720  -1.0450  -1.0405  -1.0367
    -1.0315  -1.0219  -0.9970  -0.9913  -0.9854  -0.9773  -0.9669  -0.9628
    -0.9569  -0.9465  -0.9355  -0.9325  -0.9275  -0.9224  -0.9119  -0.8908
    -0.8776  -0.8592  -0.8400  -0.8302  -0.8272  -0.7995  -0.7884  -0.7817
    -0.7723  -0.7600  -0.7519  -0.7467  -0.7403  -0.7376  -0.7336  -0.7202
    -0.7147  -0.7033  -0.6984  -0.6854  -0.6808  -0.6714  -0.6520  -0.6406
    -0.6237  -0.5554  -0.5298  -0.4940  -0.4703  -0.4482  -0.4387  -0.4313
    -0.4211  -0.4121  -0.4112  -0.4041  -0.4007  -0.3951  -0.3802  -0.3778
    -0.3713  -0.3671  -0.3648  -0.3615  -0.3608  -0.3528  -0.3384  -0.3177
    -0.3130  -0.2936  -0.2791  -0.2788  -0.2545  -0.2505  -0.2310  -0.2224
    -0.2078  -0.2073  -0.2008  -0.1730  -0.1673  -0.1469  -0.1453  -0.1394
    -0.1121  -0.1063  -0.0839  -0.0490  -0.0443  -0.0089   0.0161   0.0346
     0.0703   0.0809   0.0871   0.0987   0.1086   0.1171   0.1212   0.1387
     0.1442   0.2350   0.2422   0.3193   0.3442   0.3504   0.3587   0.3865
     0.4053   0.4077   0.4307   0.4377   0.4659   0.4690   0.5165   0.5212
     0.5225   0.5415   0.5490   0.5594   0.5620   0.5709   0.5785   0.6062
     0.6111   0.6144   0.6274   0.6313   0.6855   0.7146   0.7181   0.7210
     0.7416   0.7478   0.7550   0.7640   0.7815   0.7917   0.8032   0.8060
     0.8130   0.8365   0.8611   0.8686   0.8720   0.8825   0.8867   0.8880
[...]
     3.2641   3.2765   3.3261   3.3524   3.3652   3.3781   3.3998   3.4190
     3.4272   3.4343   3.4482   3.4559   3.4784   3.4859   3.4982   3.5158
     3.5523   3.5611   3.5758   3.5884   3.5894   3.6232   3.6376   3.6720
     3.6777   3.6918   3.6929   3.7085   3.7268   3.7452   3.7540   3.7611
     3.7707   3.7830   3.7933   3.8045   3.8087   3.8213   3.8325   3.8424
     3.8572   3.8599   3.8761   3.8950   3.9045   3.9186   3.9365   3.9382
     3.9495   3.9565   3.9664   3.9715   3.9749   3.9772   3.9955   4.0062
     4.0228   4.0293   4.0374   4.0397   4.0450   4.0602   4.0691   4.0778
     4.0881   4.0989   4.1050   4.1242   4.1316   4.1379   4.1461   4.1583
     4.1709   4.1744   4.1864   4.1908   4.1929   4.1965   4.2115   4.2133
     4.2237   4.2260   4.2324   4.2438   4.2523   4.2625   4.2677   4.2801
     4.2957   4.3061   4.3137   4.3163   4.3241   4.3282   4.3344   4.3433
     4.3477   4.3570   4.3626   4.3681   4.3759   4.3823   4.3885   4.4048
     4.4110   4.4276   4.4356   4.4418   4.4478   4.4651   4.4927   4.5014
     4.5130   4.5206   4.5267   4.5330   4.5422   4.5526   4.5564   4.5756
     4.5802   4.6122   4.6218   4.6264   4.6466   4.6631   4.6672   4.6956
     4.7198   4.7444   4.8011   4.8200   4.8625   4.9196   5.0057   5.0225
     5.1307   5.1654   5.1999   5.2339   5.3613   5.4041   5.4565   5.4933
     5.5388   5.6720

          k =-0.5000-0.3536 0.0000 (128560 PWs)   bands (ev):

   -83.5591 -83.5587 -83.1364 -83.1339 -83.0280 -83.0271 -83.0032 -82.9782
   -82.9701 -82.9078 -82.9010 -82.8910 -82.8883 -82.8812 -82.8769 -82.8768
   -82.8656 -82.8651 -82.8620 -82.8558 -82.8549 -82.8522 -82.8501 -82.8488
   -82.8465 -82.8441 -82.8430 -82.8385 -82.8384 -82.8341 -82.8331 -82.8328
   -82.8315 -82.8313 -82.8283 -82.8212 -82.8165 -82.8156 -82.8116 -82.8115
   -82.8104 -82.8060 -82.8057 -82.8035 -82.8032 -82.8006 -82.7993 -82.7974
   -82.7915 -82.7858 -82.7836 -82.7818 -82.7811 -82.7799 -82.7795 -82.7792
   -82.7767 -82.7756 -82.7753 -82.7737 -82.7600 -82.7576 -82.7561 -82.7535
   -50.1002 -50.0920 -49.5627 -49.5512 -49.4882 -49.4787 -49.4455 -49.4405
   -49.2732 -49.2526 -49.2285 -49.2209 -49.2201 -49.2146 -49.2108 -49.2083
   -49.1866 -49.1863 -49.1742 -49.1721 -49.1698 -49.1631 -49.1526 -49.1520
   -49.1453 -49.1444 -49.1406 -49.1384 -49.1380 -49.1294 -49.1292 -49.1284
   -49.1258 -49.1253 -49.1193 -49.1141 -49.1129 -49.1072 -49.1033 -49.1032
   -49.0994 -49.0990 -49.0924 -49.0907 -49.0893 -49.0861 -49.0851 -49.0833
   -49.0830 -49.0784 -49.0736 -49.0700 -49.0656 -49.0604 -49.0593 -49.0592
   -49.0574 -49.0539 -49.0523 -49.0520 -49.0504 -49.0498 -49.0497 -49.0488
   -49.0463 -49.0442 -49.0427 -49.0420 -49.0407 -49.0357 -49.0330 -49.0299
   -49.0284 -49.0258 -49.0210 -49.0126 -49.0046 -49.0033 -48.9998 -48.9974
   -48.9918 -48.9906 -48.9842 -48.9835 -48.9804 -48.9794 -48.9646 -48.9629
   -48.9614 -48.9593 -48.9579 -48.9536 -48.9527 -48.9476 -48.9459 -48.9454
   -48.9432 -48.9386 -48.9357 -48.9347 -48.9325 -48.9301 -48.9277 -48.9256
   -48.9247 -48.9213 -48.9183 -48.9119 -48.9092 -48.9091 -48.9080 -48.9073
   -48.9045 -48.9035 -48.9019 -48.8999 -48.8994 -48.8986 -48.8970 -48.8943
   -48.8907 -48.8879 -48.8870 -48.8852 -48.8803 -48.8769 -48.8747 -48.8732
   -48.8724 -48.8714 -48.8679 -48.8665 -48.8659 -48.8645 -48.8602 -48.8577
   -48.8539 -48.8521 -48.8518 -48.8472 -48.8467 -48.8452 -48.8442 -48.8439
   -48.8427 -48.8420 -48.8406 -48.8394 -48.8371 -48.8360 -48.8357 -48.8353
   -48.8341 -48.8314 -48.8289 -48.8279 -48.8267 -48.8260 -48.8237 -48.8233
   -48.8181 -48.8178 -48.8168 -48.8137 -48.8116 -48.8107 -48.8103 -48.8096
   -48.8091 -48.8083 -48.8080 -48.8075 -48.8053 -48.8049 -48.8048 -48.8040
   -48.8011 -48.8009 -48.7973 -48.7957 -48.7945 -48.7929 -48.7914 -48.7891
   -48.7880 -48.7869 -48.7854 -48.7834 -48.7802 -48.7798 -48.7765 -48.7742
   -13.4665  -4.9312  -4.8841  -4.3843  -4.3717  -3.9465  -3.9061  -3.7656
    -3.3817  -3.2447  -2.8897  -2.7788  -2.6819  -2.2827  -2.2288  -2.2126
    -2.0680  -1.8342  -1.5995  -1.4435  -1.4296  -1.4119  -1.3995  -1.3907
    -1.3263  -1.3245  -1.2957  -1.2467  -1.2282  -1.1540  -0.9875  -0.8732
    -0.8685  -0.8601  -0.8435  -0.7922  -0.7501  -0.6699  -0.4955  -0.4114
    -0.4075  -0.3960  -0.3656  -0.3536  -0.3415  -0.3009  -0.2692  -0.2394
    -0.2270  -0.1738  -0.1133  -0.1082  -0.0823  -0.0700  -0.0611  -0.0540
     0.1214   0.1419   0.1602   0.1635   0.1903   0.2220   0.2605   0.3919
     0.4347   0.4500   0.4572   0.5000   0.5031   0.5101   0.5786   0.6174
     0.6368   0.6544   0.6842   0.6894   0.7007   0.7196   0.7252   0.7355
     0.7487   0.7595   0.8045   0.8266   0.8274   0.8338   0.8349   0.8409
     0.8667   0.8728   0.8752   0.9082   0.9180   1.0069   1.0408   1.0440
     1.0508   1.0525   1.1219   1.1454   1.1709   1.1820   1.1856   1.1915
     1.2049   1.2089   1.2107   1.2175   1.2565   1.2690   1.2693   1.2759
     1.2785   1.2861   1.2875   1.3018   1.3044   1.3080   1.3169   1.3215
     1.3363   1.3448   1.3563   1.3571   1.3633   1.3638   1.3724   1.3866
     1.3944   1.4071   1.4239   1.4283   1.4303   1.4315   1.4360   1.4425
     1.4547   1.4620   1.4821   1.4843   1.5226   1.6086   1.6416   1.6550
     1.6748   1.6822   1.6828   1.6967   1.6999   1.7113   1.7186   1.7353
     1.7361   1.8074   1.8402   1.8457   1.8634   1.8694   1.8744   1.8850
     1.8938   1.9013   1.9283   1.9437   1.9441   1.9695   2.0157   2.0382
     2.0677   2.0792   2.0951   2.1549   2.1670   2.1923   2.2086   2.2211
     2.2467   2.2483   2.2580   2.2642   2.2782   2.3027   2.3151   2.3289
     2.3337   2.3445   2.3800   2.3840   2.4352   2.5622   2.5866   2.5941
     2.6982   2.7280   2.7314   2.8432   2.8676   2.8947   2.9129   2.9678
     2.9967   2.9998   3.0038   3.0520   3.0737   3.1006   3.1055   3.1328
     3.1445   3.1648   3.2098   3.2368   3.2488   3.2502   3.2508   3.2820
     3.3447   3.3589   3.3613   3.3656   3.3738   3.3922   3.4319   3.4476
     3.4503   3.4806   3.4905   3.4928   3.4980   3.5022   3.5199   3.5295
     3.5416   3.5423   3.5898   3.5967   3.6016   3.6040   3.6355   3.6374
     3.6540   3.6575   3.6750   3.6905   3.7368   3.7432   3.7891   3.7909
     3.8041   3.8415   3.8432   3.8504   3.8557   3.8667   3.8997   3.9034
     3.9071   3.9224   3.9237   3.9306   3.9580   3.9604   3.9639   3.9790
     3.9799   3.9953   3.9980   4.0067   4.0115   4.0134   4.0290   4.0358
     4.0373   4.0631   4.0672   4.0710   4.0771   4.0875   4.0945   4.0991
     4.1008   4.1036   4.1059   4.1139   4.1291   4.1333   4.1410   4.1473
     4.1526   4.1727   4.1755   4.1769   4.1852   4.1878   4.1963   4.1990
     4.2028   4.2239   4.2356   4.2384   4.2460   4.2702   4.2803   4.2815
     4.3008   4.3011   4.3056   4.3179   4.3183   4.3292   4.3334   4.3639
     4.3661   4.3730   4.3743   4.3848   4.3898   4.3960   4.4037   4.4118
     4.4144   4.4146   4.4200   4.4239   4.4286   4.4348   4.4503   4.4605
     4.4621   4.4703   4.4732   4.4877   4.4957   4.5012   4.5264   4.5272
     4.5463   4.5514   4.5528   4.5768   4.5807   4.5912   4.7234   4.7463
     4.7794   4.7968   4.8311   4.8454   4.9712   4.9979   5.0111   5.0165
     5.0232   5.0500   5.0591   5.0755   5.0897   5.1111   5.1187   5.3218
     5.3331   5.3684

     the Fermi energy is     2.2568 ev

!    total energy              =  -21093.76701714 Ry
     Harris-Foulkes estimate   =  -21093.76701704 Ry
     estimated scf accuracy    <          2.7E-11 Ry

     The total energy is the sum of the following terms:

     one-electron contribution = -168082.50930493 Ry
     hartree contribution      =   84121.34060588 Ry
     xc contribution           =   -2234.33616476 Ry
     ewald contribution        =   69976.58346163 Ry
     Dispersion Correction     =      -1.39613326 Ry
     one-center paw contrib.   =   -4873.45270620 Ry
     smearing contrib. (-TS)   =       0.00322451 Ry

     total magnetization       =   160.39 Bohr mag/cell
     absolute magnetization    =   167.32 Bohr mag/cell

     convergence has been achieved in   9 iterations

     negative rho (up, down):  2.550E-02 1.800E-02

     Forces acting on atoms (cartesian axes, Ry/au):

     atom    1 type  1   force =     0.00010586    0.00066209    0.00895658
     atom    2 type  1   force =     0.00258079   -0.00392668   -0.01576240
     atom    3 type  1   force =    -0.00087587   -0.00068825    0.00866449
     atom    4 type  1   force =     0.00075932    0.00123678   -0.00843496
     atom    5 type  1   force =    -0.00000698    0.00002862    0.00010011
     atom    6 type  1   force =    -0.00000855    0.00000216   -0.00002525
     atom    7 type  1   force =    -0.00002921    0.00004015   -0.00000313
     atom    8 type  1   force =    -0.00004481   -0.00002734   -0.00002163
     atom    9 type  1   force =     0.00006363    0.00010737    0.00845713
     atom   10 type  1   force =    -0.00064851   -0.00046196    0.00898078
     atom   11 type  1   force =     0.00103501   -0.00025493   -0.00893651
     atom   12 type  1   force =     0.00036207    0.00031314   -0.01313036
     atom   13 type  1   force =     0.00001078    0.00002806   -0.00005080
     atom   14 type  1   force =     0.00003242    0.00005241   -0.00001034
     atom   15 type  1   force =    -0.00003787    0.00007301    0.00002203
     atom   16 type  1   force =     0.00016144    0.00010746    0.00000031
     atom   17 type  1   force =    -0.00094474   -0.00054163    0.00864002
     atom   18 type  1   force =     0.00142608    0.00031164   -0.00840494
     atom   19 type  1   force =     0.00074628    0.00064698    0.00872188
     atom   20 type  1   force =    -0.00123256    0.00150660   -0.00305549
     atom   21 type  1   force =     0.00002703   -0.00003401   -0.00000548
     atom   22 type  1   force =    -0.00003812   -0.00002031   -0.00003149
     atom   23 type  1   force =     0.00000341    0.00003793   -0.00002567
     atom   24 type  1   force =     0.00004283   -0.00002403   -0.00003757
     atom   25 type  1   force =     0.00003320   -0.00002841    0.00746688
     atom   26 type  1   force =    -0.00104245    0.00132623    0.00835713
     atom   27 type  1   force =     0.00133421    0.00087077   -0.00374084
     atom   28 type  1   force =     0.00009262   -0.00100955   -0.00827945
     atom   29 type  1   force =    -0.00003460   -0.00002602    0.00000814
     atom   30 type  1   force =     0.00002725    0.00002214    0.00001789
     atom   31 type  1   force =    -0.00001336   -0.00000644   -0.00001851
     atom   32 type  1   force =     0.00005967   -0.00002960   -0.00001232
     atom   33 type  1   force =     0.00006776   -0.00075661    0.00875628
     atom   34 type  1   force =    -0.00062550   -0.00122221   -0.00850528
     atom   35 type  1   force =     0.00066416   -0.00012779    0.00896190
     atom   36 type  1   force =    -0.00288525    0.00381283   -0.01576020
     atom   37 type  1   force =     0.00002548    0.00003735    0.00001159
     atom   38 type  1   force =     0.00002741    0.00001467    0.00003700
     atom   39 type  1   force =     0.00001983   -0.00002676    0.00009130
     atom   40 type  1   force =    -0.00000701    0.00001093   -0.00006094
     atom   41 type  1   force =     0.00016107    0.00005950    0.00932616
     atom   42 type  1   force =     0.00090539   -0.00142489    0.00835886
     atom   43 type  1   force =    -0.00089072   -0.00055552   -0.01256880
     atom   44 type  1   force =    -0.00093851    0.00042160   -0.00820711
     atom   45 type  1   force =     0.00005662    0.00004639    0.00000457
     atom   46 type  1   force =     0.00004630   -0.00000518    0.00004113
     atom   47 type  1   force =     0.00002297    0.00002167    0.00007626
     atom   48 type  1   force =    -0.00001047    0.00006573   -0.00000098
     atom   49 type  1   force =     0.00083992    0.00053679    0.00873853
     atom   50 type  1   force =     0.00106041   -0.00175682   -0.00302102
     atom   51 type  1   force =    -0.00069090    0.00032477    0.00878703
     atom   52 type  1   force =    -0.00135835   -0.00018244   -0.00853574
     atom   53 type  1   force =     0.00003716   -0.00000099   -0.00002148
     atom   54 type  1   force =    -0.00000513    0.00004123   -0.00003013
     atom   55 type  1   force =     0.00003773    0.00000135    0.00000645
     atom   56 type  1   force =     0.00001768    0.00002662    0.00003780
     atom   57 type  1   force =     0.00008945   -0.00004226    0.00844444
     atom   58 type  1   force =     0.00051306    0.00035399    0.00895580
     atom   59 type  1   force =     0.00010572    0.00107461   -0.00887929
     atom   60 type  1   force =    -0.00119633   -0.00091164   -0.00366922
     atom   61 type  1   force =     0.00001352    0.00002297   -0.00004629
     atom   62 type  1   force =    -0.00008348   -0.00003619    0.00002832
     atom   63 type  1   force =     0.00004189   -0.00005752    0.00003876
     atom   64 type  1   force =    -0.00002988   -0.00002708    0.00006326
     atom   65 type  2   force =    -0.00004765   -0.00003642    0.00006660
     atom   66 type  3   force =     0.00006934    0.00000293    0.00006821

     Total force =     0.000421     Total SCF correction =     0.000024

     bfgs converged in  18 scf cycles and  17 bfgs steps
     (criteria: energy <  7.3E-07 Ry, force <  3.9E-04 Ry/Bohr)

     End of BFGS Geometry Optimization

     Final energy   =  -21093.7670171367 Ry
Begin final coordinates

ATOMIC_POSITIONS (angstrom)
Fe       1.654912953   1.170200133   0.000000000    0   0   0
Fe       0.000000000   0.000000000   2.026984232    0   0   0
Fe       4.964738858   3.510600399   0.000000000    0   0   0
Fe       3.309825906   2.340400266   2.026984232    0   0   0
Fe       1.679707415   1.166328204   4.025084094
Fe       3.334451713   9.326285736   6.018407781
Fe       4.959884175   3.534800585   4.042673409
Fe       3.394335855   2.334744960   6.022689771
Fe       2.482363858   3.510600399   0.000000000    0   0   0
Fe       4.137287953   1.170200133   0.000000000    0   0   0
Fe       0.827450906   2.340400266   2.026984232    0   0   0
Fe       2.482375000   0.000000000   2.026984232    0   0   0
Fe       2.482846406   3.509109192   4.047716530
Fe       4.160672573   1.186770497   4.031348815
Fe       0.914571552   2.302542265   6.023972530
Fe       2.509053507   0.018974800   6.017898026
Fe       6.619662953   1.170200133   0.000000000    0   0   0
Fe       4.964750000   0.000000000   2.026984232    0   0   0
Fe       9.929488858   3.510600399   0.000000000    0   0   0
Fe       8.274575906   2.340400266   2.026984232    0   0   0
Fe       6.640692505   1.157218606   4.042408467
Fe       4.987428193   0.081190209   6.022939213
Fe       9.933003939   3.484473037   4.039507535
Fe       8.457508714   2.081914962   5.981959315
Fe       7.447113858   3.510600399   0.000000000    0   0   0
Fe       9.102037953   1.170200133   0.000000000    0   0   0
Fe       5.792200906   2.340400266   2.026984232    0   0   0
Fe       7.447125000   0.000000000   2.026984232    0   0   0
Fe       7.446460947   3.509692751   4.058236246
Fe       9.130834797   1.125902697   4.001704265
Fe       5.882476625   2.403489632   6.004809114
Fe      10.770214084   9.267960524   6.029737971
Fe       3.309814764   5.851000664   0.000000000    0   0   0
Fe       1.654901811   4.680800531   2.026984232    0   0   0
Fe       6.619640670   8.191400930   0.000000000    0   0   0
Fe       4.964727717   7.021200797   2.026984232    0   0   0
Fe       3.284076657   5.852967442   4.029375017
Fe      11.502886749   4.675010555   6.018748395
Fe       6.624405120   8.215958337   4.025308389
Fe       4.939747436   7.056183200   6.019379566
Fe       4.137265670   8.191400930   0.000000000    0   0   0
Fe       5.792189764   5.851000664   0.000000000    0   0   0
Fe       2.482352717   7.021200797   2.026984232    0   0   0
Fe       4.137276811   4.680800531   2.026984232    0   0   0
Fe       4.135302045   8.189888197   4.010579606
Fe       5.759820328   5.893078660   4.001949994
Fe      12.369842764   6.991373226   6.023174082
Fe       4.053767583   4.724760749   6.029961700
Fe       8.274564764   5.851000664   0.000000000    0   0   0
Fe       6.619651811   4.680800531   2.026984232    0   0   0
Fe      11.584390670   8.191400930   0.000000000    0   0   0
Fe       9.929477717   7.021200797   2.026984232    0   0   0
Fe       8.250836700   5.862693641   4.039686468
Fe       6.437298610   4.938656422   5.981760789
Fe      11.577838231   8.166431441   4.029283003
Fe       9.896670378   6.946223995   6.018414059
Fe       9.102015670   8.191400930   0.000000000    0   0   0
Fe      10.756939764   5.851000664   0.000000000    0   0   0
Fe       7.447102717   7.021200797   2.026984232    0   0   0
Fe       9.102026811   4.680800531   2.026984232    0   0   0
Fe       9.100839259   8.192129839   4.047690233
Fe      10.731274963   5.832958681   4.029970835
Fe       7.440065602   7.115480496   6.024255314
Fe       9.013834187   4.617983265   6.002439759
N        7.448817600   3.511324022   6.341505146
H        4.597370724   8.517584265   6.972362271
End final coordinates



     Writing output data file Fe_N_H_paper_480c.save/

     init_run     :     80.03s CPU     81.47s WALL (       1 calls)
     electrons    :  44012.64s CPU  44546.83s WALL (      18 calls)
     update_pot   :    346.69s CPU    347.13s WALL (      17 calls)
     forces       :    709.31s CPU    716.42s WALL (      18 calls)

     Called by init_run:
     wfcinit      :     58.70s CPU     59.84s WALL (       1 calls)
     potinit      :      7.98s CPU      8.01s WALL (       1 calls)
     hinit0       :     10.62s CPU     10.68s WALL (       1 calls)

     Called by electrons:
     c_bands      :  37465.41s CPU  37913.12s WALL (     239 calls)
     sum_band     :   3779.88s CPU   3838.47s WALL (     239 calls)
     v_of_rho     :    361.35s CPU    362.91s WALL (     240 calls)
     newd         :     70.67s CPU     73.83s WALL (     240 calls)
     PAW_pot      :    152.72s CPU    153.31s WALL (     257 calls)
     mix_rho      :   2171.74s CPU   2188.61s WALL (     239 calls)

     Called by c_bands:
     init_us_2    :    114.28s CPU    116.58s WALL (    1542 calls)
     cegterg      :  35397.12s CPU  35681.37s WALL (     717 calls)

     Called by sum_band:
     sum_band:bec :      7.96s CPU      7.99s WALL (     768 calls)
     addusdens    :     83.56s CPU     88.63s WALL (     239 calls)

     Called by *egterg:
     h_psi        :  14908.09s CPU  15043.20s WALL (    2684 calls)
     s_psi        :   3054.67s CPU   3060.53s WALL (    2684 calls)
     g_psi        :     39.35s CPU     39.47s WALL (    1964 calls)
     cdiaghg      :   7616.55s CPU   7656.21s WALL (    2579 calls)

     Called by h_psi:
     h_psi:pot    :  14832.21s CPU  14913.93s WALL (    2684 calls)
     h_psi:calbec :   3094.83s CPU   3102.01s WALL (    2684 calls)
     vloc_psi     :   8676.05s CPU   8744.67s WALL (    2684 calls)
     add_vuspsi   :   3061.30s CPU   3067.24s WALL (    2684 calls)

     General routines
     calbec       :   4860.92s CPU   4870.92s WALL (    3668 calls)
     fft          :    256.73s CPU    257.92s WALL (    6285 calls)
     ffts         :   1128.62s CPU   1136.06s WALL (  134528 calls)
     fftw         :   8552.97s CPU   8623.03s WALL ( 2537686 calls)
     interpolate  :     24.37s CPU     24.51s WALL (     480 calls)
     davcio       :      0.92s CPU    149.79s WALL (    5156 calls)

     Parallel routines
     fft_scatt_xy :   1770.70s CPU   1780.18s WALL ( 2678499 calls)
     fft_scatt_yz :   2486.33s CPU   2519.36s WALL ( 2678499 calls)

     PWSCF        :     12h34m CPU     12h43m WALL


   This run was terminated on:   9:52:38   5Jun2022            

=------------------------------------------------------------------------------=
   JOB DONE.
=------------------------------------------------------------------------------=
