
     Program PHONON v.6.7MaX starts on 29Sep2022 at  0:54:51 

     This program is part of the open-source Quantum ESPRESSO suite
     for quantum simulation of materials; please cite
         "P. Giannozzi et al., J. Phys.:Condens. Matter 21 395502 (2009);
         "P. Giannozzi et al., J. Phys.:Condens. Matter 29 465901 (2017);
          URL http://www.quantum-espresso.org", 
     in publications or presentations arising from this work. More details at
     http://www.quantum-espresso.org/quote

     Parallel version (MPI), running on   120 processors

     MPI processes distributed on     1 nodes
     K-points division:     npool     =       8
     R & G space division:  proc/nbgrp/npool/nimage =      15
     Waiting for input...
     Reading input from standard input

     Reading xml data from directory:

     ./NH2_ESM_VA4.save/

     IMPORTANT: XC functional enforced from input :
     Exchange-correlation= PBE
                           (   1   4   3   4   0   0   0)
     Any further DFT definition will be discarded
     Please, verify this is what you really want


     Parallelization info
     --------------------
     sticks:   dense  smooth     PW     G-vecs:    dense   smooth      PW
     Min        3636    1818    468               639190   225950   29545
     Max        3637    1819    470               639197   225953   29547
     Sum       54553   27281   7033              9587919  3389267  443191


     Adding external electric field
        E field amplitude [Ha a.u.]: -7.8812E-03
        Potential amp.       -0.5362 Ry
        Total length         34.0151 bohr


     negative rho (up, down):  2.385E-04 1.668E-04
     Reading collected, re-writing distributed wavefunctions

     Calculation of q =    0.0000000   0.0000000   0.0000000

     phonons (vibrational modes) for NH2                                        

     bravais-lattice index     =            0
     lattice parameter (alat)  =      37.7945  a.u.
     unit-cell volume          =   53986.6760 (a.u.)^3
     number of atoms/cell      =            3
     number of atomic types    =            2
     kinetic-energy cut-off    =      60.0000  Ry
     charge density cut-off    =     480.0000  Ry
     convergence threshold     =      1.0E-12
     beta                      =       0.7000
     number of iterations used =            4
     Exchange-correlation= PBE
                           (   1   4   3   4   0   0   0)


     celldm(1)=   37.79452  celldm(2)=    0.00000  celldm(3)=    0.00000
     celldm(4)=    0.00000  celldm(5)=    0.00000  celldm(6)=    0.00000

     crystal axes: (cart. coord. in units of alat)
               a(1) = (  1.0000  0.0000  0.0000 )  
               a(2) = (  0.0000  1.0000  0.0000 )  
               a(3) = (  0.0000  0.0000  1.0000 )  

     reciprocal axes: (cart. coord. in units 2 pi/alat)
               b(1) = (  1.0000  0.0000  0.0000 )  
               b(2) = (  0.0000  1.0000  0.0000 )  
               b(3) = (  0.0000  0.0000  1.0000 )  


     Atoms inside the unit cell: 

     Cartesian axes

     site n.  atom      mass           positions (alat units)
        1     N   14.0067   tau(    1) = (    0.50000    0.50000    0.00000  )
        2     H    1.0078   tau(    2) = (    0.50000    0.54025   -0.03262  )
        3     H    1.0078   tau(    3) = (    0.50000    0.45975   -0.03262  )

     Computing dynamical matrix for 
                    q = (   0.0000000   0.0000000   0.0000000 )

      2 Sym.Ops. (with q -> -q+G )


     G cutoff =17367.5767  ( 639197 G-vectors)     FFT grid: (270,270,270)
     G cutoff = 8683.7884  ( 225950 G-vectors)  smooth grid: (192,192,192)

     number of k points=    20  Methfessel-Paxton smearing, width (Ry)=  0.0100
                       cart. coord. in units 2pi/alat
        k(    1) = (   0.0000000   0.0000000   0.0000000), wk =   0.0625000
        k(    2) = (   0.0000000   0.2500000   0.0000000), wk =   0.1250000
        k(    3) = (   0.0000000  -0.5000000   0.0000000), wk =   0.0625000
        k(    4) = (   0.2500000   0.0000000   0.0000000), wk =   0.1250000
        k(    5) = (   0.2500000   0.2500000   0.0000000), wk =   0.1250000
        k(    6) = (   0.2500000  -0.5000000   0.0000000), wk =   0.1250000
        k(    7) = (   0.2500000  -0.2500000   0.0000000), wk =   0.1250000
        k(    8) = (  -0.5000000   0.0000000   0.0000000), wk =   0.0625000
        k(    9) = (  -0.5000000   0.2500000   0.0000000), wk =   0.1250000
        k(   10) = (  -0.5000000  -0.5000000   0.0000000), wk =   0.0625000
        k(   11) = (   0.0000000   0.0000000   0.0000000), wk =   0.0625000
        k(   12) = (   0.0000000   0.2500000   0.0000000), wk =   0.1250000
        k(   13) = (   0.0000000  -0.5000000   0.0000000), wk =   0.0625000
        k(   14) = (   0.2500000   0.0000000   0.0000000), wk =   0.1250000
        k(   15) = (   0.2500000   0.2500000   0.0000000), wk =   0.1250000
        k(   16) = (   0.2500000  -0.5000000   0.0000000), wk =   0.1250000
        k(   17) = (   0.2500000  -0.2500000   0.0000000), wk =   0.1250000
        k(   18) = (  -0.5000000   0.0000000   0.0000000), wk =   0.0625000
        k(   19) = (  -0.5000000   0.2500000   0.0000000), wk =   0.1250000
        k(   20) = (  -0.5000000  -0.5000000   0.0000000), wk =   0.0625000

     PseudoPot. # 1 for N  read from file:
     ../../SSSP/N.pbe-n-radius_5.UPF
     MD5 check sum: 16739722b17309cd8fe442a2ace49922
     Pseudo is Ultrasoft + core correction, Zval =  5.0
     Generated using "atomic" code by A. Dal Corso  v.5.1
     Using radial grid of 1085 points,  4 beta functions with: 
                l(1) =   0
                l(2) =   0
                l(3) =   1
                l(4) =   1
     Q(r) pseudized with 0 coefficients 


     PseudoPot. # 2 for H  read from file:
     ../../SSSP/H.pbe-rrkjus_psl.1.0.0.UPF
     MD5 check sum: f52b6d4d1c606e5624b1dc7b2218f220
     Pseudo is Ultrasoft, Zval =  1.0
     Generated using "atomic" code by A. Dal Corso  v.5.1
     Using radial grid of  929 points,  2 beta functions with: 
                l(1) =   0
                l(2) =   0
     Q(r) pseudized with 0 coefficients 


     Mode symmetry, C_1 (1)     point group:


     Atomic displacements:
     There are    9 irreducible representations

     Representation     1      1 modes -  To be done

     Representation     2      1 modes -  To be done

     Representation     3      1 modes -  To be done

     Representation     4      1 modes -  To be done

     Representation     5      1 modes -  To be done

     Representation     6      1 modes -  To be done

     Representation     7      1 modes -  To be done

     Representation     8      1 modes -  To be done

     Representation     9      1 modes -  To be done



     Alpha used in Ewald sum =   2.8000

     -------------------------------------------------
     Parameters for Dispersion (Grimme-D2) Correction:
     -------------------------------------------------
       atom      VdW radius       C_6     

        N          2.640         42.670
        H          1.892          4.857

     Calculating the D2 contribution to the dynamical matrix.
     D2 energy =       -0.00009393 Ry
     Done.


     negative rho (up, down):  2.385E-04 1.668E-04
     PHONON       :   2m58.55s CPU   3m 7.87s WALL



     Representation #   1 mode #   1

     Self-consistent Calculation

     Pert. #  1: Fermi energy shift (Ry) =    -1.2070E-09     0.0000E+00

      iter #   1 total cpu time :   232.2 secs   av.it.:   6.0
      thresh= 1.000E-02 alpha_mix =  0.700 |ddv_scf|^2 =  1.875E-09

     Pert. #  1: Fermi energy shift (Ry) =     3.4349E-10     0.0000E+00

      iter #   2 total cpu time :   272.5 secs   av.it.:  13.1
      thresh= 4.330E-06 alpha_mix =  0.700 |ddv_scf|^2 =  5.763E-10

     Pert. #  1: Fermi energy shift (Ry) =    -6.7662E-09     0.0000E+00

      iter #   3 total cpu time :   316.9 secs   av.it.:  12.6
      thresh= 2.401E-06 alpha_mix =  0.700 |ddv_scf|^2 =  1.540E-11

     Pert. #  1: Fermi energy shift (Ry) =    -2.8882E-08     0.0000E+00

      iter #   4 total cpu time :   363.9 secs   av.it.:  13.2
      thresh= 3.924E-07 alpha_mix =  0.700 |ddv_scf|^2 =  2.967E-13

     End of self-consistent calculation

     Convergence has been achieved 


     Representation #   2 mode #   2

     Self-consistent Calculation

     Pert. #  1: Fermi energy shift (Ry) =     5.1091E-10     0.0000E+00

      iter #   1 total cpu time :   422.2 secs   av.it.:   6.3
      thresh= 1.000E-02 alpha_mix =  0.700 |ddv_scf|^2 =  2.973E-09

     Pert. #  1: Fermi energy shift (Ry) =    -4.9697E-10     0.0000E+00

      iter #   2 total cpu time :   463.6 secs   av.it.:  13.6
      thresh= 5.452E-06 alpha_mix =  0.700 |ddv_scf|^2 =  5.745E-10

     Pert. #  1: Fermi energy shift (Ry) =    -2.0406E-09     0.0000E+00

      iter #   3 total cpu time :   506.3 secs   av.it.:  13.0
      thresh= 2.397E-06 alpha_mix =  0.700 |ddv_scf|^2 =  1.160E-11

     Pert. #  1: Fermi energy shift (Ry) =    -2.8470E-08     0.0000E+00

      iter #   4 total cpu time :   553.1 secs   av.it.:  14.2
      thresh= 3.406E-07 alpha_mix =  0.700 |ddv_scf|^2 =  3.754E-14

     End of self-consistent calculation

     Convergence has been achieved 


     Representation #   3 mode #   3

     Self-consistent Calculation

     Pert. #  1: Fermi energy shift (Ry) =     2.1997E-01     0.0000E+00

      iter #   1 total cpu time :   611.6 secs   av.it.:   7.5
      thresh= 1.000E-02 alpha_mix =  0.700 |ddv_scf|^2 =  4.745E-09

     Pert. #  1: Fermi energy shift (Ry) =     1.1474E-01     0.0000E+00

      iter #   2 total cpu time :   654.9 secs   av.it.:  15.7
      thresh= 6.889E-06 alpha_mix =  0.700 |ddv_scf|^2 =  6.698E-10

     Pert. #  1: Fermi energy shift (Ry) =    -2.4706E-01     0.0000E+00

      iter #   3 total cpu time :   699.1 secs   av.it.:  16.6
      thresh= 2.588E-06 alpha_mix =  0.700 |ddv_scf|^2 =  3.386E-10

     Pert. #  1: Fermi energy shift (Ry) =    -3.3050E-03     0.0000E+00

      iter #   4 total cpu time :   747.8 secs   av.it.:  16.2
      thresh= 1.840E-06 alpha_mix =  0.700 |ddv_scf|^2 =  4.307E-13

     End of self-consistent calculation

     Convergence has been achieved 


     Representation #   4 mode #   4

     Self-consistent Calculation

     Pert. #  1: Fermi energy shift (Ry) =     1.0207E-11     0.0000E+00

      iter #   1 total cpu time :   804.1 secs   av.it.:   4.0
      thresh= 1.000E-02 alpha_mix =  0.700 |ddv_scf|^2 =  6.659E-11

     Pert. #  1: Fermi energy shift (Ry) =    -2.4979E-10     0.0000E+00

      iter #   2 total cpu time :   844.7 secs   av.it.:  12.7
      thresh= 8.160E-07 alpha_mix =  0.700 |ddv_scf|^2 =  6.658E-12

     Pert. #  1: Fermi energy shift (Ry) =     3.6864E-09     0.0000E+00

      iter #   3 total cpu time :   885.5 secs   av.it.:  13.0
      thresh= 2.580E-07 alpha_mix =  0.700 |ddv_scf|^2 =  4.876E-13

     End of self-consistent calculation

     Convergence has been achieved 


     Representation #   5 mode #   5

     Self-consistent Calculation

     Pert. #  1: Fermi energy shift (Ry) =     2.3705E-01     0.0000E+00

      iter #   1 total cpu time :   943.5 secs   av.it.:   6.5
      thresh= 1.000E-02 alpha_mix =  0.700 |ddv_scf|^2 =  2.990E-10

     Pert. #  1: Fermi energy shift (Ry) =    -1.3395E-01     0.0000E+00

      iter #   2 total cpu time :   987.7 secs   av.it.:  17.2
      thresh= 1.729E-06 alpha_mix =  0.700 |ddv_scf|^2 =  1.517E-10

     Pert. #  1: Fermi energy shift (Ry) =     3.7228E-02     0.0000E+00

      iter #   3 total cpu time :  1034.1 secs   av.it.:  16.9
      thresh= 1.232E-06 alpha_mix =  0.700 |ddv_scf|^2 =  4.803E-12

     Pert. #  1: Fermi energy shift (Ry) =     1.1738E-02     0.0000E+00

      iter #   4 total cpu time :  1080.4 secs   av.it.:  17.0
      thresh= 2.192E-07 alpha_mix =  0.700 |ddv_scf|^2 =  5.994E-13

     End of self-consistent calculation

     Convergence has been achieved 


     Representation #   6 mode #   6

     Self-consistent Calculation

     Pert. #  1: Fermi energy shift (Ry) =    -1.8088E-01     0.0000E+00

      iter #   1 total cpu time :  1138.5 secs   av.it.:   6.5
      thresh= 1.000E-02 alpha_mix =  0.700 |ddv_scf|^2 =  2.173E-10

     Pert. #  1: Fermi energy shift (Ry) =     1.4784E-01     0.0000E+00

      iter #   2 total cpu time :  1182.8 secs   av.it.:  17.6
      thresh= 1.474E-06 alpha_mix =  0.700 |ddv_scf|^2 =  1.722E-10

     Pert. #  1: Fermi energy shift (Ry) =    -1.1815E-02     0.0000E+00

      iter #   3 total cpu time :  1227.5 secs   av.it.:  16.9
      thresh= 1.312E-06 alpha_mix =  0.700 |ddv_scf|^2 =  5.470E-12

     Pert. #  1: Fermi energy shift (Ry) =    -8.1980E-03     0.0000E+00

      iter #   4 total cpu time :  1275.0 secs   av.it.:  15.5
      thresh= 2.339E-07 alpha_mix =  0.700 |ddv_scf|^2 =  4.446E-14

     End of self-consistent calculation

     Convergence has been achieved 


     Representation #   7 mode #   7

     Self-consistent Calculation

     Pert. #  1: Fermi energy shift (Ry) =    -2.0343E-12     0.0000E+00

      iter #   1 total cpu time :  1331.4 secs   av.it.:   4.0
      thresh= 1.000E-02 alpha_mix =  0.700 |ddv_scf|^2 =  6.659E-11

     Pert. #  1: Fermi energy shift (Ry) =    -1.4101E-09     0.0000E+00

      iter #   2 total cpu time :  1371.9 secs   av.it.:  12.7
      thresh= 8.160E-07 alpha_mix =  0.700 |ddv_scf|^2 =  6.658E-12

     Pert. #  1: Fermi energy shift (Ry) =     1.5339E-08     0.0000E+00

      iter #   3 total cpu time :  1412.8 secs   av.it.:  13.2
      thresh= 2.580E-07 alpha_mix =  0.700 |ddv_scf|^2 =  4.876E-13

     End of self-consistent calculation

     Convergence has been achieved 


     Representation #   8 mode #   8

     Self-consistent Calculation

     Pert. #  1: Fermi energy shift (Ry) =    -2.3705E-01     0.0000E+00

      iter #   1 total cpu time :  1471.5 secs   av.it.:   6.5
      thresh= 1.000E-02 alpha_mix =  0.700 |ddv_scf|^2 =  2.990E-10

     Pert. #  1: Fermi energy shift (Ry) =     1.3395E-01     0.0000E+00

      iter #   2 total cpu time :  1514.9 secs   av.it.:  17.2
      thresh= 1.729E-06 alpha_mix =  0.700 |ddv_scf|^2 =  1.517E-10

     Pert. #  1: Fermi energy shift (Ry) =    -3.7230E-02     0.0000E+00

      iter #   3 total cpu time :  1559.6 secs   av.it.:  16.9
      thresh= 1.232E-06 alpha_mix =  0.700 |ddv_scf|^2 =  4.803E-12

     Pert. #  1: Fermi energy shift (Ry) =    -1.1739E-02     0.0000E+00

      iter #   4 total cpu time :  1607.4 secs   av.it.:  17.0
      thresh= 2.192E-07 alpha_mix =  0.700 |ddv_scf|^2 =  5.993E-13

     End of self-consistent calculation

     Convergence has been achieved 


     Representation #   9 mode #   9

     Self-consistent Calculation

     Pert. #  1: Fermi energy shift (Ry) =    -1.8088E-01     0.0000E+00

      iter #   1 total cpu time :  1665.3 secs   av.it.:   6.5
      thresh= 1.000E-02 alpha_mix =  0.700 |ddv_scf|^2 =  2.173E-10

     Pert. #  1: Fermi energy shift (Ry) =     1.4784E-01     0.0000E+00

      iter #   2 total cpu time :  1708.9 secs   av.it.:  17.6
      thresh= 1.474E-06 alpha_mix =  0.700 |ddv_scf|^2 =  1.722E-10

     Pert. #  1: Fermi energy shift (Ry) =    -1.1812E-02     0.0000E+00

      iter #   3 total cpu time :  1754.9 secs   av.it.:  16.8
      thresh= 1.312E-06 alpha_mix =  0.700 |ddv_scf|^2 =  5.470E-12

     Pert. #  1: Fermi energy shift (Ry) =    -8.1979E-03     0.0000E+00

      iter #   4 total cpu time :  1801.4 secs   av.it.:  15.5
      thresh= 2.339E-07 alpha_mix =  0.700 |ddv_scf|^2 =  4.446E-14

     End of self-consistent calculation

     Convergence has been achieved 

     Number of q in the star =    1
     List of q in the star:
          1   0.000000000   0.000000000   0.000000000

     Diagonalizing the dynamical matrix

     q = (    0.000000000   0.000000000   0.000000000 ) 

 **************************************************************************
     freq (    1) =     -21.986024 [THz] =    -733.374820 [cm-1]
     freq (    2) =     -15.138004 [THz] =    -504.949470 [cm-1]
     freq (    3) =      -8.607386 [THz] =    -287.111495 [cm-1]
     freq (    4) =       7.218329 [THz] =     240.777534 [cm-1]
     freq (    5) =       8.090342 [THz] =     269.864769 [cm-1]
     freq (    6) =      19.552992 [THz] =     652.217605 [cm-1]
     freq (    7) =      44.961264 [THz] =    1499.746335 [cm-1]
     freq (    8) =      99.367311 [THz] =    3314.536708 [cm-1]
     freq (    9) =     100.975273 [THz] =    3368.172563 [cm-1]
 **************************************************************************

     Mode symmetry, C_1 (1)     point group:

     freq (   1-   1) =       -733.4  [cm-1]   --> A               I+R
     freq (   2-   2) =       -504.9  [cm-1]   --> A               I+R
     freq (   3-   3) =       -287.1  [cm-1]   --> A               I+R
     freq (   4-   4) =        240.8  [cm-1]   --> A               I+R
     freq (   5-   5) =        269.9  [cm-1]   --> A               I+R
     freq (   6-   6) =        652.2  [cm-1]   --> A               I+R
     freq (   7-   7) =       1499.7  [cm-1]   --> A               I+R
     freq (   8-   8) =       3314.5  [cm-1]   --> A               I+R
     freq (   9-   9) =       3368.2  [cm-1]   --> A               I+R
