     Message from routine get_command_line:
     unexpected argument # 4     :-in

     Program PWSCF v.6.7MaX starts on 28Sep2022 at 20:48:33 

     This program is part of the open-source Quantum ESPRESSO suite
     for quantum simulation of materials; please cite
         "P. Giannozzi et al., J. Phys.:Condens. Matter 21 395502 (2009);
         "P. Giannozzi et al., J. Phys.:Condens. Matter 29 465901 (2017);
          URL http://www.quantum-espresso.org", 
     in publications or presentations arising from this work. More details at
     http://www.quantum-espresso.org/quote

     Parallel version (MPI), running on   120 processors

     MPI processes distributed on     1 nodes
     K-points division:     npool     =       8
     R & G space division:  proc/nbgrp/npool/nimage =      15
     Waiting for input...
     Reading input from standard input
Warning: card &CELL ignored
Warning: card / ignored

     Current dimensions of program PWSCF are:
     Max number of different atomic species (ntypx) = 10
     Max number of k-points (npk) =  40000
     Max angular momentum in pseudopotentials (lmaxx) =  3

     IMPORTANT: XC functional enforced from input :
     Exchange-correlation= PBE
                           (   1   4   3   4   0   0   0)
     Any further DFT definition will be discarded
     Please, verify this is what you really want


     -------------------------------------------------
     Parameters for Dispersion (Grimme-D2) Correction:
     -------------------------------------------------
       atom      VdW radius       C_6     

        N          2.640         42.670
        H          1.892          4.857

     Subspace diagonalization in iterative solution of the eigenvalue problem:
     one sub-group per band group will be used
     scalapack distributed-memory algorithm (size of sub-group:  3*  3 procs)


     Parallelization info
     --------------------
     sticks:   dense  smooth     PW     G-vecs:    dense   smooth      PW
     Min        3636    1818    468               639190   225950   29545
     Max        3637    1819    470               639197   225953   29547
     Sum       54553   27281   7033              9587919  3389267  443191



     bravais-lattice index     =            0
     lattice parameter (alat)  =      37.7945  a.u.
     unit-cell volume          =   53986.6760 (a.u.)^3
     number of atoms/cell      =            3
     number of atomic types    =            2
     number of electrons       =         7.00
     number of Kohn-Sham states=            8
     kinetic-energy cutoff     =      60.0000  Ry
     charge density cutoff     =     480.0000  Ry
     scf convergence threshold =      1.0E-08
     mixing beta               =       0.7000
     number of iterations used =           10  plain     mixing
     energy convergence thresh.=      7.3E-07
     force convergence thresh. =      3.9E-04
     Exchange-correlation= PBE
                           (   1   4   3   4   0   0   0)
     nstep                     =           50


     celldm(1)=  37.794522  celldm(2)=   0.000000  celldm(3)=   0.000000
     celldm(4)=   0.000000  celldm(5)=   0.000000  celldm(6)=   0.000000

     crystal axes: (cart. coord. in units of alat)
               a(1) = (   1.000000   0.000000   0.000000 )  
               a(2) = (   0.000000   1.000000   0.000000 )  
               a(3) = (   0.000000   0.000000   1.000000 )  

     reciprocal axes: (cart. coord. in units 2 pi/alat)
               b(1) = (  1.000000  0.000000  0.000000 )  
               b(2) = (  0.000000  1.000000  0.000000 )  
               b(3) = (  0.000000  0.000000  1.000000 )  


     PseudoPot. # 1 for N  read from file:
     ../../SSSP/N.pbe-n-radius_5.UPF
     MD5 check sum: 16739722b17309cd8fe442a2ace49922
     Pseudo is Ultrasoft + core correction, Zval =  5.0
     Generated using "atomic" code by A. Dal Corso  v.5.1
     Using radial grid of 1085 points,  4 beta functions with: 
                l(1) =   0
                l(2) =   0
                l(3) =   1
                l(4) =   1
     Q(r) pseudized with 0 coefficients 


     PseudoPot. # 2 for H  read from file:
     ../../SSSP/H.pbe-rrkjus_psl.1.0.0.UPF
     MD5 check sum: f52b6d4d1c606e5624b1dc7b2218f220
     Pseudo is Ultrasoft, Zval =  1.0
     Generated using "atomic" code by A. Dal Corso  v.5.1
     Using radial grid of  929 points,  2 beta functions with: 
                l(1) =   0
                l(2) =   0
     Q(r) pseudized with 0 coefficients 


     atomic species   valence    mass     pseudopotential
        N              5.00    14.00700     N ( 1.00)
        H              1.00     1.00800     H ( 1.00)

     Starting magnetic structure 
     atomic species   magnetization
        N            0.100
        H            0.100

     No symmetry found



   Cartesian axes

     site n.     atom                  positions (alat units)
         1           N   tau(   1) = (   0.5000000   0.5000000   0.0000000  )
         2           H   tau(   2) = (   0.5000000   0.5404449  -0.0324140  )
         3           H   tau(   3) = (   0.5000000   0.4595551  -0.0324140  )

     number of k points=    10  Methfessel-Paxton smearing, width (Ry)=  0.0100
                       cart. coord. in units 2pi/alat
        k(    1) = (   0.0000000   0.0000000   0.0000000), wk =   0.0625000
        k(    2) = (   0.0000000   0.2500000   0.0000000), wk =   0.1250000
        k(    3) = (   0.0000000  -0.5000000   0.0000000), wk =   0.0625000
        k(    4) = (   0.2500000   0.0000000   0.0000000), wk =   0.1250000
        k(    5) = (   0.2500000   0.2500000   0.0000000), wk =   0.1250000
        k(    6) = (   0.2500000  -0.5000000   0.0000000), wk =   0.1250000
        k(    7) = (   0.2500000  -0.2500000   0.0000000), wk =   0.1250000
        k(    8) = (  -0.5000000   0.0000000   0.0000000), wk =   0.0625000
        k(    9) = (  -0.5000000   0.2500000   0.0000000), wk =   0.1250000
        k(   10) = (  -0.5000000  -0.5000000   0.0000000), wk =   0.0625000

     Dense  grid:  9587919 G-vectors     FFT dimensions: ( 270, 270, 270)

     Smooth grid:  3389267 G-vectors     FFT dimensions: ( 192, 192, 192)

     Estimated max dynamical RAM per process >     388.03 MB

     Estimated total dynamical RAM >      45.47 GB

     Adding external electric field
        E field amplitude [Ha a.u.]: -7.8812E-03
        Potential amp.       -0.5362 Ry
        Total length         34.0151 bohr

     Generating pointlists ...
     new r_m :   0.0214 (alat units)  0.8081 (a.u.) for type    1
     new r_m :   0.0214 (alat units)  0.8081 (a.u.) for type    2

     Initial potential from superposition of free atoms

     starting charge    6.99997, renormalised to    7.00000

     negative rho (up, down):  9.679E-05 7.919E-05
     Starting wfcs are    6 randomized atomic wfcs +    2 random wfcs

     total cpu time spent up to now is       21.4 secs

     Self-consistent Calculation

     iteration #  1     ecut=    60.00 Ry     beta= 0.70
     CG style diagonalization
     c_bands:  1 eigenvalues not converged
     c_bands:  1 eigenvalues not converged
     c_bands:  1 eigenvalues not converged
     ethr =  1.00E-04,  avg # of iterations = 10.7

     negative rho (up, down):  2.203E-04 1.464E-04

     total cpu time spent up to now is       54.1 secs

     total energy              =     -22.31598258 Ry
     estimated scf accuracy    <       0.32814584 Ry

     total magnetization       =     1.00 Bohr mag/cell
     absolute magnetization    =     1.01 Bohr mag/cell

     iteration #  2     ecut=    60.00 Ry     beta= 0.70
     CG style diagonalization
     ethr =  4.69E-03,  avg # of iterations =  3.4

     negative rho (up, down):  1.768E-04 1.761E-04

     total cpu time spent up to now is       72.5 secs

     total energy              =     -22.37288763 Ry
     estimated scf accuracy    <       0.11564207 Ry

     total magnetization       =     1.00 Bohr mag/cell
     absolute magnetization    =     1.04 Bohr mag/cell

     iteration #  3     ecut=    60.00 Ry     beta= 0.70
     CG style diagonalization
     ethr =  1.65E-03,  avg # of iterations =  3.3

     negative rho (up, down):  2.262E-04 1.685E-04

     total cpu time spent up to now is       90.8 secs

     total energy              =     -22.41914629 Ry
     estimated scf accuracy    <       0.00230230 Ry

     total magnetization       =     1.00 Bohr mag/cell
     absolute magnetization    =     1.05 Bohr mag/cell

     iteration #  4     ecut=    60.00 Ry     beta= 0.70
     CG style diagonalization
     ethr =  3.29E-05,  avg # of iterations =  5.5

     negative rho (up, down):  2.295E-04 1.637E-04

     total cpu time spent up to now is      113.6 secs

     total energy              =     -22.42043102 Ry
     estimated scf accuracy    <       0.00125215 Ry

     total magnetization       =     1.00 Bohr mag/cell
     absolute magnetization    =     1.07 Bohr mag/cell

     iteration #  5     ecut=    60.00 Ry     beta= 0.70
     CG style diagonalization
     ethr =  1.79E-05,  avg # of iterations =  5.8

     negative rho (up, down):  2.367E-04 1.670E-04

     total cpu time spent up to now is      137.0 secs

     total energy              =     -22.42085207 Ry
     estimated scf accuracy    <       0.00009854 Ry

     total magnetization       =     1.00 Bohr mag/cell
     absolute magnetization    =     1.07 Bohr mag/cell

     iteration #  6     ecut=    60.00 Ry     beta= 0.70
     CG style diagonalization
     c_bands:  1 eigenvalues not converged
     ethr =  1.41E-06,  avg # of iterations =  6.7

     negative rho (up, down):  2.383E-04 1.671E-04

     total cpu time spent up to now is      162.1 secs

     total energy              =     -22.42060745 Ry
     estimated scf accuracy    <       0.00001915 Ry

     total magnetization       =     1.00 Bohr mag/cell
     absolute magnetization    =     1.07 Bohr mag/cell

     iteration #  7     ecut=    60.00 Ry     beta= 0.70
     CG style diagonalization
     ethr =  2.74E-07,  avg # of iterations =  4.9

     negative rho (up, down):  2.380E-04 1.668E-04

     total cpu time spent up to now is      183.7 secs

     total energy              =     -22.42061749 Ry
     estimated scf accuracy    <       0.00000354 Ry

     total magnetization       =     1.00 Bohr mag/cell
     absolute magnetization    =     1.07 Bohr mag/cell

     iteration #  8     ecut=    60.00 Ry     beta= 0.70
     CG style diagonalization
     ethr =  5.06E-08,  avg # of iterations =  4.1

     negative rho (up, down):  2.383E-04 1.667E-04

     total cpu time spent up to now is      204.2 secs

     total energy              =     -22.42061789 Ry
     estimated scf accuracy    <       0.00000037 Ry

     total magnetization       =     1.00 Bohr mag/cell
     absolute magnetization    =     1.07 Bohr mag/cell

     iteration #  9     ecut=    60.00 Ry     beta= 0.70
     CG style diagonalization
     ethr =  5.27E-09,  avg # of iterations =  3.8

     negative rho (up, down):  2.383E-04 1.667E-04

     total cpu time spent up to now is      224.2 secs

     total energy              =     -22.42061822 Ry
     estimated scf accuracy    <       0.00000021 Ry

     total magnetization       =     1.00 Bohr mag/cell
     absolute magnetization    =     1.07 Bohr mag/cell

     iteration # 10     ecut=    60.00 Ry     beta= 0.70
     CG style diagonalization
     ethr =  3.05E-09,  avg # of iterations =  3.4

     negative rho (up, down):  2.384E-04 1.667E-04

     total cpu time spent up to now is      243.5 secs

     total energy              =     -22.42061820 Ry
     estimated scf accuracy    <       0.00000016 Ry

     total magnetization       =     1.00 Bohr mag/cell
     absolute magnetization    =     1.07 Bohr mag/cell

     iteration # 11     ecut=    60.00 Ry     beta= 0.70
     CG style diagonalization
     ethr =  2.27E-09,  avg # of iterations =  3.6

     negative rho (up, down):  2.384E-04 1.667E-04

     total cpu time spent up to now is      263.1 secs

     total energy              =     -22.42061824 Ry
     estimated scf accuracy    <       0.00000002 Ry

     total magnetization       =     1.00 Bohr mag/cell
     absolute magnetization    =     1.07 Bohr mag/cell

     iteration # 12     ecut=    60.00 Ry     beta= 0.70
     CG style diagonalization
     ethr =  2.69E-10,  avg # of iterations =  3.5

     negative rho (up, down):  2.384E-04 1.667E-04

     Magnetic moment per site:
     atom:    1    charge:    1.3470    magn:    0.2673    constr:    0.0000
     atom:    2    charge:    0.4517    magn:   -0.0052    constr:    0.0000
     atom:    3    charge:    0.4517    magn:   -0.0052    constr:    0.0000

     total cpu time spent up to now is      280.1 secs

     End of self-consistent calculation

 ------ SPIN UP ------------


          k = 0.0000 0.0000 0.0000 (423701 PWs)   bands (ev):

   -23.9302 -14.2604 -10.5830 -10.2807  -3.2311  -2.2856  -2.2024  -2.1327

          k = 0.0000 0.2500 0.0000 (423725 PWs)   bands (ev):

   -23.9302 -14.2604 -10.5830 -10.2807  -3.2307  -2.3208  -2.1727  -2.1193

          k = 0.0000-0.5000 0.0000 (423542 PWs)   bands (ev):

   -23.9302 -14.2604 -10.5830 -10.2807  -3.2303  -2.3445  -2.1390  -2.1027

          k = 0.2500 0.0000 0.0000 (423725 PWs)   bands (ev):

   -23.9302 -14.2604 -10.5830 -10.2807  -3.2308  -2.2988  -2.1941  -2.1498

          k = 0.2500 0.2500 0.0000 (423766 PWs)   bands (ev):

   -23.9302 -14.2604 -10.5830 -10.2807  -3.2304  -2.3079  -2.2339  -2.0496

          k = 0.2500-0.5000 0.0000 (423782 PWs)   bands (ev):

   -23.9302 -14.2604 -10.5830 -10.2807  -3.2300  -2.3278  -2.2185  -2.1120

          k = 0.2500-0.2500 0.0000 (423766 PWs)   bands (ev):

   -23.9302 -14.2604 -10.5830 -10.2807  -3.2304  -2.3075  -2.2308  -2.0449

          k =-0.5000 0.0000 0.0000 (423542 PWs)   bands (ev):

   -23.9302 -14.2604 -10.5830 -10.2807  -3.2304  -2.3127  -2.1852  -2.1475

          k =-0.5000 0.2500 0.0000 (423782 PWs)   bands (ev):

   -23.9302 -14.2604 -10.5830 -10.2807  -3.2301  -2.2917  -2.2669  -2.0883

          k =-0.5000-0.5000 0.0000 (423708 PWs)   bands (ev):

   -23.9302 -14.2604 -10.5830 -10.2807  -3.2298  -2.3009  -2.2514  -2.1798

 ------ SPIN DOWN ----------


          k = 0.0000 0.0000 0.0000 (423701 PWs)   bands (ev):

   -22.6681 -13.8958 -10.0031  -7.1041  -3.0209  -2.2698  -2.1672  -2.0299

          k = 0.0000 0.2500 0.0000 (423725 PWs)   bands (ev):

   -22.6681 -13.8958 -10.0031  -7.1041  -3.0201  -2.3041  -2.1470  -2.0025

          k = 0.0000-0.5000 0.0000 (423542 PWs)   bands (ev):

   -22.6681 -13.8958 -10.0031  -7.1041  -3.0192  -2.3300  -2.1184  -1.9916

          k = 0.2500 0.0000 0.0000 (423725 PWs)   bands (ev):

   -22.6681 -13.8958 -10.0031  -7.1041  -3.0203  -2.2721  -2.1572  -2.1081

          k = 0.2500 0.2500 0.0000 (423766 PWs)   bands (ev):

   -22.6681 -13.8958 -10.0031  -7.1041  -3.0194  -2.2889  -2.1918  -1.9973

          k = 0.2500-0.5000 0.0000 (423782 PWs)   bands (ev):

   -22.6681 -13.8958 -10.0031  -7.1041  -3.0186  -2.3114  -2.1630  -2.1017

          k = 0.2500-0.2500 0.0000 (423766 PWs)   bands (ev):

   -22.6681 -13.8958 -10.0031  -7.1041  -3.0196  -2.2887  -2.1917  -2.0096

          k =-0.5000 0.0000 0.0000 (423542 PWs)   bands (ev):

   -22.6681 -13.8958 -10.0031  -7.1041  -3.0198  -2.2754  -2.1465  -2.1319

          k =-0.5000 0.2500 0.0000 (423782 PWs)   bands (ev):

   -22.6681 -13.8958 -10.0031  -7.1041  -3.0190  -2.2522  -2.2444  -2.0639

          k =-0.5000-0.5000 0.0000 (423708 PWs)   bands (ev):

   -22.6681 -13.8958 -10.0031  -7.1041  -3.0180  -2.2814  -2.1896  -2.1732

     the Fermi energy is    -7.2186 ev

!    total energy              =     -22.42061825 Ry
     estimated scf accuracy    <          1.0E-09 Ry
     smearing contrib. (-TS)   =       0.00028990 Ry
     internal energy E=F+TS    =     -22.42090815 Ry

     The total energy is F=E-TS. E is the sum of the following terms:
     one-electron contribution =     -49.17973623 Ry
     hartree contribution      =      24.86819060 Ry
     xc contribution           =      -6.71922385 Ry
     ewald contribution        =       7.18903680 Ry
     Dispersion Correction     =      -0.00009835 Ry
     electric field correction =       1.42092288 Ry

     total magnetization       =     1.00 Bohr mag/cell
     absolute magnetization    =     1.07 Bohr mag/cell

     convergence has been achieved in  12 iterations

     negative rho (up, down):  2.384E-04 1.667E-04

     Forces acting on atoms (cartesian axes, Ry/au):

     atom    1 type  1   force =    -0.00000002   -0.00000005    0.00105782
     atom    2 type  2   force =     0.00000001   -0.00220052   -0.00052891
     atom    3 type  2   force =     0.00000001    0.00220056   -0.00052891

     Total force =     0.003201     Total SCF correction =     0.000003

     BFGS Geometry Optimization
     Energy error            =      0.0E+00
     Gradient error          =      2.2E-03

     number of scf cycles    =   1
     number of bfgs steps    =   0

     energy   new            =     -22.4206182513 Ry

     new trust radius        =       0.0022632338 bohr
     new conv_thr            =       0.0000000100 Ry


ATOMIC_POSITIONS (angstrom)
N            10.0000000000       10.0000000000        0.0000000000    0   0   0
H            10.0000000067       10.8077343245       -0.6485607402
H            10.0000000048        9.1922657526       -0.6485607398



     Writing output data file ./NH2_ESM_VA4.save/
     NEW-OLD atomic charge density approx. for the potential

     negative rho (up, down):  1.826E-04 2.033E-04

     Adding external electric field
        E field amplitude [Ha a.u.]: -7.8812E-03
        Potential amp.       -0.5362 Ry
        Total length         34.0151 bohr

     Generating pointlists ...

     total cpu time spent up to now is      302.0 secs

     Self-consistent Calculation

     iteration #  1     ecut=    60.00 Ry     beta= 0.70
     CG style diagonalization
     ethr =  1.00E-06,  avg # of iterations =  2.3

     Threshold (ethr) on eigenvalues was too large:
     Diagonalizing with lowered threshold

     CG style diagonalization
     ethr =  8.58E-09,  avg # of iterations =  2.5

     negative rho (up, down):  2.246E-04 1.754E-04

     total cpu time spent up to now is      325.9 secs

     total energy              =     -22.42062635 Ry
     estimated scf accuracy    <       0.00000075 Ry

     total magnetization       =     1.00 Bohr mag/cell
     absolute magnetization    =     1.07 Bohr mag/cell

     iteration #  2     ecut=    60.00 Ry     beta= 0.70
     CG style diagonalization
     ethr =  1.08E-08,  avg # of iterations =  3.5

     negative rho (up, down):  2.328E-04 1.708E-04

     total cpu time spent up to now is      344.6 secs

     total energy              =     -22.42062653 Ry
     estimated scf accuracy    <       0.00000015 Ry

     total magnetization       =     1.00 Bohr mag/cell
     absolute magnetization    =     1.07 Bohr mag/cell

     iteration #  3     ecut=    60.00 Ry     beta= 0.70
     CG style diagonalization
     ethr =  2.18E-09,  avg # of iterations =  3.5

     negative rho (up, down):  2.386E-04 1.669E-04

     Magnetic moment per site:
     atom:    1    charge:    1.3473    magn:    0.2673    constr:    0.0000
     atom:    2    charge:    0.4523    magn:   -0.0052    constr:    0.0000
     atom:    3    charge:    0.4523    magn:   -0.0052    constr:    0.0000

     total cpu time spent up to now is      361.6 secs

     End of self-consistent calculation

 ------ SPIN UP ------------


          k = 0.0000 0.0000 0.0000 (423701 PWs)   bands (ev):

   -23.9390 -14.2608 -10.5881 -10.2820  -3.2293  -2.2858  -2.2018  -2.1330

          k = 0.0000 0.2500 0.0000 (423725 PWs)   bands (ev):

   -23.9390 -14.2608 -10.5881 -10.2820  -3.2289  -2.3207  -2.1726  -2.1196

          k = 0.0000-0.5000 0.0000 (423542 PWs)   bands (ev):

   -23.9390 -14.2608 -10.5881 -10.2820  -3.2285  -2.3444  -2.1394  -2.1028

          k = 0.2500 0.0000 0.0000 (423725 PWs)   bands (ev):

   -23.9390 -14.2608 -10.5881 -10.2820  -3.2290  -2.2991  -2.1935  -2.1501

          k = 0.2500 0.2500 0.0000 (423766 PWs)   bands (ev):

   -23.9390 -14.2608 -10.5881 -10.2820  -3.2286  -2.3079  -2.2341  -2.0498

          k = 0.2500-0.5000 0.0000 (423782 PWs)   bands (ev):

   -23.9390 -14.2608 -10.5881 -10.2820  -3.2282  -2.3276  -2.2188  -2.1121

          k = 0.2500-0.2500 0.0000 (423766 PWs)   bands (ev):

   -23.9390 -14.2608 -10.5881 -10.2820  -3.2286  -2.3076  -2.2320  -2.0458

          k =-0.5000 0.0000 0.0000 (423542 PWs)   bands (ev):

   -23.9390 -14.2608 -10.5881 -10.2820  -3.2286  -2.3130  -2.1845  -2.1476

          k =-0.5000 0.2500 0.0000 (423782 PWs)   bands (ev):

   -23.9390 -14.2608 -10.5881 -10.2820  -3.2283  -2.2919  -2.2665  -2.0888

          k =-0.5000-0.5000 0.0000 (423708 PWs)   bands (ev):

   -23.9390 -14.2608 -10.5881 -10.2820  -3.2280  -2.3006  -2.2517  -2.1800

 ------ SPIN DOWN ----------


          k = 0.0000 0.0000 0.0000 (423701 PWs)   bands (ev):

   -22.6773 -13.8959 -10.0077  -7.1054  -3.0193  -2.2696  -2.1665  -2.0297

          k = 0.0000 0.2500 0.0000 (423725 PWs)   bands (ev):

   -22.6773 -13.8959 -10.0077  -7.1054  -3.0184  -2.3039  -2.1465  -2.0030

          k = 0.0000-0.5000 0.0000 (423542 PWs)   bands (ev):

   -22.6773 -13.8959 -10.0077  -7.1054  -3.0175  -2.3297  -2.1180  -1.9912

          k = 0.2500 0.0000 0.0000 (423725 PWs)   bands (ev):

   -22.6773 -13.8959 -10.0077  -7.1054  -3.0187  -2.2718  -2.1566  -2.1081

          k = 0.2500 0.2500 0.0000 (423766 PWs)   bands (ev):

   -22.6773 -13.8959 -10.0077  -7.1054  -3.0178  -2.2886  -2.1916  -1.9970

          k = 0.2500-0.5000 0.0000 (423782 PWs)   bands (ev):

   -22.6773 -13.8959 -10.0077  -7.1054  -3.0169  -2.3111  -2.1626  -2.1013

          k = 0.2500-0.2500 0.0000 (423766 PWs)   bands (ev):

   -22.6773 -13.8959 -10.0077  -7.1054  -3.0179  -2.2884  -2.1913  -2.0093

          k =-0.5000 0.0000 0.0000 (423542 PWs)   bands (ev):

   -22.6773 -13.8959 -10.0077  -7.1054  -3.0182  -2.2752  -2.1458  -2.1318

          k =-0.5000 0.2500 0.0000 (423782 PWs)   bands (ev):

   -22.6773 -13.8959 -10.0077  -7.1054  -3.0173  -2.2520  -2.2440  -2.0637

          k =-0.5000-0.5000 0.0000 (423708 PWs)   bands (ev):

   -22.6773 -13.8959 -10.0077  -7.1054  -3.0164  -2.2810  -2.1893  -2.1732

     the Fermi energy is    -7.2200 ev

!    total energy              =     -22.42062658 Ry
     estimated scf accuracy    <          7.1E-09 Ry
     smearing contrib. (-TS)   =       0.00028990 Ry
     internal energy E=F+TS    =     -22.42091647 Ry

     The total energy is F=E-TS. E is the sum of the following terms:
     one-electron contribution =     -49.19325797 Ry
     hartree contribution      =      24.87478527 Ry
     xc contribution           =      -6.72045289 Ry
     ewald contribution        =       7.19719993 Ry
     Dispersion Correction     =      -0.00009702 Ry
     electric field correction =       1.42090621 Ry

     total magnetization       =     1.00 Bohr mag/cell
     absolute magnetization    =     1.07 Bohr mag/cell

     convergence has been achieved in   3 iterations

     negative rho (up, down):  2.386E-04 1.669E-04

     Forces acting on atoms (cartesian axes, Ry/au):

     atom    1 type  1   force =     0.00000001    0.00000007    0.00195425
     atom    2 type  2   force =    -0.00000001   -0.00104434   -0.00097709
     atom    3 type  2   force =    -0.00000000    0.00104426   -0.00097716

     Total force =     0.002023     Total SCF correction =     0.000026
     Energy error            =      8.3E-06
     Gradient error          =      1.0E-03

     number of scf cycles    =   2
     number of bfgs steps    =   1

     energy   old            =     -22.4206182513 Ry
     energy   new            =     -22.4206265794 Ry

     CASE: energy  _new < energy  _old

     new trust radius        =       0.0024895571 bohr
     new conv_thr            =       0.0000000003 Ry


ATOMIC_POSITIONS (angstrom)
N            10.0000000000       10.0000000000        0.0000000000    0   0   0
H            10.0000000021       10.8066642459       -0.6493291925
H            10.0000000028        9.1933357874       -0.6493292364



     Writing output data file ./NH2_ESM_VA4.save/
     NEW-OLD atomic charge density approx. for the potential

     negative rho (up, down):  1.829E-04 2.035E-04

     Adding external electric field
        E field amplitude [Ha a.u.]: -7.8812E-03
        Potential amp.       -0.5362 Ry
        Total length         34.0151 bohr

     Generating pointlists ...

     total cpu time spent up to now is      382.0 secs

     Self-consistent Calculation

     iteration #  1     ecut=    60.00 Ry     beta= 0.70
     CG style diagonalization
     ethr =  1.00E-06,  avg # of iterations =  2.3

     Threshold (ethr) on eigenvalues was too large:
     Diagonalizing with lowered threshold

     CG style diagonalization
     ethr =  3.39E-09,  avg # of iterations =  2.9

     negative rho (up, down):  2.248E-04 1.756E-04

     total cpu time spent up to now is      406.8 secs

     total energy              =     -22.42063317 Ry
     estimated scf accuracy    <       0.00000031 Ry

     total magnetization       =     1.00 Bohr mag/cell
     absolute magnetization    =     1.07 Bohr mag/cell

     iteration #  2     ecut=    60.00 Ry     beta= 0.70
     CG style diagonalization
     ethr =  4.38E-09,  avg # of iterations =  3.0

     negative rho (up, down):  2.354E-04 1.685E-04

     total cpu time spent up to now is      424.5 secs

     total energy              =     -22.42063321 Ry
     estimated scf accuracy    <       0.00000002 Ry

     total magnetization       =     1.00 Bohr mag/cell
     absolute magnetization    =     1.07 Bohr mag/cell

     iteration #  3     ecut=    60.00 Ry     beta= 0.70
     CG style diagonalization
     ethr =  2.63E-10,  avg # of iterations =  3.4

     negative rho (up, down):  2.379E-04 1.672E-04

     total cpu time spent up to now is      443.0 secs

     total energy              =     -22.42063322 Ry
     estimated scf accuracy    <          1.5E-09 Ry

     total magnetization       =     1.00 Bohr mag/cell
     absolute magnetization    =     1.07 Bohr mag/cell

     iteration #  4     ecut=    60.00 Ry     beta= 0.70
     CG style diagonalization
     ethr =  2.09E-11,  avg # of iterations =  3.5

     negative rho (up, down):  2.386E-04 1.670E-04

     Magnetic moment per site:
     atom:    1    charge:    1.3474    magn:    0.2673    constr:    0.0000
     atom:    2    charge:    0.4526    magn:   -0.0052    constr:    0.0000
     atom:    3    charge:    0.4526    magn:   -0.0052    constr:    0.0000

     total cpu time spent up to now is      460.0 secs

     End of self-consistent calculation

 ------ SPIN UP ------------


          k = 0.0000 0.0000 0.0000 (423701 PWs)   bands (ev):

   -23.9443 -14.2563 -10.5940 -10.2825  -3.2285  -2.2856  -2.2014  -2.1328

          k = 0.0000 0.2500 0.0000 (423725 PWs)   bands (ev):

   -23.9443 -14.2563 -10.5940 -10.2825  -3.2281  -2.3206  -2.1724  -2.1195

          k = 0.0000-0.5000 0.0000 (423542 PWs)   bands (ev):

   -23.9443 -14.2563 -10.5939 -10.2825  -3.2277  -2.3443  -2.1393  -2.1026

          k = 0.2500 0.0000 0.0000 (423725 PWs)   bands (ev):

   -23.9443 -14.2563 -10.5940 -10.2825  -3.2282  -2.2989  -2.1931  -2.1501

          k = 0.2500 0.2500 0.0000 (423766 PWs)   bands (ev):

   -23.9443 -14.2563 -10.5940 -10.2825  -3.2278  -2.3078  -2.2341  -2.0497

          k = 0.2500-0.5000 0.0000 (423782 PWs)   bands (ev):

   -23.9443 -14.2563 -10.5940 -10.2825  -3.2274  -2.3274  -2.2186  -2.1119

          k = 0.2500-0.2500 0.0000 (423766 PWs)   bands (ev):

   -23.9443 -14.2563 -10.5940 -10.2825  -3.2278  -2.3076  -2.2328  -2.0463

          k =-0.5000 0.0000 0.0000 (423542 PWs)   bands (ev):

   -23.9443 -14.2563 -10.5939 -10.2825  -3.2279  -2.3128  -2.1841  -2.1476

          k =-0.5000 0.2500 0.0000 (423782 PWs)   bands (ev):

   -23.9443 -14.2563 -10.5940 -10.2825  -3.2275  -2.2917  -2.2663  -2.0889

          k =-0.5000-0.5000 0.0000 (423708 PWs)   bands (ev):

   -23.9443 -14.2563 -10.5940 -10.2825  -3.2272  -2.3004  -2.2514  -2.1799

 ------ SPIN DOWN ----------


          k = 0.0000 0.0000 0.0000 (423701 PWs)   bands (ev):

   -22.6831 -13.8913 -10.0133  -7.1061  -3.0186  -2.2699  -2.1663  -2.0301

          k = 0.0000 0.2500 0.0000 (423725 PWs)   bands (ev):

   -22.6831 -13.8913 -10.0133  -7.1061  -3.0177  -2.3040  -2.1467  -2.0036

          k = 0.0000-0.5000 0.0000 (423542 PWs)   bands (ev):

   -22.6831 -13.8913 -10.0133  -7.1061  -3.0168  -2.3297  -2.1186  -1.9913

          k = 0.2500 0.0000 0.0000 (423725 PWs)   bands (ev):

   -22.6831 -13.8913 -10.0133  -7.1061  -3.0180  -2.2722  -2.1564  -2.1085

          k = 0.2500 0.2500 0.0000 (423766 PWs)   bands (ev):

   -22.6831 -13.8913 -10.0133  -7.1061  -3.0171  -2.2887  -2.1920  -1.9972

          k = 0.2500-0.5000 0.0000 (423782 PWs)   bands (ev):

   -22.6831 -13.8913 -10.0133  -7.1061  -3.0162  -2.3111  -2.1630  -2.1015

          k = 0.2500-0.2500 0.0000 (423766 PWs)   bands (ev):

   -22.6831 -13.8913 -10.0133  -7.1061  -3.0172  -2.2886  -2.1916  -2.0097

          k =-0.5000 0.0000 0.0000 (423542 PWs)   bands (ev):

   -22.6831 -13.8913 -10.0133  -7.1061  -3.0175  -2.2757  -2.1455  -2.1320

          k =-0.5000 0.2500 0.0000 (423782 PWs)   bands (ev):

   -22.6831 -13.8913 -10.0133  -7.1061  -3.0166  -2.2524  -2.2439  -2.0641

          k =-0.5000-0.5000 0.0000 (423708 PWs)   bands (ev):

   -22.6831 -13.8913 -10.0133  -7.1061  -3.0157  -2.2809  -2.1900  -2.1735

     the Fermi energy is    -7.2207 ev

!    total energy              =     -22.42063322 Ry
     estimated scf accuracy    <          1.2E-10 Ry
     smearing contrib. (-TS)   =       0.00028990 Ry
     internal energy E=F+TS    =     -22.42092311 Ry

     The total energy is F=E-TS. E is the sum of the following terms:
     one-electron contribution =     -49.20024307 Ry
     hartree contribution      =      24.87805066 Ry
     xc contribution           =      -6.72103780 Ry
     ewald contribution        =       7.20154250 Ry
     Dispersion Correction     =      -0.00009583 Ry
     electric field correction =       1.42086043 Ry

     total magnetization       =     1.00 Bohr mag/cell
     absolute magnetization    =     1.07 Bohr mag/cell

     convergence has been achieved in   4 iterations

     negative rho (up, down):  2.386E-04 1.670E-04

     Forces acting on atoms (cartesian axes, Ry/au):

     atom    1 type  1   force =     0.00000000   -0.00000001    0.00212234
     atom    2 type  2   force =    -0.00000000   -0.00026667   -0.00106117
     atom    3 type  2   force =    -0.00000000    0.00026668   -0.00106117

     Total force =     0.001547     Total SCF correction =     0.000004
     Energy error            =      6.6E-06
     Gradient error          =      1.1E-03

     number of scf cycles    =   3
     number of bfgs steps    =   2

     energy   old            =     -22.4206265794 Ry
     energy   new            =     -22.4206332196 Ry

     CASE: energy  _new < energy  _old

     new trust radius        =       0.0037343357 bohr
     new conv_thr            =       0.0000000003 Ry


ATOMIC_POSITIONS (angstrom)
N            10.0000000000       10.0000000000        0.0000000000    0   0   0
H            10.0000000025       10.8053752051       -0.6508269901
H            10.0000000049        9.1946248360       -0.6508270431



     Writing output data file ./NH2_ESM_VA4.save/
     NEW-OLD atomic charge density approx. for the potential

     negative rho (up, down):  1.829E-04 2.055E-04

     Adding external electric field
        E field amplitude [Ha a.u.]: -7.8812E-03
        Potential amp.       -0.5362 Ry
        Total length         34.0151 bohr

     Generating pointlists ...

     total cpu time spent up to now is      480.7 secs

     Self-consistent Calculation

     iteration #  1     ecut=    60.00 Ry     beta= 0.70
     CG style diagonalization
     ethr =  1.00E-06,  avg # of iterations =  2.4

     Threshold (ethr) on eigenvalues was too large:
     Diagonalizing with lowered threshold

     CG style diagonalization
     ethr =  6.60E-09,  avg # of iterations =  2.5

     negative rho (up, down):  2.372E-04 1.911E-04

     total cpu time spent up to now is      506.1 secs

     total energy              =     -22.42063997 Ry
     estimated scf accuracy    <       0.00000048 Ry

     total magnetization       =     1.00 Bohr mag/cell
     absolute magnetization    =     1.07 Bohr mag/cell

     iteration #  2     ecut=    60.00 Ry     beta= 0.70
     CG style diagonalization
     ethr =  6.80E-09,  avg # of iterations =  3.2

     negative rho (up, down):  2.374E-04 1.712E-04

     total cpu time spent up to now is      524.2 secs

     total energy              =     -22.42064013 Ry
     estimated scf accuracy    <       0.00000006 Ry

     total magnetization       =     1.00 Bohr mag/cell
     absolute magnetization    =     1.07 Bohr mag/cell

     iteration #  3     ecut=    60.00 Ry     beta= 0.70
     CG style diagonalization
     ethr =  8.21E-10,  avg # of iterations =  3.4

     negative rho (up, down):  2.384E-04 1.676E-04

     total cpu time spent up to now is      542.7 secs

     total energy              =     -22.42064016 Ry
     estimated scf accuracy    <       0.00000001 Ry

     total magnetization       =     1.00 Bohr mag/cell
     absolute magnetization    =     1.07 Bohr mag/cell

     iteration #  4     ecut=    60.00 Ry     beta= 0.70
     CG style diagonalization
     ethr =  1.54E-10,  avg # of iterations =  3.3

     negative rho (up, down):  2.386E-04 1.670E-04

     Magnetic moment per site:
     atom:    1    charge:    1.3473    magn:    0.2673    constr:    0.0000
     atom:    2    charge:    0.4528    magn:   -0.0052    constr:    0.0000
     atom:    3    charge:    0.4528    magn:   -0.0052    constr:    0.0000

     total cpu time spent up to now is      559.4 secs

     End of self-consistent calculation

 ------ SPIN UP ------------


          k = 0.0000 0.0000 0.0000 (423701 PWs)   bands (ev):

   -23.9486 -14.2463 -10.6034 -10.2832  -3.2281  -2.2856  -2.2008  -2.1328

          k = 0.0000 0.2500 0.0000 (423725 PWs)   bands (ev):

   -23.9486 -14.2463 -10.6034 -10.2832  -3.2277  -2.3204  -2.1722  -2.1195

          k = 0.0000-0.5000 0.0000 (423542 PWs)   bands (ev):

   -23.9486 -14.2463 -10.6034 -10.2832  -3.2273  -2.3440  -2.1395  -2.1025

          k = 0.2500 0.0000 0.0000 (423725 PWs)   bands (ev):

   -23.9486 -14.2463 -10.6034 -10.2832  -3.2278  -2.2989  -2.1925  -2.1501

          k = 0.2500 0.2500 0.0000 (423766 PWs)   bands (ev):

   -23.9486 -14.2463 -10.6034 -10.2832  -3.2274  -2.3076  -2.2341  -2.0497

          k = 0.2500-0.5000 0.0000 (423782 PWs)   bands (ev):

   -23.9486 -14.2463 -10.6034 -10.2832  -3.2270  -2.3270  -2.2186  -2.1118

          k = 0.2500-0.2500 0.0000 (423766 PWs)   bands (ev):

   -23.9486 -14.2463 -10.6034 -10.2832  -3.2274  -2.3075  -2.2330  -2.0465

          k =-0.5000 0.0000 0.0000 (423542 PWs)   bands (ev):

   -23.9486 -14.2463 -10.6034 -10.2832  -3.2275  -2.3127  -2.1834  -2.1476

          k =-0.5000 0.2500 0.0000 (423782 PWs)   bands (ev):

   -23.9486 -14.2463 -10.6034 -10.2832  -3.2271  -2.2917  -2.2659  -2.0891

          k =-0.5000-0.5000 0.0000 (423708 PWs)   bands (ev):

   -23.9486 -14.2463 -10.6034 -10.2832  -3.2267  -2.3000  -2.2514  -2.1799

 ------ SPIN DOWN ----------


          k = 0.0000 0.0000 0.0000 (423701 PWs)   bands (ev):

   -22.6878 -13.8811 -10.0223  -7.1069  -3.0183  -2.2699  -2.1657  -2.0300

          k = 0.0000 0.2500 0.0000 (423725 PWs)   bands (ev):

   -22.6878 -13.8811 -10.0223  -7.1069  -3.0174  -2.3039  -2.1466  -2.0038

          k = 0.0000-0.5000 0.0000 (423542 PWs)   bands (ev):

   -22.6878 -13.8811 -10.0223  -7.1069  -3.0164  -2.3294  -2.1188  -1.9911

          k = 0.2500 0.0000 0.0000 (423725 PWs)   bands (ev):

   -22.6878 -13.8811 -10.0223  -7.1069  -3.0177  -2.2722  -2.1559  -2.1085

          k = 0.2500 0.2500 0.0000 (423766 PWs)   bands (ev):

   -22.6878 -13.8811 -10.0223  -7.1069  -3.0168  -2.2885  -2.1919  -1.9971

          k = 0.2500-0.5000 0.0000 (423782 PWs)   bands (ev):

   -22.6878 -13.8811 -10.0223  -7.1069  -3.0159  -2.3109  -2.1630  -2.1013

          k = 0.2500-0.2500 0.0000 (423766 PWs)   bands (ev):

   -22.6878 -13.8811 -10.0223  -7.1069  -3.0168  -2.2884  -2.1916  -2.0096

          k =-0.5000 0.0000 0.0000 (423542 PWs)   bands (ev):

   -22.6878 -13.8811 -10.0223  -7.1069  -3.0171  -2.2757  -2.1449  -2.1321

          k =-0.5000 0.2500 0.0000 (423782 PWs)   bands (ev):

   -22.6878 -13.8811 -10.0223  -7.1069  -3.0162  -2.2525  -2.2436  -2.0642

          k =-0.5000-0.5000 0.0000 (423708 PWs)   bands (ev):

   -22.6878 -13.8811 -10.0223  -7.1069  -3.0153  -2.2805  -2.1901  -2.1736

     the Fermi energy is    -7.2215 ev

!    total energy              =     -22.42064016 Ry
     estimated scf accuracy    <          1.5E-10 Ry
     smearing contrib. (-TS)   =       0.00028990 Ry
     internal energy E=F+TS    =     -22.42093006 Ry

     The total energy is F=E-TS. E is the sum of the following terms:
     one-electron contribution =     -49.20274160 Ry
     hartree contribution      =      24.87911715 Ry
     xc contribution           =      -6.72119462 Ry
     ewald contribution        =       7.20321224 Ry
     Dispersion Correction     =      -0.00009441 Ry
     electric field correction =       1.42077120 Ry

     total magnetization       =     1.00 Bohr mag/cell
     absolute magnetization    =     1.07 Bohr mag/cell

     convergence has been achieved in   4 iterations

     negative rho (up, down):  2.386E-04 1.670E-04

     Forces acting on atoms (cartesian axes, Ry/au):

     atom    1 type  1   force =    -0.00000000   -0.00000000    0.00156913
     atom    2 type  2   force =     0.00000000    0.00036895   -0.00078456
     atom    3 type  2   force =     0.00000000   -0.00036895   -0.00078457

     Total force =     0.001226     Total SCF correction =     0.000004
     Energy error            =      6.9E-06
     Gradient error          =      7.8E-04

     number of scf cycles    =   4
     number of bfgs steps    =   3

     energy   old            =     -22.4206332196 Ry
     energy   new            =     -22.4206401597 Ry

     CASE: energy  _new < energy  _old

     new trust radius        =       0.0025167803 bohr
     new conv_thr            =       0.0000000002 Ry


ATOMIC_POSITIONS (angstrom)
N            10.0000000000       10.0000000000        0.0000000000    0   0   0
H            10.0000000060       10.8047967061       -0.6520265952
H            10.0000000075        9.1952033438       -0.6520266600



     Writing output data file ./NH2_ESM_VA4.save/
     NEW-OLD atomic charge density approx. for the potential

     negative rho (up, down):  1.829E-04 2.036E-04

     Adding external electric field
        E field amplitude [Ha a.u.]: -7.8812E-03
        Potential amp.       -0.5362 Ry
        Total length         34.0151 bohr

     Generating pointlists ...

     total cpu time spent up to now is      580.0 secs

     Self-consistent Calculation

     iteration #  1     ecut=    60.00 Ry     beta= 0.70
     CG style diagonalization
     ethr =  1.00E-06,  avg # of iterations =  2.2

     Threshold (ethr) on eigenvalues was too large:
     Diagonalizing with lowered threshold

     CG style diagonalization
     ethr =  3.80E-09,  avg # of iterations =  2.8

     negative rho (up, down):  2.246E-04 1.755E-04

     total cpu time spent up to now is      604.5 secs

     total energy              =     -22.42064329 Ry
     estimated scf accuracy    <       0.00000044 Ry

     total magnetization       =     1.00 Bohr mag/cell
     absolute magnetization    =     1.07 Bohr mag/cell

     iteration #  2     ecut=    60.00 Ry     beta= 0.70
     CG style diagonalization
     ethr =  6.23E-09,  avg # of iterations =  3.4

     negative rho (up, down):  2.326E-04 1.712E-04

     total cpu time spent up to now is      623.0 secs

     total energy              =     -22.42064336 Ry
     estimated scf accuracy    <       0.00000013 Ry

     total magnetization       =     1.00 Bohr mag/cell
     absolute magnetization    =     1.07 Bohr mag/cell

     iteration #  3     ecut=    60.00 Ry     beta= 0.70
     CG style diagonalization
     ethr =  1.89E-09,  avg # of iterations =  3.4

     negative rho (up, down):  2.379E-04 1.670E-04

     total cpu time spent up to now is      641.5 secs

     total energy              =     -22.42064342 Ry
     estimated scf accuracy    <          6.1E-09 Ry

     total magnetization       =     1.00 Bohr mag/cell
     absolute magnetization    =     1.07 Bohr mag/cell

     iteration #  4     ecut=    60.00 Ry     beta= 0.70
     CG style diagonalization
     ethr =  8.72E-11,  avg # of iterations =  3.1

     negative rho (up, down):  2.384E-04 1.669E-04

     total cpu time spent up to now is      659.5 secs

     total energy              =     -22.42064342 Ry
     estimated scf accuracy    <          3.8E-10 Ry

     total magnetization       =     1.00 Bohr mag/cell
     absolute magnetization    =     1.07 Bohr mag/cell

     iteration #  5     ecut=    60.00 Ry     beta= 0.70
     CG style diagonalization
     ethr =  5.37E-12,  avg # of iterations =  3.3

     negative rho (up, down):  2.385E-04 1.669E-04

     Magnetic moment per site:
     atom:    1    charge:    1.3472    magn:    0.2673    constr:    0.0000
     atom:    2    charge:    0.4526    magn:   -0.0052    constr:    0.0000
     atom:    3    charge:    0.4526    magn:   -0.0052    constr:    0.0000

     total cpu time spent up to now is      676.1 secs

     End of self-consistent calculation

 ------ SPIN UP ------------


          k = 0.0000 0.0000 0.0000 (423701 PWs)   bands (ev):

   -23.9481 -14.2372 -10.6093 -10.2831  -3.2285  -2.2857  -2.2006  -2.1329

          k = 0.0000 0.2500 0.0000 (423725 PWs)   bands (ev):

   -23.9481 -14.2372 -10.6093 -10.2831  -3.2281  -2.3204  -2.1723  -2.1196

          k = 0.0000-0.5000 0.0000 (423542 PWs)   bands (ev):

   -23.9481 -14.2372 -10.6093 -10.2831  -3.2277  -2.3440  -2.1397  -2.1025

          k = 0.2500 0.0000 0.0000 (423725 PWs)   bands (ev):

   -23.9481 -14.2372 -10.6093 -10.2831  -3.2282  -2.2990  -2.1923  -2.1503

          k = 0.2500 0.2500 0.0000 (423766 PWs)   bands (ev):

   -23.9481 -14.2372 -10.6093 -10.2831  -3.2279  -2.3077  -2.2342  -2.0498

          k = 0.2500-0.5000 0.0000 (423782 PWs)   bands (ev):

   -23.9481 -14.2372 -10.6093 -10.2831  -3.2275  -2.3269  -2.2187  -2.1119

          k = 0.2500-0.2500 0.0000 (423766 PWs)   bands (ev):

   -23.9481 -14.2372 -10.6093 -10.2831  -3.2279  -2.3076  -2.2333  -2.0469

          k =-0.5000 0.0000 0.0000 (423542 PWs)   bands (ev):

   -23.9481 -14.2372 -10.6093 -10.2831  -3.2279  -2.3127  -2.1832  -2.1478

          k =-0.5000 0.2500 0.0000 (423782 PWs)   bands (ev):

   -23.9481 -14.2372 -10.6093 -10.2831  -3.2276  -2.2917  -2.2658  -2.0895

          k =-0.5000-0.5000 0.0000 (423708 PWs)   bands (ev):

   -23.9481 -14.2372 -10.6093 -10.2831  -3.2272  -2.2999  -2.2514  -2.1799

 ------ SPIN DOWN ----------


          k = 0.0000 0.0000 0.0000 (423701 PWs)   bands (ev):

   -22.6875 -13.8720 -10.0281  -7.1069  -3.0187  -2.2700  -2.1655  -2.0301

          k = 0.0000 0.2500 0.0000 (423725 PWs)   bands (ev):

   -22.6875 -13.8720 -10.0281  -7.1069  -3.0178  -2.3040  -2.1466  -2.0043

          k = 0.0000-0.5000 0.0000 (423542 PWs)   bands (ev):

   -22.6875 -13.8720 -10.0281  -7.1069  -3.0168  -2.3293  -2.1190  -1.9911

          k = 0.2500 0.0000 0.0000 (423725 PWs)   bands (ev):

   -22.6875 -13.8720 -10.0281  -7.1069  -3.0181  -2.2722  -2.1557  -2.1088

          k = 0.2500 0.2500 0.0000 (423766 PWs)   bands (ev):

   -22.6875 -13.8720 -10.0281  -7.1069  -3.0172  -2.2885  -2.1920  -1.9973

          k = 0.2500-0.5000 0.0000 (423782 PWs)   bands (ev):

   -22.6875 -13.8720 -10.0281  -7.1069  -3.0163  -2.3108  -2.1630  -2.1012

          k = 0.2500-0.2500 0.0000 (423766 PWs)   bands (ev):

   -22.6875 -13.8720 -10.0281  -7.1069  -3.0172  -2.2884  -2.1916  -2.0098

          k =-0.5000 0.0000 0.0000 (423542 PWs)   bands (ev):

   -22.6875 -13.8720 -10.0281  -7.1069  -3.0175  -2.2757  -2.1446  -2.1324

          k =-0.5000 0.2500 0.0000 (423782 PWs)   bands (ev):

   -22.6875 -13.8720 -10.0281  -7.1069  -3.0167  -2.2525  -2.2435  -2.0642

          k =-0.5000-0.5000 0.0000 (423708 PWs)   bands (ev):

   -22.6875 -13.8720 -10.0281  -7.1069  -3.0158  -2.2804  -2.1901  -2.1737

     the Fermi energy is    -7.2215 ev

!    total energy              =     -22.42064342 Ry
     estimated scf accuracy    <          7.0E-11 Ry
     smearing contrib. (-TS)   =       0.00028990 Ry
     internal energy E=F+TS    =     -22.42093331 Ry

     The total energy is F=E-TS. E is the sum of the following terms:
     one-electron contribution =     -49.19832823 Ry
     hartree contribution      =      24.87684398 Ry
     xc contribution           =      -6.72073197 Ry
     ewald contribution        =       7.20067695 Ry
     Dispersion Correction     =      -0.00009379 Ry
     electric field correction =       1.42069973 Ry

     total magnetization       =     1.00 Bohr mag/cell
     absolute magnetization    =     1.07 Bohr mag/cell

     convergence has been achieved in   5 iterations

     negative rho (up, down):  2.385E-04 1.669E-04

     Forces acting on atoms (cartesian axes, Ry/au):

     atom    1 type  1   force =    -0.00000000   -0.00000000    0.00063046
     atom    2 type  2   force =     0.00000000    0.00036274   -0.00031523
     atom    3 type  2   force =     0.00000000   -0.00036274   -0.00031523

     Total force =     0.000680     Total SCF correction =     0.000003
     Energy error            =      3.3E-06
     Gradient error          =      3.6E-04

     number of scf cycles    =   5
     number of bfgs steps    =   4

     energy   old            =     -22.4206401597 Ry
     energy   new            =     -22.4206434184 Ry

     CASE: energy  _new < energy  _old

     new trust radius        =       0.0006798302 bohr
     new conv_thr            =            1.0E-10 Ry


ATOMIC_POSITIONS (angstrom)
N            10.0000000000       10.0000000000        0.0000000000    0   0   0
H            10.0000000077       10.8048305224       -0.6523847516
H            10.0000000089        9.1951695329       -0.6523848183



     Writing output data file ./NH2_ESM_VA4.save/
     NEW-OLD atomic charge density approx. for the potential

     negative rho (up, down):  1.834E-04 2.033E-04

     Adding external electric field
        E field amplitude [Ha a.u.]: -7.8812E-03
        Potential amp.       -0.5362 Ry
        Total length         34.0151 bohr

     Generating pointlists ...

     total cpu time spent up to now is      697.0 secs

     Self-consistent Calculation

     iteration #  1     ecut=    60.00 Ry     beta= 0.70
     CG style diagonalization
     ethr =  1.00E-06,  avg # of iterations =  2.0

     Threshold (ethr) on eigenvalues was too large:
     Diagonalizing with lowered threshold

     CG style diagonalization
     ethr =  5.43E-10,  avg # of iterations =  3.1

     negative rho (up, down):  2.264E-04 1.777E-04

     total cpu time spent up to now is      721.7 secs

     total energy              =     -22.42064410 Ry
     estimated scf accuracy    <       0.00000012 Ry

     total magnetization       =     1.00 Bohr mag/cell
     absolute magnetization    =     1.07 Bohr mag/cell

     iteration #  2     ecut=    60.00 Ry     beta= 0.70
     CG style diagonalization
     ethr =  1.65E-09,  avg # of iterations =  3.4

     negative rho (up, down):  2.326E-04 1.718E-04

     total cpu time spent up to now is      740.2 secs

     total energy              =     -22.42064414 Ry
     estimated scf accuracy    <       0.00000004 Ry

     total magnetization       =     1.00 Bohr mag/cell
     absolute magnetization    =     1.07 Bohr mag/cell

     iteration #  3     ecut=    60.00 Ry     beta= 0.70
     CG style diagonalization
     ethr =  6.10E-10,  avg # of iterations =  3.4

     negative rho (up, down):  2.374E-04 1.674E-04

     total cpu time spent up to now is      758.8 secs

     total energy              =     -22.42064417 Ry
     estimated scf accuracy    <          6.6E-10 Ry

     total magnetization       =     1.00 Bohr mag/cell
     absolute magnetization    =     1.07 Bohr mag/cell

     iteration #  4     ecut=    60.00 Ry     beta= 0.70
     CG style diagonalization
     ethr =  9.46E-12,  avg # of iterations =  3.4

     negative rho (up, down):  2.382E-04 1.670E-04

     total cpu time spent up to now is      777.5 secs

     total energy              =     -22.42064417 Ry
     estimated scf accuracy    <          2.4E-10 Ry

     total magnetization       =     1.00 Bohr mag/cell
     absolute magnetization    =     1.07 Bohr mag/cell

     iteration #  5     ecut=    60.00 Ry     beta= 0.70
     CG style diagonalization
     ethr =  3.46E-12,  avg # of iterations =  3.3

     negative rho (up, down):  2.385E-04 1.669E-04

     Magnetic moment per site:
     atom:    1    charge:    1.3471    magn:    0.2673    constr:    0.0000
     atom:    2    charge:    0.4524    magn:   -0.0052    constr:    0.0000
     atom:    3    charge:    0.4524    magn:   -0.0052    constr:    0.0000

     total cpu time spent up to now is      794.1 secs

     End of self-consistent calculation

 ------ SPIN UP ------------


          k = 0.0000 0.0000 0.0000 (423701 PWs)   bands (ev):

   -23.9463 -14.2341 -10.6104 -10.2829  -3.2290  -2.2857  -2.2006  -2.1329

          k = 0.0000 0.2500 0.0000 (423725 PWs)   bands (ev):

   -23.9463 -14.2341 -10.6104 -10.2829  -3.2286  -2.3204  -2.1724  -2.1197

          k = 0.0000-0.5000 0.0000 (423542 PWs)   bands (ev):

   -23.9463 -14.2341 -10.6104 -10.2829  -3.2282  -2.3441  -2.1400  -2.1025

          k = 0.2500 0.0000 0.0000 (423725 PWs)   bands (ev):

   -23.9463 -14.2341 -10.6104 -10.2829  -3.2287  -2.2990  -2.1924  -2.1505

          k = 0.2500 0.2500 0.0000 (423766 PWs)   bands (ev):

   -23.9463 -14.2341 -10.6104 -10.2829  -3.2284  -2.3078  -2.2344  -2.0500

          k = 0.2500-0.5000 0.0000 (423782 PWs)   bands (ev):

   -23.9463 -14.2341 -10.6104 -10.2829  -3.2280  -2.3270  -2.2187  -2.1120

          k = 0.2500-0.2500 0.0000 (423766 PWs)   bands (ev):

   -23.9463 -14.2341 -10.6104 -10.2829  -3.2284  -2.3078  -2.2336  -2.0473

          k =-0.5000 0.0000 0.0000 (423542 PWs)   bands (ev):

   -23.9463 -14.2341 -10.6104 -10.2829  -3.2284  -2.3128  -2.1832  -2.1480

          k =-0.5000 0.2500 0.0000 (423782 PWs)   bands (ev):

   -23.9463 -14.2341 -10.6104 -10.2829  -3.2281  -2.2918  -2.2658  -2.0899

          k =-0.5000-0.5000 0.0000 (423708 PWs)   bands (ev):

   -23.9463 -14.2341 -10.6104 -10.2829  -3.2277  -2.3000  -2.2514  -2.1799

 ------ SPIN DOWN ----------


          k = 0.0000 0.0000 0.0000 (423701 PWs)   bands (ev):

   -22.6856 -13.8689 -10.0292  -7.1068  -3.0192  -2.2701  -2.1655  -2.0302

          k = 0.0000 0.2500 0.0000 (423725 PWs)   bands (ev):

   -22.6856 -13.8689 -10.0292  -7.1068  -3.0182  -2.3040  -2.1467  -2.0046

          k = 0.0000-0.5000 0.0000 (423542 PWs)   bands (ev):

   -22.6856 -13.8689 -10.0292  -7.1068  -3.0173  -2.3293  -2.1192  -1.9912

          k = 0.2500 0.0000 0.0000 (423725 PWs)   bands (ev):

   -22.6856 -13.8689 -10.0292  -7.1068  -3.0186  -2.2723  -2.1558  -2.1089

          k = 0.2500 0.2500 0.0000 (423766 PWs)   bands (ev):

   -22.6856 -13.8689 -10.0292  -7.1068  -3.0177  -2.2885  -2.1920  -1.9974

          k = 0.2500-0.5000 0.0000 (423782 PWs)   bands (ev):

   -22.6856 -13.8689 -10.0293  -7.1068  -3.0168  -2.3108  -2.1629  -2.1012

          k = 0.2500-0.2500 0.0000 (423766 PWs)   bands (ev):

   -22.6856 -13.8689 -10.0292  -7.1068  -3.0177  -2.2885  -2.1917  -2.0099

          k =-0.5000 0.0000 0.0000 (423542 PWs)   bands (ev):

   -22.6856 -13.8689 -10.0292  -7.1068  -3.0180  -2.2758  -2.1446  -2.1325

          k =-0.5000 0.2500 0.0000 (423782 PWs)   bands (ev):

   -22.6856 -13.8689 -10.0292  -7.1068  -3.0171  -2.2525  -2.2435  -2.0643

          k =-0.5000-0.5000 0.0000 (423708 PWs)   bands (ev):

   -22.6856 -13.8689 -10.0292  -7.1068  -3.0162  -2.2804  -2.1902  -2.1737

     the Fermi energy is    -7.2213 ev

!    total energy              =     -22.42064417 Ry
     estimated scf accuracy    <          6.1E-12 Ry
     smearing contrib. (-TS)   =       0.00028990 Ry
     internal energy E=F+TS    =     -22.42093406 Ry

     The total energy is F=E-TS. E is the sum of the following terms:
     one-electron contribution =     -49.19414079 Ry
     hartree contribution      =      24.87479274 Ry
     xc contribution           =      -6.72033834 Ry
     ewald contribution        =       7.19816775 Ry
     Dispersion Correction     =      -0.00009383 Ry
     electric field correction =       1.42067840 Ry

     total magnetization       =     1.00 Bohr mag/cell
     absolute magnetization    =     1.07 Bohr mag/cell

     convergence has been achieved in   5 iterations

     negative rho (up, down):  2.385E-04 1.669E-04

     Forces acting on atoms (cartesian axes, Ry/au):

     atom    1 type  1   force =     0.00000000    0.00000000    0.00012360
     atom    2 type  2   force =    -0.00000000    0.00012935   -0.00006180
     atom    3 type  2   force =     0.00000000   -0.00012935   -0.00006180

     Total force =     0.000203     Total SCF correction =     0.000001
     Energy error            =      7.5E-07
     Gradient error          =      1.3E-04

     number of scf cycles    =   6
     number of bfgs steps    =   5

     energy   old            =     -22.4206434184 Ry
     energy   new            =     -22.4206441685 Ry

     CASE: energy  _new < energy  _old

     new trust radius        =       0.0001858018 bohr
     new conv_thr            =            1.0E-10 Ry


ATOMIC_POSITIONS (angstrom)
N            10.0000000000       10.0000000000        0.0000000000    0   0   0
H            10.0000000079       10.8049276733       -0.6523998794
H            10.0000000092        9.1950723816       -0.6523999467



     Writing output data file ./NH2_ESM_VA4.save/
     NEW-OLD atomic charge density approx. for the potential

     negative rho (up, down):  1.825E-04 2.032E-04

     Adding external electric field
        E field amplitude [Ha a.u.]: -7.8812E-03
        Potential amp.       -0.5362 Ry
        Total length         34.0151 bohr

     Generating pointlists ...

     total cpu time spent up to now is      815.0 secs

     Self-consistent Calculation

     iteration #  1     ecut=    60.00 Ry     beta= 0.70
     CG style diagonalization
     ethr =  1.00E-06,  avg # of iterations =  2.0

     Threshold (ethr) on eigenvalues was too large:
     Diagonalizing with lowered threshold

     CG style diagonalization
     ethr =  5.74E-11,  avg # of iterations =  2.8

     negative rho (up, down):  2.244E-04 1.752E-04

     total cpu time spent up to now is      839.0 secs

     total energy              =     -22.42064421 Ry
     estimated scf accuracy    <       0.00000001 Ry

     total magnetization       =     1.00 Bohr mag/cell
     absolute magnetization    =     1.07 Bohr mag/cell

     iteration #  2     ecut=    60.00 Ry     beta= 0.70
     CG style diagonalization
     ethr =  1.50E-10,  avg # of iterations =  3.4

     negative rho (up, down):  2.325E-04 1.710E-04

     total cpu time spent up to now is      857.5 secs

     total energy              =     -22.42064422 Ry
     estimated scf accuracy    <          2.6E-09 Ry

     total magnetization       =     1.00 Bohr mag/cell
     absolute magnetization    =     1.07 Bohr mag/cell

     iteration #  3     ecut=    60.00 Ry     beta= 0.70
     CG style diagonalization
     ethr =  3.65E-11,  avg # of iterations =  3.4

     negative rho (up, down):  2.385E-04 1.668E-04

     Magnetic moment per site:
     atom:    1    charge:    1.3471    magn:    0.2673    constr:    0.0000
     atom:    2    charge:    0.4523    magn:   -0.0052    constr:    0.0000
     atom:    3    charge:    0.4523    magn:   -0.0052    constr:    0.0000

     total cpu time spent up to now is      874.3 secs

     End of self-consistent calculation

 ------ SPIN UP ------------


          k = 0.0000 0.0000 0.0000 (423701 PWs)   bands (ev):

   -23.9455 -14.2338 -10.6102 -10.2828  -3.2293  -2.2860  -2.2008  -2.1332

          k = 0.0000 0.2500 0.0000 (423725 PWs)   bands (ev):

   -23.9455 -14.2338 -10.6102 -10.2828  -3.2289  -2.3206  -2.1727  -2.1199

          k = 0.0000-0.5000 0.0000 (423542 PWs)   bands (ev):

   -23.9455 -14.2338 -10.6102 -10.2828  -3.2285  -2.3443  -2.1404  -2.1028

          k = 0.2500 0.0000 0.0000 (423725 PWs)   bands (ev):

   -23.9455 -14.2338 -10.6102 -10.2828  -3.2290  -2.2993  -2.1926  -2.1507

          k = 0.2500 0.2500 0.0000 (423766 PWs)   bands (ev):

   -23.9455 -14.2338 -10.6102 -10.2828  -3.2286  -2.3080  -2.2347  -2.0504

          k = 0.2500-0.5000 0.0000 (423782 PWs)   bands (ev):

   -23.9455 -14.2338 -10.6102 -10.2828  -3.2282  -2.3271  -2.2190  -2.1122

          k = 0.2500-0.2500 0.0000 (423766 PWs)   bands (ev):

   -23.9455 -14.2338 -10.6102 -10.2828  -3.2286  -2.3080  -2.2340  -2.0478

          k =-0.5000 0.0000 0.0000 (423542 PWs)   bands (ev):

   -23.9455 -14.2338 -10.6102 -10.2828  -3.2287  -2.3130  -2.1834  -2.1481

          k =-0.5000 0.2500 0.0000 (423782 PWs)   bands (ev):

   -23.9455 -14.2338 -10.6102 -10.2828  -3.2283  -2.2920  -2.2660  -2.0904

          k =-0.5000-0.5000 0.0000 (423708 PWs)   bands (ev):

   -23.9455 -14.2338 -10.6102 -10.2828  -3.2279  -2.3001  -2.2517  -2.1802

 ------ SPIN DOWN ----------


          k = 0.0000 0.0000 0.0000 (423701 PWs)   bands (ev):

   -22.6847 -13.8687 -10.0290  -7.1067  -3.0194  -2.2699  -2.1655  -2.0300

          k = 0.0000 0.2500 0.0000 (423725 PWs)   bands (ev):

   -22.6847 -13.8687 -10.0290  -7.1067  -3.0184  -2.3039  -2.1465  -2.0046

          k = 0.0000-0.5000 0.0000 (423542 PWs)   bands (ev):

   -22.6847 -13.8686 -10.0290  -7.1067  -3.0175  -2.3292  -2.1188  -1.9912

          k = 0.2500 0.0000 0.0000 (423725 PWs)   bands (ev):

   -22.6847 -13.8687 -10.0290  -7.1067  -3.0188  -2.2720  -2.1558  -2.1088

          k = 0.2500 0.2500 0.0000 (423766 PWs)   bands (ev):

   -22.6847 -13.8687 -10.0290  -7.1067  -3.0179  -2.2884  -2.1918  -1.9973

          k = 0.2500-0.5000 0.0000 (423782 PWs)   bands (ev):

   -22.6847 -13.8687 -10.0290  -7.1067  -3.0169  -2.3107  -2.1625  -2.1010

          k = 0.2500-0.2500 0.0000 (423766 PWs)   bands (ev):

   -22.6847 -13.8687 -10.0290  -7.1067  -3.0179  -2.2883  -2.1915  -2.0097

          k =-0.5000 0.0000 0.0000 (423542 PWs)   bands (ev):

   -22.6847 -13.8687 -10.0290  -7.1067  -3.0182  -2.2754  -2.1446  -2.1325

          k =-0.5000 0.2500 0.0000 (423782 PWs)   bands (ev):

   -22.6847 -13.8687 -10.0290  -7.1067  -3.0173  -2.2522  -2.2435  -2.0640

          k =-0.5000-0.5000 0.0000 (423708 PWs)   bands (ev):

   -22.6847 -13.8687 -10.0290  -7.1067  -3.0164  -2.2803  -2.1898  -2.1735

     the Fermi energy is    -7.2212 ev

!    total energy              =     -22.42064422 Ry
     estimated scf accuracy    <          4.2E-11 Ry
     smearing contrib. (-TS)   =       0.00028990 Ry
     internal energy E=F+TS    =     -22.42093411 Ry

     The total energy is F=E-TS. E is the sum of the following terms:
     one-electron contribution =     -49.19263665 Ry
     hartree contribution      =      24.87407109 Ry
     xc contribution           =      -6.72020315 Ry
     ewald contribution        =       7.19725103 Ry
     Dispersion Correction     =      -0.00009393 Ry
     electric field correction =       1.42067750 Ry

     total magnetization       =     1.00 Bohr mag/cell
     absolute magnetization    =     1.07 Bohr mag/cell

     convergence has been achieved in   3 iterations

     negative rho (up, down):  2.385E-04 1.668E-04

     Forces acting on atoms (cartesian axes, Ry/au):

     atom    1 type  1   force =    -0.00000000   -0.00000000   -0.00000150
     atom    2 type  2   force =     0.00000000    0.00001065    0.00000075
     atom    3 type  2   force =    -0.00000000   -0.00001064    0.00000075

     Total force =     0.000015     Total SCF correction =     0.000001
     Energy error            =      4.8E-08
     Gradient error          =      1.1E-05

     bfgs converged in   7 scf cycles and   6 bfgs steps
     (criteria: energy <  7.3E-07 Ry, force <  3.9E-04 Ry/Bohr)

     End of BFGS Geometry Optimization

     Final energy   =     -22.4206442161 Ry

     File ./NH2_ESM_VA4.bfgs deleted, as requested
Begin final coordinates

ATOMIC_POSITIONS (angstrom)
N            10.0000000000       10.0000000000        0.0000000000    0   0   0
H            10.0000000079       10.8049276733       -0.6523998794
H            10.0000000092        9.1950723816       -0.6523999467
End final coordinates



     Writing output data file ./NH2_ESM_VA4.save/

     init_run     :     19.84s CPU     21.25s WALL (       1 calls)
     electrons    :    690.11s CPU    740.86s WALL (       7 calls)
     update_pot   :     46.78s CPU     49.42s WALL (       6 calls)
     forces       :     56.50s CPU     60.62s WALL (       7 calls)

     Called by init_run:
     wfcinit      :      1.51s CPU      1.81s WALL (       1 calls)
     potinit      :      7.42s CPU      8.13s WALL (       1 calls)
     hinit0       :      1.10s CPU      1.24s WALL (       1 calls)

     Called by electrons:
     c_bands      :    280.46s CPU    285.49s WALL (      42 calls)
     sum_band     :     94.73s CPU     98.44s WALL (      42 calls)
     v_of_rho     :    242.07s CPU    263.68s WALL (      43 calls)
     newd         :     31.47s CPU     33.17s WALL (      43 calls)
     mix_rho      :     41.00s CPU     49.88s WALL (      42 calls)

     Called by c_bands:
     init_us_2    :      1.57s CPU      1.63s WALL (     276 calls)
     ccgdiagg     :    225.14s CPU    228.43s WALL (     126 calls)
     wfcrot       :     49.85s CPU     50.53s WALL (      90 calls)

     Called by *cgdiagg:
     h_psi        :    240.12s CPU    243.45s WALL (    3025 calls)
     s_psi        :     12.52s CPU     12.88s WALL (    5960 calls)

     Called by h_psi:
     h_psi:calbec :      9.27s CPU      9.40s WALL (    3025 calls)
     vloc_psi     :    218.74s CPU    221.81s WALL (    3025 calls)
     add_vuspsi   :     10.88s CPU     11.00s WALL (    3025 calls)
     hs_1psi      :    200.07s CPU    203.06s WALL (    2935 calls)
     s_1psi       :     14.41s CPU     14.58s WALL (    2935 calls)

     General routines
     calbec       :     18.16s CPU     18.43s WALL (    6170 calls)
     fft          :    272.40s CPU    280.27s WALL (    1184 calls)
     ffts         :     14.81s CPU     14.95s WALL (     170 calls)
     fftw         :    206.44s CPU    209.56s WALL (    8318 calls)
     interpolate  :     29.62s CPU     31.81s WALL (      86 calls)
     davcio       :      0.11s CPU      5.13s WALL (     657 calls)

     Parallel routines
     fft_scatt_xy :     76.73s CPU     77.88s WALL (    9672 calls)
     fft_scatt_yz :    177.69s CPU    179.89s WALL (    9672 calls)

     PWSCF        :  13m45.63s CPU  14m45.91s WALL


   This run was terminated on:  21: 3:19  28Sep2022            

=------------------------------------------------------------------------------=
   JOB DONE.
=------------------------------------------------------------------------------=
