     Message from routine get_command_line:
     unexpected argument # 4     :-in

     Program PWSCF v.6.7MaX starts on  1Jul2022 at  0:10:33 

     This program is part of the open-source Quantum ESPRESSO suite
     for quantum simulation of materials; please cite
         "P. Giannozzi et al., J. Phys.:Condens. Matter 21 395502 (2009);
         "P. Giannozzi et al., J. Phys.:Condens. Matter 29 465901 (2017);
          URL http://www.quantum-espresso.org", 
     in publications or presentations arising from this work. More details at
     http://www.quantum-espresso.org/quote

     Parallel version (MPI), running on   120 processors

     MPI processes distributed on     1 nodes
     K-points division:     npool     =       8
     R & G space division:  proc/nbgrp/npool/nimage =      15
     Waiting for input...
     Reading input from standard input
Warning: card &CELL ignored
Warning: card / ignored

     Current dimensions of program PWSCF are:
     Max number of different atomic species (ntypx) = 10
     Max number of k-points (npk) =  40000
     Max angular momentum in pseudopotentials (lmaxx) =  3

     IMPORTANT: XC functional enforced from input :
     Exchange-correlation= PBE
                           (   1   4   3   4   0   0   0)
     Any further DFT definition will be discarded
     Please, verify this is what you really want


     -------------------------------------------------
     Parameters for Dispersion (Grimme-D2) Correction:
     -------------------------------------------------
       atom      VdW radius       C_6     

        N          2.640         42.670

     Subspace diagonalization in iterative solution of the eigenvalue problem:
     one sub-group per band group will be used
     scalapack distributed-memory algorithm (size of sub-group:  3*  3 procs)


     Parallelization info
     --------------------
     sticks:   dense  smooth     PW     G-vecs:    dense   smooth      PW
     Min        3636    1818    468               639190   225950   29545
     Max        3637    1819    470               639197   225953   29547
     Sum       54553   27281   7033              9587919  3389267  443191



     bravais-lattice index     =            0
     lattice parameter (alat)  =      37.7945  a.u.
     unit-cell volume          =   53986.6760 (a.u.)^3
     number of atoms/cell      =            1
     number of atomic types    =            1
     number of electrons       =         5.00
     number of Kohn-Sham states=            7
     kinetic-energy cutoff     =      60.0000  Ry
     charge density cutoff     =     480.0000  Ry
     scf convergence threshold =      1.0E-08
     mixing beta               =       0.7000
     number of iterations used =           10  plain     mixing
     energy convergence thresh.=      7.3E-07
     force convergence thresh. =      3.9E-04
     Exchange-correlation= PBE
                           (   1   4   3   4   0   0   0)
     nstep                     =           50


     Effective Screening Medium Method
     =================================
     Boundary Conditions: Metal-Slab-Metal
     field strength                   =     0.02 Ry/a.u.
     grid points for fit at edges     =        4 


     celldm(1)=  37.794522  celldm(2)=   0.000000  celldm(3)=   0.000000
     celldm(4)=   0.000000  celldm(5)=   0.000000  celldm(6)=   0.000000

     crystal axes: (cart. coord. in units of alat)
               a(1) = (   1.000000   0.000000   0.000000 )  
               a(2) = (   0.000000   1.000000   0.000000 )  
               a(3) = (   0.000000   0.000000   1.000000 )  

     reciprocal axes: (cart. coord. in units 2 pi/alat)
               b(1) = (  1.000000  0.000000  0.000000 )  
               b(2) = (  0.000000  1.000000  0.000000 )  
               b(3) = (  0.000000  0.000000  1.000000 )  


     PseudoPot. # 1 for N  read from file:
     ../../SSSP/N.pbe-n-radius_5.UPF
     MD5 check sum: 16739722b17309cd8fe442a2ace49922
     Pseudo is Ultrasoft + core correction, Zval =  5.0
     Generated using "atomic" code by A. Dal Corso  v.5.1
     Using radial grid of 1085 points,  4 beta functions with: 
                l(1) =   0
                l(2) =   0
                l(3) =   1
                l(4) =   1
     Q(r) pseudized with 0 coefficients 


     atomic species   valence    mass     pseudopotential
        N              5.00    14.00700     N ( 1.00)

     Starting magnetic structure 
     atomic species   magnetization
        N            0.100

     No symmetry found



   Cartesian axes

     site n.     atom                  positions (alat units)
         1           N   tau(   1) = (   0.5000000   0.5000000   0.0000000  )

     number of k points=    10  Methfessel-Paxton smearing, width (Ry)=  0.0100
                       cart. coord. in units 2pi/alat
        k(    1) = (   0.0000000   0.0000000   0.0000000), wk =   0.0625000
        k(    2) = (   0.0000000   0.2500000   0.0000000), wk =   0.1250000
        k(    3) = (   0.0000000  -0.5000000   0.0000000), wk =   0.0625000
        k(    4) = (   0.2500000   0.0000000   0.0000000), wk =   0.1250000
        k(    5) = (   0.2500000   0.2500000   0.0000000), wk =   0.1250000
        k(    6) = (   0.2500000  -0.5000000   0.0000000), wk =   0.1250000
        k(    7) = (   0.2500000  -0.2500000   0.0000000), wk =   0.1250000
        k(    8) = (  -0.5000000   0.0000000   0.0000000), wk =   0.0625000
        k(    9) = (  -0.5000000   0.2500000   0.0000000), wk =   0.1250000
        k(   10) = (  -0.5000000  -0.5000000   0.0000000), wk =   0.0625000

     Dense  grid:  9587919 G-vectors     FFT dimensions: ( 270, 270, 270)

     Smooth grid:  3389267 G-vectors     FFT dimensions: ( 192, 192, 192)

     Estimated max dynamical RAM per process >     364.64 MB

     Estimated total dynamical RAM >      42.73 GB
     Generating pointlists ...
     new r_m :   0.4125 (alat units) 15.5902 (a.u.) for type    1

     Initial potential from superposition of free atoms

     starting charge    4.99999, renormalised to    5.00000

     negative rho (up, down):  9.787E-05 8.007E-05
     Starting wfcs are    4 randomized atomic wfcs +    3 random wfcs

     total cpu time spent up to now is       21.0 secs

     Self-consistent Calculation

     iteration #  1     ecut=    60.00 Ry     beta= 0.70
     Davidson diagonalization with overlap
     c_bands:  2 eigenvalues not converged
     ethr =  1.00E-04,  avg # of iterations = 19.4

     negative rho (up, down):  2.477E-04 3.076E-05

     total cpu time spent up to now is       49.1 secs

     total energy              =     -19.79611312 Ry
     estimated scf accuracy    <       0.07692299 Ry

     total magnetization       =     3.00 Bohr mag/cell
     absolute magnetization    =     3.00 Bohr mag/cell

     iteration #  2     ecut=    60.00 Ry     beta= 0.70
     Davidson diagonalization with overlap
     ethr =  1.54E-03,  avg # of iterations =  1.0

     negative rho (up, down):  3.185E-04 1.004E-04

     total cpu time spent up to now is       64.0 secs

     total energy              =     -19.81704362 Ry
     estimated scf accuracy    <       0.01016677 Ry

     total magnetization       =     3.00 Bohr mag/cell
     absolute magnetization    =     3.00 Bohr mag/cell

     iteration #  3     ecut=    60.00 Ry     beta= 0.70
     Davidson diagonalization with overlap
     ethr =  2.03E-04,  avg # of iterations =  1.5

     negative rho (up, down):  3.209E-04 8.467E-05

     total cpu time spent up to now is       79.5 secs

     total energy              =     -19.81804034 Ry
     estimated scf accuracy    <       0.00030382 Ry

     total magnetization       =     3.00 Bohr mag/cell
     absolute magnetization    =     3.00 Bohr mag/cell

     iteration #  4     ecut=    60.00 Ry     beta= 0.70
     Davidson diagonalization with overlap
     ethr =  6.08E-06,  avg # of iterations =  5.0

     negative rho (up, down):  3.288E-04 8.433E-05

     total cpu time spent up to now is       97.0 secs

     total energy              =     -19.81825064 Ry
     estimated scf accuracy    <       0.00005207 Ry

     total magnetization       =     3.00 Bohr mag/cell
     absolute magnetization    =     3.00 Bohr mag/cell

     iteration #  5     ecut=    60.00 Ry     beta= 0.70
     Davidson diagonalization with overlap
     ethr =  1.04E-06,  avg # of iterations =  4.5

     negative rho (up, down):  3.349E-04 8.402E-05

     total cpu time spent up to now is      113.6 secs

     total energy              =     -19.81825633 Ry
     estimated scf accuracy    <       0.00000829 Ry

     total magnetization       =     3.00 Bohr mag/cell
     absolute magnetization    =     3.00 Bohr mag/cell

     iteration #  6     ecut=    60.00 Ry     beta= 0.70
     Davidson diagonalization with overlap
     ethr =  1.66E-07,  avg # of iterations =  2.0

     negative rho (up, down):  3.351E-04 8.421E-05

     total cpu time spent up to now is      129.4 secs

     total energy              =     -19.81825953 Ry
     estimated scf accuracy    <       0.00000116 Ry

     total magnetization       =     3.00 Bohr mag/cell
     absolute magnetization    =     3.00 Bohr mag/cell

     iteration #  7     ecut=    60.00 Ry     beta= 0.70
     Davidson diagonalization with overlap
     ethr =  2.32E-08,  avg # of iterations =  1.0

     negative rho (up, down):  3.350E-04 8.426E-05

     total cpu time spent up to now is      144.8 secs

     total energy              =     -19.81825932 Ry
     estimated scf accuracy    <       0.00000070 Ry

     total magnetization       =     3.00 Bohr mag/cell
     absolute magnetization    =     3.00 Bohr mag/cell

     iteration #  8     ecut=    60.00 Ry     beta= 0.70
     Davidson diagonalization with overlap
     ethr =  1.39E-08,  avg # of iterations =  1.0

     negative rho (up, down):  3.349E-04 8.428E-05

     total cpu time spent up to now is      160.3 secs

     total energy              =     -19.81825927 Ry
     estimated scf accuracy    <       0.00000014 Ry

     total magnetization       =     3.00 Bohr mag/cell
     absolute magnetization    =     3.00 Bohr mag/cell

     iteration #  9     ecut=    60.00 Ry     beta= 0.70
     Davidson diagonalization with overlap
     ethr =  2.80E-09,  avg # of iterations =  2.0

     negative rho (up, down):  3.351E-04 8.431E-05

     Magnetic moment per site:
     atom:    1    charge:    5.0000    magn:    3.0000    constr:    0.0000

     total cpu time spent up to now is      174.3 secs

     End of self-consistent calculation

 ------ SPIN UP ------------


          k = 0.0000 0.0000 0.0000 (423701 PWs)   bands (ev):

   -15.8753  -4.2889  -4.2879  -4.2879   1.5650   1.9391   1.9449

          k = 0.0000 0.2500 0.0000 (423725 PWs)   bands (ev):

   -15.8753  -4.2889  -4.2879  -4.2879   1.5883   1.7769   1.9654

          k = 0.0000-0.5000 0.0000 (423542 PWs)   bands (ev):

   -15.8753  -4.2889  -4.2879  -4.2879   1.6539   1.6643   2.0397

          k = 0.2500 0.0000 0.0000 (423725 PWs)   bands (ev):

   -15.8753  -4.2889  -4.2879  -4.2879   1.5883   1.7768   1.9639

          k = 0.2500 0.2500 0.0000 (423766 PWs)   bands (ev):

   -15.8753  -4.2889  -4.2879  -4.2879   1.6117   1.7978   1.8025

          k = 0.2500-0.5000 0.0000 (423782 PWs)   bands (ev):

   -15.8753  -4.2889  -4.2879  -4.2879   1.6774   1.6877   1.8730

          k = 0.2500-0.2500 0.0000 (423766 PWs)   bands (ev):

   -15.8753  -4.2889  -4.2879  -4.2879   1.6117   1.7977   1.8025

          k =-0.5000 0.0000 0.0000 (423542 PWs)   bands (ev):

   -15.8753  -4.2889  -4.2879  -4.2879   1.6540   1.6641   2.0338

          k =-0.5000 0.2500 0.0000 (423782 PWs)   bands (ev):

   -15.8753  -4.2889  -4.2879  -4.2879   1.6774   1.6875   1.8660

          k =-0.5000-0.5000 0.0000 (423708 PWs)   bands (ev):

   -15.8753  -4.2889  -4.2879  -4.2879   1.7524   1.7555   1.7608

 ------ SPIN DOWN ----------


          k = 0.0000 0.0000 0.0000 (423701 PWs)   bands (ev):

   -11.0581   0.1266   0.1308   0.1308   1.5795   1.9542   1.9558

          k = 0.0000 0.2500 0.0000 (423725 PWs)   bands (ev):

   -11.0581   0.1266   0.1308   0.1308   1.6028   1.7911   1.9790

          k = 0.0000-0.5000 0.0000 (423542 PWs)   bands (ev):

   -11.0581   0.1266   0.1308   0.1308   1.6699   1.6772   2.0517

          k = 0.2500 0.0000 0.0000 (423725 PWs)   bands (ev):

   -11.0581   0.1266   0.1308   0.1308   1.6028   1.7913   1.9793

          k = 0.2500 0.2500 0.0000 (423766 PWs)   bands (ev):

   -11.0581   0.1266   0.1308   0.1308   1.6264   1.8132   1.8159

          k = 0.2500-0.5000 0.0000 (423782 PWs)   bands (ev):

   -11.0581   0.1266   0.1308   0.1308   1.6933   1.7005   1.8871

          k = 0.2500-0.2500 0.0000 (423766 PWs)   bands (ev):

   -11.0581   0.1266   0.1308   0.1308   1.6264   1.8138   1.8162

          k =-0.5000 0.0000 0.0000 (423542 PWs)   bands (ev):

   -11.0581   0.1266   0.1308   0.1308   1.6698   1.6772   2.0488

          k =-0.5000 0.2500 0.0000 (423782 PWs)   bands (ev):

   -11.0581   0.1266   0.1308   0.1308   1.6934   1.7005   1.8880

          k =-0.5000-0.5000 0.0000 (423708 PWs)   bands (ev):

   -11.0581   0.1266   0.1308   0.1308   1.7607   1.7688   1.7732

     the Fermi energy is    -2.2940 ev

!    total energy              =     -19.81825932 Ry
     estimated scf accuracy    <          2.2E-09 Ry
     smearing contrib. (-TS)   =       0.00000000 Ry
     internal energy E=F+TS    =     -19.81825932 Ry

     The total energy is F=E-TS. E is the sum of the following terms:
     one-electron contribution =     -28.73445582 Ry
     hartree contribution      =      16.03144577 Ry
     xc contribution           =      -5.11368522 Ry
     ewald contribution        =      -2.00156400 Ry
     Dispersion Correction     =      -0.00000005 Ry

     total magnetization       =     3.00 Bohr mag/cell
     absolute magnetization    =     3.00 Bohr mag/cell

     convergence has been achieved in   9 iterations

     negative rho (up, down):  3.351E-04 8.431E-05

     Forces acting on atoms (cartesian axes, Ry/au):

     atom    1 type  1   force =     0.00000000    0.00000000    0.00000939

     Total force =     0.000000     Total SCF correction =     0.000000

     BFGS Geometry Optimization
     Energy error            =      0.0E+00
     Gradient error          =      0.0E+00

     bfgs converged in   1 scf cycles and   0 bfgs steps
     (criteria: energy <  7.3E-07 Ry, force <  3.9E-04 Ry/Bohr)

     End of BFGS Geometry Optimization

     Final energy   =     -19.8182593204 Ry
Begin final coordinates

ATOMIC_POSITIONS (angstrom)
N            10.0000000000       10.0000000000        0.0000000000    0   0   0
End final coordinates



     Writing output data file ./N_ESM_p25.save/

     init_run     :     19.80s CPU     20.84s WALL (       1 calls)
     electrons    :    146.48s CPU    155.23s WALL (       1 calls)
     forces       :      7.99s CPU      8.38s WALL (       1 calls)

     Called by init_run:
     wfcinit      :      1.43s CPU      1.53s WALL (       1 calls)
     potinit      :      7.09s CPU      7.64s WALL (       1 calls)
     hinit0       :      1.19s CPU      1.34s WALL (       1 calls)

     Called by electrons:
     c_bands      :     45.22s CPU     46.01s WALL (       9 calls)
     sum_band     :     19.46s CPU     19.97s WALL (       9 calls)
     v_of_rho     :     58.11s CPU     62.28s WALL (      10 calls)
     newd         :      7.78s CPU      7.87s WALL (      10 calls)
     mix_rho      :     12.17s CPU     14.13s WALL (       9 calls)

     Called by c_bands:
     init_us_2    :      0.28s CPU      0.29s WALL (      60 calls)
     cegterg      :     42.83s CPU     43.40s WALL (      27 calls)

     Called by *egterg:
     cdiaghg      :      0.16s CPU      0.18s WALL (     138 calls)
     h_psi        :     39.37s CPU     39.84s WALL (     141 calls)
     s_psi        :      0.39s CPU      0.40s WALL (     141 calls)
     g_psi        :      0.08s CPU      0.08s WALL (     111 calls)

     Called by h_psi:
     h_psi:calbec :      0.42s CPU      0.42s WALL (     141 calls)
     vloc_psi     :     38.36s CPU     38.82s WALL (     141 calls)
     add_vuspsi   :      0.42s CPU      0.43s WALL (     141 calls)

     General routines
     calbec       :      0.59s CPU      0.60s WALL (     180 calls)
     fft          :     60.76s CPU     62.20s WALL (     263 calls)
     ffts         :      3.04s CPU      3.07s WALL (      38 calls)
     fftw         :     36.71s CPU     37.13s WALL (    1459 calls)
     interpolate  :      7.32s CPU      7.40s WALL (      20 calls)
     davcio       :      0.02s CPU      1.34s WALL (     176 calls)

     Parallel routines
     fft_scatt_xy :     15.02s CPU     15.19s WALL (    1760 calls)
     fft_scatt_yz :     37.46s CPU     38.06s WALL (    1760 calls)

     PWSCF        :   2m54.96s CPU   3m 5.92s WALL


   This run was terminated on:   0:13:39   1Jul2022            

=------------------------------------------------------------------------------=
   JOB DONE.
=------------------------------------------------------------------------------=
