
     Program PWSCF v.6.4.1 starts on 12Jun2022 at 21: 3:38 

     This program is part of the open-source Quantum ESPRESSO suite
     for quantum simulation of materials; please cite
         "P. Giannozzi et al., J. Phys.:Condens. Matter 21 395502 (2009);
         "P. Giannozzi et al., J. Phys.:Condens. Matter 29 465901 (2017);
          URL http://www.quantum-espresso.org", 
     in publications or presentations arising from this work. More details at
     http://www.quantum-espresso.org/quote

     Parallel version (MPI), running on   160 processors

     MPI processes distributed on     8 nodes
     K-points division:     npool     =       8
     R & G space division:  proc/nbgrp/npool/nimage =      20
     Waiting for input...
     Reading input from standard input
Warning: card &CELL ignored
Warning: card / ignored

     Current dimensions of program PWSCF are:
     Max number of different atomic species (ntypx) = 10
     Max number of k-points (npk) =  40000
     Max angular momentum in pseudopotentials (lmaxx) =  3

     IMPORTANT: XC functional enforced from input :
     Exchange-correlation      = PBE ( 1  4  3  4 0 0)
     Any further DFT definition will be discarded
     Please, verify this is what you really want

               file Fe.pbe-spn-kjpaw_psl.0.2.1.UPF: wavefunction(s)  3D renormalized

     -------------------------------------------------
     Parameters for Dispersion (Grimme-D2) Correction:
     -------------------------------------------------
       atom      VdW radius       C_6     

        Fe         2.952        374.666
        N          2.640         42.670
        H          1.892          4.857

     Subspace diagonalization in iterative solution of the eigenvalue problem:
     one sub-group per band group will be used
     scalapack distributed-memory algorithm (size of sub-group:  3*  3 procs)


     Parallelization info
     --------------------
     sticks:   dense  smooth     PW     G-vecs:    dense   smooth      PW
     Min         634     317     83               145278    51361    6989
     Max         635     318     84               145287    51370    7000
     Sum       12685    6351   1677              2905599  1027285  139897



     bravais-lattice index     =            0
     lattice parameter (alat)  =      18.7640  a.u.
     unit-cell volume          =   16360.3163 (a.u.)^3
     number of atoms/cell      =           68
     number of atomic types    =            3
     number of electrons       =      1032.00
     number of Kohn-Sham states=          619
     kinetic-energy cutoff     =      60.0000  Ry
     charge density cutoff     =     480.0000  Ry
     convergence threshold     =      1.0E-08
     mixing beta               =       0.2000
     number of iterations used =           10  local-TF  mixing
     Exchange-correlation      = PBE ( 1  4  3  4 0 0)
     nstep                     =           50


     Effective Screening Medium Method
     =================================
     Boundary Conditions: Metal-Slab-Metal
     field strength                   =    -0.01 Ry/a.u.
     grid points for fit at edges     =        4 


     celldm(1)=  18.764036  celldm(2)=   0.000000  celldm(3)=   0.000000
     celldm(4)=   0.000000  celldm(5)=   0.000000  celldm(6)=   0.000000

     crystal axes: (cart. coord. in units of alat)
               a(1) = (   1.000000   0.000000   0.000000 )  
               a(2) = (   0.333330   0.942807   0.000000 )  
               a(3) = (   0.000000   0.000000   2.626577 )  

     reciprocal axes: (cart. coord. in units 2 pi/alat)
               b(1) = (  1.000000 -0.353551  0.000000 )  
               b(2) = (  0.000000  1.060663  0.000000 )  
               b(3) = (  0.000000  0.000000  0.380724 )  


     PseudoPot. # 1 for Fe read from file:
     ../../SSSP/Fe.pbe-spn-kjpaw_psl.0.2.1.UPF
     MD5 check sum: e86618425769142926afa95317d90200
     Pseudo is Projector augmented-wave + core cor, Zval = 16.0
     Generated using "atomic" code by A. Dal Corso v.5.0.99 svn rev. 10869
     Shape of augmentation charge: PSQ
     Using radial grid of 1191 points,  6 beta functions with: 
                l(1) =   0
                l(2) =   0
                l(3) =   1
                l(4) =   1
                l(5) =   2
                l(6) =   2
     Q(r) pseudized with 0 coefficients 


     PseudoPot. # 2 for N  read from file:
     ../../SSSP/N.pbe-n-radius_5.UPF
     MD5 check sum: 16739722b17309cd8fe442a2ace49922
     Pseudo is Ultrasoft + core correction, Zval =  5.0
     Generated using "atomic" code by A. Dal Corso v.5.1
     Using radial grid of 1085 points,  4 beta functions with: 
                l(1) =   0
                l(2) =   0
                l(3) =   1
                l(4) =   1
     Q(r) pseudized with 0 coefficients 


     PseudoPot. # 3 for H  read from file:
     ../../SSSP/H.pbe-rrkjus_psl.1.0.0.UPF
     MD5 check sum: f52b6d4d1c606e5624b1dc7b2218f220
     Pseudo is Ultrasoft, Zval =  1.0
     Generated using "atomic" code by A. Dal Corso v.5.1
     Using radial grid of  929 points,  2 beta functions with: 
                l(1) =   0
                l(2) =   0
     Q(r) pseudized with 0 coefficients 


     atomic species   valence    mass     pseudopotential
        Fe            16.00    55.84500     Fe( 1.00)
        N              5.00    14.00700     N ( 1.00)
        H              1.00     1.00800     H ( 1.00)

     Starting magnetic structure 
     atomic species   magnetization
        Fe           0.100
        N            0.100
        H            0.100

     No symmetry found



   Cartesian axes

     site n.     atom                  positions (alat units)
         1           Fe  tau(   1) = (   0.1666663   0.1178509   0.0000000  )
         2           Fe  tau(   2) = (   0.0000000   0.0000000   0.2041376  )
         3           Fe  tau(   3) = (   0.4999989   0.3535526   0.0000000  )
         4           Fe  tau(   4) = (   0.3333326   0.2357017   0.2041376  )
         5           Fe  tau(   5) = (   0.1668369   0.1179664   0.4056137  )
         6           Fe  tau(   6) = (   0.3333948   0.9428477   0.6043333  )
         7           Fe  tau(   7) = (   0.5005257   0.3539409   0.4049512  )
         8           Fe  tau(   8) = (   0.3334307   0.2358017   0.6041204  )
         9           Fe  tau(   9) = (   0.2499989   0.3535526   0.0000000  )
        10           Fe  tau(  10) = (   0.4166663   0.1178509   0.0000000  )
        11           Fe  tau(  11) = (   0.0833326   0.2357017   0.2041376  )
        12           Fe  tau(  12) = (   0.2500000   0.0000000   0.2041376  )
        13           Fe  tau(  13) = (   0.2500303   0.3536979   0.4056039  )
        14           Fe  tau(  14) = (   0.4168191   0.1178637   0.4056158  )
        15           Fe  tau(  15) = (   0.0833358   0.2361564   0.6054962  )
        16           Fe  tau(  16) = (   0.2504323  -0.0001439   0.6055122  )
        17           Fe  tau(  17) = (   0.6666663   0.1178509   0.0000000  )
        18           Fe  tau(  18) = (   0.5000000   0.0000000   0.2041376  )
        19           Fe  tau(  19) = (   0.9999989   0.3535526   0.0000000  )
        20           Fe  tau(  20) = (   0.8333326   0.2357017   0.2041376  )
        21           Fe  tau(  21) = (   0.6669238   0.1176323   0.4045735  )
        22           Fe  tau(  22) = (   0.4999755  -0.0000906   0.6065746  )
        23           Fe  tau(  23) = (   1.0001041   0.3532419   0.4046086  )
        24           Fe  tau(  24) = (   0.8340634   0.2347098   0.5996506  )
        25           Fe  tau(  25) = (   0.7499989   0.3535526   0.0000000  )
        26           Fe  tau(  26) = (   0.9166663   0.1178509   0.0000000  )
        27           Fe  tau(  27) = (   0.5833326   0.2357017   0.2041376  )
        28           Fe  tau(  28) = (   0.7500000   0.0000000   0.2041376  )
        29           Fe  tau(  29) = (   0.7487792   0.3552564   0.4065778  )
        30           Fe  tau(  30) = (   0.9170874   0.1172970   0.4042016  )
        31           Fe  tau(  31) = (   0.5836685   0.2348251   0.6013713  )
        32           Fe  tau(  32) = (   1.0829121   0.9428579   0.6053617  )
        33           Fe  tau(  33) = (   0.3333315   0.5892543   0.0000000  )
        34           Fe  tau(  34) = (   0.1666652   0.4714034   0.2041376  )
        35           Fe  tau(  35) = (   0.6666640   0.8249560   0.0000000  )
        36           Fe  tau(  36) = (   0.4999978   0.7071052   0.2041376  )
        37           Fe  tau(  37) = (   0.3331818   0.5896118   0.4045503  )
        38           Fe  tau(  38) = (   1.1665462   0.4713975   0.6065742  )
        39           Fe  tau(  39) = (   0.6663808   0.8252023   0.4045885  )
        40           Fe  tau(  40) = (   0.4993463   0.7080862   0.5998126  )
        41           Fe  tau(  41) = (   0.4166640   0.8249560   0.0000000  )
        42           Fe  tau(  42) = (   0.5833315   0.5892543   0.0000000  )
        43           Fe  tau(  43) = (   0.2499978   0.7071052   0.2041376  )
        44           Fe  tau(  44) = (   0.4166652   0.4714034   0.2041376  )
        45           Fe  tau(  45) = (   0.4162782   0.8255467   0.4042228  )
        46           Fe  tau(  46) = (   0.5845005   0.5875838   0.4065537  )
        47           Fe  tau(  47) = (   1.2499125   0.7066993   0.6053694  )
        48           Fe  tau(  48) = (   0.4158374   0.4720513   0.6012683  )
        49           Fe  tau(  49) = (   0.8333315   0.5892543   0.0000000  )
        50           Fe  tau(  50) = (   0.6666652   0.4714034   0.2041376  )
        51           Fe  tau(  51) = (   1.1666640   0.8249560   0.0000000  )
        52           Fe  tau(  52) = (   0.9999978   0.7071052   0.2041376  )
        53           Fe  tau(  53) = (   0.8328112   0.5888980   0.4050680  )
        54           Fe  tau(  54) = (   0.6664112   0.4714982   0.6203360  )
        55           Fe  tau(  55) = (   1.1665105   0.8248441   0.4055370  )
        56           Fe  tau(  56) = (   0.9999676   0.7071090   0.6039197  )
        57           Fe  tau(  57) = (   0.9166640   0.8249560   0.0000000  )
        58           Fe  tau(  58) = (   1.0833315   0.5892543   0.0000000  )
        59           Fe  tau(  59) = (   0.7499978   0.7071052   0.2041376  )
        60           Fe  tau(  60) = (   0.9166652   0.4714034   0.2041376  )
        61           Fe  tau(  61) = (   0.9164861   0.8249639   0.4055659  )
        62           Fe  tau(  62) = (   1.0832489   0.5890867   0.4055794  )
        63           Fe  tau(  63) = (   0.7495789   0.7079861   0.6015385  )
        64           Fe  tau(  64) = (   0.9172476   0.4707251   0.6016470  )
        65           N   tau(  65) = (   0.6670943   0.4712780   0.8294560  )
        66           H   tau(  66) = (   0.6649302   0.5674919   0.8662418  )
        67           H   tau(  67) = (   0.5836884   0.4213385   0.8637980  )
        68           H   tau(  68) = (   0.7509205   0.4235701   0.8656821  )

     number of k points=    10  Methfessel-Paxton smearing, width (Ry)=  0.0100
                       cart. coord. in units 2pi/alat
        k(    1) = (   0.0000000   0.0000000   0.0000000), wk =   0.0625000
        k(    2) = (   0.0000000   0.2651656   0.0000000), wk =   0.1250000
        k(    3) = (   0.0000000  -0.5303313   0.0000000), wk =   0.0625000
        k(    4) = (   0.2500000  -0.0883878   0.0000000), wk =   0.1250000
        k(    5) = (   0.2500000   0.1767779   0.0000000), wk =   0.1250000
        k(    6) = (   0.2500000  -0.6187190   0.0000000), wk =   0.1250000
        k(    7) = (   0.2500000  -0.3535534   0.0000000), wk =   0.1250000
        k(    8) = (  -0.5000000   0.1767755   0.0000000), wk =   0.0625000
        k(    9) = (  -0.5000000   0.4419412   0.0000000), wk =   0.1250000
        k(   10) = (  -0.5000000  -0.3535558   0.0000000), wk =   0.0625000

     Dense  grid:  2905599 G-vectors     FFT dimensions: ( 135, 135, 360)

     Smooth grid:  1027285 G-vectors     FFT dimensions: (  96,  96, 243)

     Estimated max dynamical RAM per process >       1.01 GB

     Estimated total dynamical RAM >     162.10 GB
     Generating pointlists ...
     new r_m :   0.0863 (alat units)  1.6186 (a.u.) for type    1
     new r_m :   0.0425 (alat units)  0.7975 (a.u.) for type    2
     new r_m :   0.0425 (alat units)  0.7975 (a.u.) for type    3

     Check: negative core charge=   -0.000039

     Initial potential from superposition of free atoms

     starting charge 1031.97191, renormalised to 1032.00000

     negative rho (up, down):  2.373E-02 2.555E-03
     Starting wfcs are  839 randomized atomic wfcs
     Checking if some PAW data can be deallocated... 

     total cpu time spent up to now is       90.9 secs

     Self-consistent Calculation

     iteration #  1     ecut=    60.00 Ry     beta= 0.20
     Davidson diagonalization with overlap
     c_bands:  1 eigenvalues not converged
     ethr =  1.00E-04,  avg # of iterations = 18.9

     negative rho (up, down):  1.238E-02 3.377E-03

     total cpu time spent up to now is     1105.7 secs

     total energy              =  -21091.08702343 Ry
     Harris-Foulkes estimate   =  -21098.18168257 Ry
     estimated scf accuracy    <     351.10653225 Ry

     total magnetization       =   106.87 Bohr mag/cell
     absolute magnetization    =   107.78 Bohr mag/cell

     iteration #  2     ecut=    60.00 Ry     beta= 0.20
     Davidson diagonalization with overlap
     ethr =  1.00E-02,  avg # of iterations =  1.0

     negative rho (up, down):  9.294E-03 3.963E-02

     total cpu time spent up to now is     1245.1 secs

     total energy              =  -21094.81529038 Ry
     Harris-Foulkes estimate   =  -21097.62394317 Ry
     estimated scf accuracy    <     147.95734155 Ry

     total magnetization       =   107.23 Bohr mag/cell
     absolute magnetization    =   108.25 Bohr mag/cell

     iteration #  3     ecut=    60.00 Ry     beta= 0.20
     Davidson diagonalization with overlap
     ethr =  1.00E-02,  avg # of iterations =  1.0

     negative rho (up, down):  4.590E-03 1.759E-02

     total cpu time spent up to now is     1375.8 secs

     total energy              =  -21096.16592382 Ry
     Harris-Foulkes estimate   =  -21096.30537894 Ry
     estimated scf accuracy    <      10.62528675 Ry

     total magnetization       =   133.25 Bohr mag/cell
     absolute magnetization    =   133.66 Bohr mag/cell

     iteration #  4     ecut=    60.00 Ry     beta= 0.20
     Davidson diagonalization with overlap
     ethr =  1.03E-03,  avg # of iterations =  1.0

     negative rho (up, down):  2.736E-03 3.251E-02

     total cpu time spent up to now is     1511.1 secs

     total energy              =  -21096.17426107 Ry
     Harris-Foulkes estimate   =  -21096.26326748 Ry
     estimated scf accuracy    <      16.25944006 Ry

     total magnetization       =   140.03 Bohr mag/cell
     absolute magnetization    =   140.53 Bohr mag/cell

     iteration #  5     ecut=    60.00 Ry     beta= 0.20
     Davidson diagonalization with overlap
     ethr =  1.03E-03,  avg # of iterations =  1.0

     negative rho (up, down):  1.451E-02 1.996E-01

     total cpu time spent up to now is     1639.7 secs

     total energy              =  -21094.19209863 Ry
     Harris-Foulkes estimate   =  -21096.21544164 Ry
     estimated scf accuracy    <      17.25966855 Ry

     total magnetization       =   143.73 Bohr mag/cell
     absolute magnetization    =   144.34 Bohr mag/cell

     iteration #  6     ecut=    60.00 Ry     beta= 0.20
     Davidson diagonalization with overlap
     ethr =  1.03E-03,  avg # of iterations =  7.3

     negative rho (up, down):  1.856E-03 9.259E-02

     total cpu time spent up to now is     1849.2 secs

     total energy              =  -21095.53483237 Ry
     Harris-Foulkes estimate   =  -21095.44101373 Ry
     estimated scf accuracy    <       4.71327328 Ry

     total magnetization       =   156.84 Bohr mag/cell
     absolute magnetization    =   160.21 Bohr mag/cell

     iteration #  7     ecut=    60.00 Ry     beta= 0.20
     Davidson diagonalization with overlap
     ethr =  4.57E-04,  avg # of iterations =  5.8

     negative rho (up, down):  7.451E-04 3.433E-02

     total cpu time spent up to now is     2049.8 secs

     total energy              =  -21095.77631501 Ry
     Harris-Foulkes estimate   =  -21095.88649199 Ry
     estimated scf accuracy    <       1.23996885 Ry

     total magnetization       =   149.35 Bohr mag/cell
     absolute magnetization    =   152.31 Bohr mag/cell

     iteration #  8     ecut=    60.00 Ry     beta= 0.20
     Davidson diagonalization with overlap
     ethr =  1.20E-04,  avg # of iterations = 13.8

     negative rho (up, down):  2.542E-04 2.346E-02

     total cpu time spent up to now is     2972.9 secs

     total energy              =  -21096.15142422 Ry
     Harris-Foulkes estimate   =  -21096.26309940 Ry
     estimated scf accuracy    <       2.83441815 Ry

     total magnetization       =   149.87 Bohr mag/cell
     absolute magnetization    =   154.42 Bohr mag/cell

     iteration #  9     ecut=    60.00 Ry     beta= 0.20
     Davidson diagonalization with overlap
     ethr =  1.20E-04,  avg # of iterations =  1.5

     negative rho (up, down):  6.693E-05 1.824E-02

     total cpu time spent up to now is     3119.7 secs

     total energy              =  -21096.14286478 Ry
     Harris-Foulkes estimate   =  -21096.20222591 Ry
     estimated scf accuracy    <       0.41800712 Ry

     total magnetization       =   151.52 Bohr mag/cell
     absolute magnetization    =   155.68 Bohr mag/cell

     iteration # 10     ecut=    60.00 Ry     beta= 0.20
     Davidson diagonalization with overlap
     ethr =  4.05E-05,  avg # of iterations =  6.2

     negative rho (up, down):  2.351E-04 3.421E-02

     total cpu time spent up to now is     3329.5 secs

     total energy              =  -21096.15544861 Ry
     Harris-Foulkes estimate   =  -21096.18979983 Ry
     estimated scf accuracy    <       0.96323668 Ry

     total magnetization       =   153.01 Bohr mag/cell
     absolute magnetization    =   156.97 Bohr mag/cell

     iteration # 11     ecut=    60.00 Ry     beta= 0.20
     Davidson diagonalization with overlap
     ethr =  4.05E-05,  avg # of iterations =  4.3

     negative rho (up, down):  3.136E-04 3.379E-02

     total cpu time spent up to now is     3492.0 secs

     total energy              =  -21096.17460291 Ry
     Harris-Foulkes estimate   =  -21096.19272771 Ry
     estimated scf accuracy    <       0.38107837 Ry

     total magnetization       =   157.51 Bohr mag/cell
     absolute magnetization    =   161.60 Bohr mag/cell

     iteration # 12     ecut=    60.00 Ry     beta= 0.20
     Davidson diagonalization with overlap
     ethr =  3.69E-05,  avg # of iterations =  3.1

     negative rho (up, down):  1.845E-04 2.326E-02

     total cpu time spent up to now is     3654.9 secs

     total energy              =  -21096.16715983 Ry
     Harris-Foulkes estimate   =  -21096.18834278 Ry
     estimated scf accuracy    <       0.28924844 Ry

     total magnetization       =   159.70 Bohr mag/cell
     absolute magnetization    =   163.89 Bohr mag/cell

     iteration # 13     ecut=    60.00 Ry     beta= 0.20
     Davidson diagonalization with overlap
     ethr =  2.80E-05,  avg # of iterations =  7.4

     negative rho (up, down):  7.928E-04 2.699E-02

     total cpu time spent up to now is     3911.1 secs

     total energy              =  -21096.17504159 Ry
     Harris-Foulkes estimate   =  -21096.18564184 Ry
     estimated scf accuracy    <       0.17117960 Ry

     total magnetization       =   160.49 Bohr mag/cell
     absolute magnetization    =   164.95 Bohr mag/cell

     iteration # 14     ecut=    60.00 Ry     beta= 0.20
     Davidson diagonalization with overlap
     ethr =  1.66E-05,  avg # of iterations = 15.8

     negative rho (up, down):  2.308E-03 2.422E-02

     total cpu time spent up to now is     4605.3 secs

     total energy              =  -21096.19159751 Ry
     Harris-Foulkes estimate   =  -21096.19701523 Ry
     estimated scf accuracy    <       0.11545089 Ry

     total magnetization       =   160.60 Bohr mag/cell
     absolute magnetization    =   165.63 Bohr mag/cell

     iteration # 15     ecut=    60.00 Ry     beta= 0.20
     Davidson diagonalization with overlap
     ethr =  1.12E-05,  avg # of iterations =  9.3

     negative rho (up, down):  6.478E-02 2.191E-02

     total cpu time spent up to now is     4898.1 secs

     total energy              =  -21096.18531245 Ry
     Harris-Foulkes estimate   =  -21096.20160987 Ry
     estimated scf accuracy    <       0.09918732 Ry

     total magnetization       =   161.45 Bohr mag/cell
     absolute magnetization    =   166.71 Bohr mag/cell

     iteration # 16     ecut=    60.00 Ry     beta= 0.20
     Davidson diagonalization with overlap
     ethr =  9.61E-06,  avg # of iterations = 10.2

     negative rho (up, down):  9.993E-02 2.613E-02

     total cpu time spent up to now is     5167.3 secs

     total energy              =  -21096.18507827 Ry
     Harris-Foulkes estimate   =  -21096.19393681 Ry
     estimated scf accuracy    <       0.06799938 Ry

     total magnetization       =   161.62 Bohr mag/cell
     absolute magnetization    =   166.92 Bohr mag/cell

     iteration # 17     ecut=    60.00 Ry     beta= 0.20
     Davidson diagonalization with overlap
     ethr =  6.59E-06,  avg # of iterations = 17.9

     negative rho (up, down):  1.313E-01 2.473E-02

     total cpu time spent up to now is     5864.2 secs

     total energy              =  -21096.16570151 Ry
     Harris-Foulkes estimate   =  -21096.19106799 Ry
     estimated scf accuracy    <       0.06580988 Ry

     total magnetization       =   161.87 Bohr mag/cell
     absolute magnetization    =   167.24 Bohr mag/cell

     iteration # 18     ecut=    60.00 Ry     beta= 0.20
     Davidson diagonalization with overlap
     ethr =  6.38E-06,  avg # of iterations = 12.8

     negative rho (up, down):  1.391E-01 2.079E-02

     total cpu time spent up to now is     6181.6 secs

     total energy              =  -21096.14588147 Ry
     Harris-Foulkes estimate   =  -21096.17373104 Ry
     estimated scf accuracy    <       0.05261880 Ry

     total magnetization       =   160.97 Bohr mag/cell
     absolute magnetization    =   166.62 Bohr mag/cell

     iteration # 19     ecut=    60.00 Ry     beta= 0.20
     Davidson diagonalization with overlap
     ethr =  5.10E-06,  avg # of iterations = 25.2

     negative rho (up, down):  1.089E-01 1.956E-02

     total cpu time spent up to now is     7278.4 secs

     total energy              =  -21096.11989979 Ry
     Harris-Foulkes estimate   =  -21096.15104660 Ry
     estimated scf accuracy    <       0.02782544 Ry

     total magnetization       =   161.73 Bohr mag/cell
     absolute magnetization    =   167.50 Bohr mag/cell

     iteration # 20     ecut=    60.00 Ry     beta= 0.20
     Davidson diagonalization with overlap
     c_bands:  4 eigenvalues not converged
     ethr =  2.70E-06,  avg # of iterations = 33.0

     negative rho (up, down):  1.189E-01 1.811E-02

     total cpu time spent up to now is     8842.5 secs

     total energy              =  -21096.09991205 Ry
     Harris-Foulkes estimate   =  -21096.12820371 Ry
     estimated scf accuracy    <       0.01859754 Ry

     total magnetization       =   161.58 Bohr mag/cell
     absolute magnetization    =   167.77 Bohr mag/cell

     iteration # 21     ecut=    60.00 Ry     beta= 0.20
     Davidson diagonalization with overlap
     c_bands:  2 eigenvalues not converged
     ethr =  1.80E-06,  avg # of iterations = 19.9

     negative rho (up, down):  1.358E-01 1.771E-02

     total cpu time spent up to now is     9618.5 secs

     total energy              =  -21096.09909143 Ry
     Harris-Foulkes estimate   =  -21096.10220171 Ry
     estimated scf accuracy    <       0.01258540 Ry

     total magnetization       =   161.18 Bohr mag/cell
     absolute magnetization    =   167.47 Bohr mag/cell

     iteration # 22     ecut=    60.00 Ry     beta= 0.20
     Davidson diagonalization with overlap
     c_bands:  4 eigenvalues not converged
     ethr =  1.22E-06,  avg # of iterations = 18.1

     negative rho (up, down):  8.077E-02 1.781E-02

     total cpu time spent up to now is    10016.6 secs

     total energy              =  -21096.09026334 Ry
     Harris-Foulkes estimate   =  -21096.09955922 Ry
     estimated scf accuracy    <       0.00955029 Ry

     total magnetization       =   161.27 Bohr mag/cell
     absolute magnetization    =   167.56 Bohr mag/cell

     iteration # 23     ecut=    60.00 Ry     beta= 0.20
     Davidson diagonalization with overlap
     c_bands:  3 eigenvalues not converged
     ethr =  9.25E-07,  avg # of iterations = 18.2

     negative rho (up, down):  5.839E-02 1.832E-02

     total cpu time spent up to now is    10506.7 secs

     total energy              =  -21096.08588304 Ry
     Harris-Foulkes estimate   =  -21096.09107676 Ry
     estimated scf accuracy    <       0.00320328 Ry

     total magnetization       =   161.35 Bohr mag/cell
     absolute magnetization    =   167.66 Bohr mag/cell

     iteration # 24     ecut=    60.00 Ry     beta= 0.20
     Davidson diagonalization with overlap
     c_bands:  1 eigenvalues not converged
     ethr =  3.10E-07,  avg # of iterations = 22.4

     negative rho (up, down):  5.075E-02 1.863E-02

     total cpu time spent up to now is    11819.1 secs

     total energy              =  -21096.08967123 Ry
     Harris-Foulkes estimate   =  -21096.08756613 Ry
     estimated scf accuracy    <       0.00156548 Ry

     total magnetization       =   161.45 Bohr mag/cell
     absolute magnetization    =   167.87 Bohr mag/cell

     iteration # 25     ecut=    60.00 Ry     beta= 0.20
     Davidson diagonalization with overlap
     ethr =  1.52E-07,  avg # of iterations = 13.2

     negative rho (up, down):  4.031E-02 1.924E-02

     total cpu time spent up to now is    12267.6 secs

     total energy              =  -21096.09263009 Ry
     Harris-Foulkes estimate   =  -21096.08987730 Ry
     estimated scf accuracy    <       0.00104833 Ry

     total magnetization       =   161.61 Bohr mag/cell
     absolute magnetization    =   168.03 Bohr mag/cell

     iteration # 26     ecut=    60.00 Ry     beta= 0.20
     Davidson diagonalization with overlap
     ethr =  1.02E-07,  avg # of iterations = 11.9

     negative rho (up, down):  3.580E-02 1.974E-02

     total cpu time spent up to now is    12680.0 secs

     total energy              =  -21096.09444161 Ry
     Harris-Foulkes estimate   =  -21096.09277024 Ry
     estimated scf accuracy    <       0.00068015 Ry

     total magnetization       =   161.67 Bohr mag/cell
     absolute magnetization    =   168.10 Bohr mag/cell

     iteration # 27     ecut=    60.00 Ry     beta= 0.20
     Davidson diagonalization with overlap
     ethr =  6.59E-08,  avg # of iterations = 11.2

     negative rho (up, down):  3.014E-02 1.914E-02

     total cpu time spent up to now is    12992.6 secs

     total energy              =  -21096.09666946 Ry
     Harris-Foulkes estimate   =  -21096.09451508 Ry
     estimated scf accuracy    <       0.00035598 Ry

     total magnetization       =   161.59 Bohr mag/cell
     absolute magnetization    =   168.02 Bohr mag/cell

     iteration # 28     ecut=    60.00 Ry     beta= 0.20
     Davidson diagonalization with overlap
     ethr =  3.45E-08,  avg # of iterations = 11.1

     negative rho (up, down):  2.605E-02 1.929E-02

     total cpu time spent up to now is    13485.8 secs

     total energy              =  -21096.09926601 Ry
     Harris-Foulkes estimate   =  -21096.09676571 Ry
     estimated scf accuracy    <       0.00024482 Ry

     total magnetization       =   161.57 Bohr mag/cell
     absolute magnetization    =   167.99 Bohr mag/cell

     iteration # 29     ecut=    60.00 Ry     beta= 0.20
     Davidson diagonalization with overlap
     ethr =  2.37E-08,  avg # of iterations =  8.1

     negative rho (up, down):  2.472E-02 1.977E-02

     total cpu time spent up to now is    13728.5 secs

     total energy              =  -21096.10200434 Ry
     Harris-Foulkes estimate   =  -21096.09929956 Ry
     estimated scf accuracy    <       0.00012088 Ry

     total magnetization       =   161.66 Bohr mag/cell
     absolute magnetization    =   168.09 Bohr mag/cell

     iteration # 30     ecut=    60.00 Ry     beta= 0.20
     Davidson diagonalization with overlap
     ethr =  1.17E-08,  avg # of iterations = 11.4

     negative rho (up, down):  2.554E-02 1.985E-02

     total cpu time spent up to now is    14357.5 secs

     total energy              =  -21096.10175915 Ry
     Harris-Foulkes estimate   =  -21096.10208680 Ry
     estimated scf accuracy    <       0.00006957 Ry

     total magnetization       =   161.78 Bohr mag/cell
     absolute magnetization    =   168.27 Bohr mag/cell

     iteration # 31     ecut=    60.00 Ry     beta= 0.20
     Davidson diagonalization with overlap
     ethr =  6.74E-09,  avg # of iterations =  9.0

     negative rho (up, down):  2.640E-02 1.993E-02

     total cpu time spent up to now is    14730.8 secs

     total energy              =  -21096.10172611 Ry
     Harris-Foulkes estimate   =  -21096.10176781 Ry
     estimated scf accuracy    <       0.00004399 Ry

     total magnetization       =   161.78 Bohr mag/cell
     absolute magnetization    =   168.27 Bohr mag/cell

     iteration # 32     ecut=    60.00 Ry     beta= 0.20
     Davidson diagonalization with overlap
     ethr =  4.26E-09,  avg # of iterations =  6.2

     negative rho (up, down):  2.597E-02 1.991E-02

     total cpu time spent up to now is    14943.4 secs

     total energy              =  -21096.10159005 Ry
     Harris-Foulkes estimate   =  -21096.10172907 Ry
     estimated scf accuracy    <       0.00003404 Ry

     total magnetization       =   161.80 Bohr mag/cell
     absolute magnetization    =   168.28 Bohr mag/cell

     iteration # 33     ecut=    60.00 Ry     beta= 0.20
     Davidson diagonalization with overlap
     ethr =  3.30E-09,  avg # of iterations = 10.9

     negative rho (up, down):  2.519E-02 1.999E-02

     total cpu time spent up to now is    15227.1 secs

     total energy              =  -21096.10178065 Ry
     Harris-Foulkes estimate   =  -21096.10159320 Ry
     estimated scf accuracy    <       0.00002062 Ry

     total magnetization       =   161.81 Bohr mag/cell
     absolute magnetization    =   168.30 Bohr mag/cell

     iteration # 34     ecut=    60.00 Ry     beta= 0.20
     Davidson diagonalization with overlap
     c_bands:  1 eigenvalues not converged
     c_bands:  3 eigenvalues not converged
     ethr =  2.00E-09,  avg # of iterations = 14.3

     negative rho (up, down):  2.457E-02 1.988E-02

     total cpu time spent up to now is    15930.2 secs

     total energy              =  -21096.10232984 Ry
     Harris-Foulkes estimate   =  -21096.10179321 Ry
     estimated scf accuracy    <       0.00001027 Ry

     total magnetization       =   161.80 Bohr mag/cell
     absolute magnetization    =   168.29 Bohr mag/cell

     iteration # 35     ecut=    60.00 Ry     beta= 0.20
     Davidson diagonalization with overlap
     c_bands:  3 eigenvalues not converged
     c_bands:  1 eigenvalues not converged
     ethr =  9.95E-10,  avg # of iterations = 13.5

     negative rho (up, down):  2.487E-02 1.988E-02

     total cpu time spent up to now is    16902.5 secs

     total energy              =  -21096.10223668 Ry
     Harris-Foulkes estimate   =  -21096.10233220 Ry
     estimated scf accuracy    <       0.00000427 Ry

     total magnetization       =   161.81 Bohr mag/cell
     absolute magnetization    =   168.30 Bohr mag/cell

     iteration # 36     ecut=    60.00 Ry     beta= 0.20
     Davidson diagonalization with overlap
     ethr =  4.13E-10,  avg # of iterations = 10.1

     negative rho (up, down):  2.520E-02 1.989E-02

     total cpu time spent up to now is    17335.6 secs

     total energy              =  -21096.10204608 Ry
     Harris-Foulkes estimate   =  -21096.10223708 Ry
     estimated scf accuracy    <       0.00000238 Ry

     total magnetization       =   161.81 Bohr mag/cell
     absolute magnetization    =   168.30 Bohr mag/cell

     iteration # 37     ecut=    60.00 Ry     beta= 0.20
     Davidson diagonalization with overlap
     ethr =  2.30E-10,  avg # of iterations =  9.4

     negative rho (up, down):  2.520E-02 1.986E-02

     total cpu time spent up to now is    17636.4 secs

     total energy              =  -21096.10205581 Ry
     Harris-Foulkes estimate   =  -21096.10204654 Ry
     estimated scf accuracy    <       0.00000196 Ry

     total magnetization       =   161.81 Bohr mag/cell
     absolute magnetization    =   168.30 Bohr mag/cell

     iteration # 38     ecut=    60.00 Ry     beta= 0.20
     Davidson diagonalization with overlap
     ethr =  1.89E-10,  avg # of iterations =  2.2

     negative rho (up, down):  2.507E-02 1.985E-02

     total cpu time spent up to now is    17794.9 secs

     total energy              =  -21096.10213660 Ry
     Harris-Foulkes estimate   =  -21096.10205590 Ry
     estimated scf accuracy    <       0.00000159 Ry

     total magnetization       =   161.81 Bohr mag/cell
     absolute magnetization    =   168.30 Bohr mag/cell

     iteration # 39     ecut=    60.00 Ry     beta= 0.20
     Davidson diagonalization with overlap
     ethr =  1.54E-10,  avg # of iterations =  8.0

     negative rho (up, down):  2.476E-02 1.982E-02

     total cpu time spent up to now is    18253.3 secs

     total energy              =  -21096.10220326 Ry
     Harris-Foulkes estimate   =  -21096.10213716 Ry
     estimated scf accuracy    <       0.00000117 Ry

     total magnetization       =   161.82 Bohr mag/cell
     absolute magnetization    =   168.31 Bohr mag/cell

     iteration # 40     ecut=    60.00 Ry     beta= 0.20
     Davidson diagonalization with overlap
     ethr =  1.13E-10,  avg # of iterations =  4.0

     negative rho (up, down):  2.457E-02 1.983E-02

     total cpu time spent up to now is    18441.0 secs

     total energy              =  -21096.10230234 Ry
     Harris-Foulkes estimate   =  -21096.10220332 Ry
     estimated scf accuracy    <       0.00000082 Ry

     total magnetization       =   161.82 Bohr mag/cell
     absolute magnetization    =   168.31 Bohr mag/cell

     iteration # 41     ecut=    60.00 Ry     beta= 0.20
     Davidson diagonalization with overlap
     ethr =  7.90E-11,  avg # of iterations =  8.0

     negative rho (up, down):  2.428E-02 1.984E-02

     total cpu time spent up to now is    18677.2 secs

     total energy              =  -21096.10244407 Ry
     Harris-Foulkes estimate   =  -21096.10230247 Ry
     estimated scf accuracy    <       0.00000032 Ry

     total magnetization       =   161.82 Bohr mag/cell
     absolute magnetization    =   168.31 Bohr mag/cell

     iteration # 42     ecut=    60.00 Ry     beta= 0.20
     Davidson diagonalization with overlap
     ethr =  3.09E-11,  avg # of iterations = 16.1

     negative rho (up, down):  2.420E-02 1.984E-02

     total cpu time spent up to now is    19945.1 secs

     total energy              =  -21096.10248141 Ry
     Harris-Foulkes estimate   =  -21096.10244421 Ry
     estimated scf accuracy    <       0.00000013 Ry

     total magnetization       =   161.82 Bohr mag/cell
     absolute magnetization    =   168.31 Bohr mag/cell

     iteration # 43     ecut=    60.00 Ry     beta= 0.20
     Davidson diagonalization with overlap
     ethr =  1.24E-11,  avg # of iterations = 12.2

     negative rho (up, down):  2.414E-02 1.984E-02

     total cpu time spent up to now is    20737.7 secs

     total energy              =  -21096.10251063 Ry
     Harris-Foulkes estimate   =  -21096.10248144 Ry
     estimated scf accuracy    <       0.00000007 Ry

     total magnetization       =   161.82 Bohr mag/cell
     absolute magnetization    =   168.32 Bohr mag/cell

     iteration # 44     ecut=    60.00 Ry     beta= 0.20
     Davidson diagonalization with overlap
     ethr =  6.99E-12,  avg # of iterations =  9.1

     negative rho (up, down):  2.405E-02 1.982E-02

     total cpu time spent up to now is    21087.1 secs

     total energy              =  -21096.10253009 Ry
     Harris-Foulkes estimate   =  -21096.10251063 Ry
     estimated scf accuracy    <       0.00000005 Ry

     total magnetization       =   161.82 Bohr mag/cell
     absolute magnetization    =   168.32 Bohr mag/cell

     iteration # 45     ecut=    60.00 Ry     beta= 0.20
     Davidson diagonalization with overlap
     ethr =  4.49E-12,  avg # of iterations =  9.6

     negative rho (up, down):  2.401E-02 1.982E-02

     total cpu time spent up to now is    21366.1 secs

     total energy              =  -21096.10252869 Ry
     Harris-Foulkes estimate   =  -21096.10253009 Ry
     estimated scf accuracy    <       0.00000002 Ry

     total magnetization       =   161.82 Bohr mag/cell
     absolute magnetization    =   168.32 Bohr mag/cell

     iteration # 46     ecut=    60.00 Ry     beta= 0.20
     Davidson diagonalization with overlap
     ethr =  1.83E-12,  avg # of iterations = 11.0

     negative rho (up, down):  2.400E-02 1.981E-02

     Magnetic moment per site:
     atom:    1    charge:   13.4519    magn:    2.5477    constr:    0.0000
     atom:    2    charge:   13.4652    magn:    2.3196    constr:    0.0000
     atom:    3    charge:   13.4509    magn:    2.5437    constr:    0.0000
     atom:    4    charge:   13.4635    magn:    2.3504    constr:    0.0000
     atom:    5    charge:   13.4695    magn:    2.3253    constr:    0.0000
     atom:    6    charge:   13.4570    magn:    2.5318    constr:    0.0000
     atom:    7    charge:   13.4748    magn:    2.2887    constr:    0.0000
     atom:    8    charge:   13.4577    magn:    2.5284    constr:    0.0000
     atom:    9    charge:   13.4516    magn:    2.5432    constr:    0.0000
     atom:   10    charge:   13.4516    magn:    2.5432    constr:    0.0000
     atom:   11    charge:   13.4643    magn:    2.3426    constr:    0.0000
     atom:   12    charge:   13.4644    magn:    2.3425    constr:    0.0000
     atom:   13    charge:   13.4689    magn:    2.3407    constr:    0.0000
     atom:   14    charge:   13.4689    magn:    2.3406    constr:    0.0000
     atom:   15    charge:   13.4582    magn:    2.5285    constr:    0.0000
     atom:   16    charge:   13.4581    magn:    2.5287    constr:    0.0000
     atom:   17    charge:   13.4514    magn:    2.5404    constr:    0.0000
     atom:   18    charge:   13.4635    magn:    2.3549    constr:    0.0000
     atom:   19    charge:   13.4515    magn:    2.5406    constr:    0.0000
     atom:   20    charge:   13.4628    magn:    2.3529    constr:    0.0000
     atom:   21    charge:   13.4715    magn:    2.3149    constr:    0.0000
     atom:   22    charge:   13.4590    magn:    2.5197    constr:    0.0000
     atom:   23    charge:   13.4714    magn:    2.3162    constr:    0.0000
     atom:   24    charge:   13.4663    magn:    2.4780    constr:    0.0000
     atom:   25    charge:   13.4509    magn:    2.5411    constr:    0.0000
     atom:   26    charge:   13.4517    magn:    2.5462    constr:    0.0000
     atom:   27    charge:   13.4638    magn:    2.3528    constr:    0.0000
     atom:   28    charge:   13.4644    magn:    2.3414    constr:    0.0000
     atom:   29    charge:   13.4634    magn:    2.3102    constr:    0.0000
     atom:   30    charge:   13.4744    magn:    2.2762    constr:    0.0000
     atom:   31    charge:   13.4616    magn:    2.5232    constr:    0.0000
     atom:   32    charge:   13.4584    magn:    2.5284    constr:    0.0000
     atom:   33    charge:   13.4514    magn:    2.5403    constr:    0.0000
     atom:   34    charge:   13.4635    magn:    2.3549    constr:    0.0000
     atom:   35    charge:   13.4515    magn:    2.5405    constr:    0.0000
     atom:   36    charge:   13.4628    magn:    2.3527    constr:    0.0000
     atom:   37    charge:   13.4716    magn:    2.3146    constr:    0.0000
     atom:   38    charge:   13.4590    magn:    2.5197    constr:    0.0000
     atom:   39    charge:   13.4714    magn:    2.3160    constr:    0.0000
     atom:   40    charge:   13.4659    magn:    2.4808    constr:    0.0000
     atom:   41    charge:   13.4517    magn:    2.5461    constr:    0.0000
     atom:   42    charge:   13.4509    magn:    2.5411    constr:    0.0000
     atom:   43    charge:   13.4644    magn:    2.3413    constr:    0.0000
     atom:   44    charge:   13.4638    magn:    2.3528    constr:    0.0000
     atom:   45    charge:   13.4743    magn:    2.2763    constr:    0.0000
     atom:   46    charge:   13.4635    magn:    2.3088    constr:    0.0000
     atom:   47    charge:   13.4583    magn:    2.5286    constr:    0.0000
     atom:   48    charge:   13.4620    magn:    2.5209    constr:    0.0000
     atom:   49    charge:   13.4509    magn:    2.5437    constr:    0.0000
     atom:   50    charge:   13.4631    magn:    2.3367    constr:    0.0000
     atom:   51    charge:   13.4519    magn:    2.5474    constr:    0.0000
     atom:   52    charge:   13.4635    magn:    2.3500    constr:    0.0000
     atom:   53    charge:   13.4745    magn:    2.2914    constr:    0.0000
     atom:   54    charge:   13.4491    magn:    2.2273    constr:    0.0000
     atom:   55    charge:   13.4697    magn:    2.3239    constr:    0.0000
     atom:   56    charge:   13.4580    magn:    2.5284    constr:    0.0000
     atom:   57    charge:   13.4515    magn:    2.5432    constr:    0.0000
     atom:   58    charge:   13.4515    magn:    2.5431    constr:    0.0000
     atom:   59    charge:   13.4637    magn:    2.3538    constr:    0.0000
     atom:   60    charge:   13.4637    magn:    2.3538    constr:    0.0000
     atom:   61    charge:   13.4691    magn:    2.3389    constr:    0.0000
     atom:   62    charge:   13.4691    magn:    2.3389    constr:    0.0000
     atom:   63    charge:   13.4619    magn:    2.5220    constr:    0.0000
     atom:   64    charge:   13.4616    magn:    2.5242    constr:    0.0000
     atom:   65    charge:    1.3557    magn:   -0.0017    constr:    0.0000
     atom:   66    charge:    0.4371    magn:    0.0011    constr:    0.0000
     atom:   67    charge:    0.4366    magn:    0.0020    constr:    0.0000
     atom:   68    charge:    0.4371    magn:    0.0010    constr:    0.0000

     total cpu time spent up to now is    22002.6 secs

     End of self-consistent calculation

 ------ SPIN UP ------------


          k = 0.0000 0.0000 0.0000 (128403 PWs)   bands (ev):

   -94.4010 -94.3893 -94.3850 -94.3838 -94.3823 -94.3808 -94.3787 -94.3766
   -94.3725 -94.3723 -94.3704 -94.3687 -94.3660 -94.3654 -94.3644 -94.3642
   -94.3631 -94.3574 -94.3565 -94.3553 -94.3550 -94.3534 -94.3522 -94.3509
   -94.3466 -94.3438 -94.3408 -94.3300 -94.3291 -94.2936 -94.2924 -94.2907
   -94.2649 -94.2479 -94.2446 -94.2438 -94.2434 -94.2360 -94.2326 -94.2278
   -94.2221 -94.2218 -94.2213 -94.2209 -94.2204 -94.2188 -94.2185 -94.2173
   -94.2135 -94.2131 -94.2122 -94.2096 -94.2089 -94.2036 -94.2008 -94.1991
   -94.1968 -94.1933 -94.1896 -94.1890 -94.1702 -94.1687 -94.1661 -94.1600
   -60.5952 -60.5792 -60.5679 -60.5672 -60.5658 -60.5644 -60.5643 -60.5642
   -60.5624 -60.5604 -60.5591 -60.5565 -60.5562 -60.5546 -60.5541 -60.5508
   -60.5497 -60.5471 -60.5456 -60.5430 -60.5411 -60.5394 -60.5388 -60.5373
   -60.5367 -60.5321 -60.5298 -60.5270 -60.5249 -60.5212 -60.5186 -60.5150
   -60.5106 -60.5100 -60.4986 -60.4977 -60.4861 -60.4859 -60.4852 -60.4849
   -60.4820 -60.4789 -60.4730 -60.4692 -60.4683 -60.4674 -60.4458 -60.4294
   -60.4210 -60.4163 -60.4160 -60.4146 -60.4126 -60.4119 -60.4105 -60.4077
   -60.4044 -60.4024 -60.4011 -60.3989 -60.3984 -60.3962 -60.3938 -60.3931
   -60.3862 -60.3851 -60.3842 -60.3801 -60.3784 -60.3781 -60.3762 -60.3753
   -60.3654 -60.3596 -60.3587 -60.3586 -60.3585 -60.3532 -60.3517 -60.3517
   -60.3438 -60.3438 -60.3422 -60.3420 -60.3404 -60.3385 -60.3374 -60.3354
   -60.3333 -60.3317 -60.3307 -60.3251 -60.3210 -60.3200 -60.3173 -60.3118
   -60.3111 -60.3087 -60.3057 -60.3050 -60.3041 -60.3006 -60.2946 -60.2927
   -60.2919 -60.2898 -60.2851 -60.2840 -60.2810 -60.2792 -60.2786 -60.2780
   -60.2774 -60.2748 -60.2731 -60.2713 -60.2698 -60.2689 -60.2676 -60.2651
   -60.2640 -60.2617 -60.2615 -60.2588 -60.2564 -60.2553 -60.2510 -60.2491
   -60.2484 -60.2450 -60.2438 -60.2420 -60.2419 -60.2369 -60.2345 -60.2306
   -60.2291 -60.2286 -60.2283 -60.2249 -60.2234 -60.2218 -60.2167 -60.2140
   -60.2122 -60.2083 -60.2075 -60.2064 -60.2026 -60.2003 -60.1950 -60.1887
   -60.1880 -60.1872 -60.1858 -60.1813 -60.1803 -60.1774 -60.1734 -60.1722
   -60.1710 -60.1669 -60.1639 -60.1631 -60.1616 -60.1608 -60.1601 -60.1557
   -60.1538 -60.1516 -60.1505 -60.1483 -60.1455 -60.1409 -60.1367 -60.1352
   -60.1292 -60.1242 -60.1235 -60.1221 -60.1180 -60.1159 -60.1143 -60.1135
   -60.1110 -60.1091 -60.1088 -60.1081 -60.1079 -60.1045 -60.1029 -60.1003
   -24.9413 -15.1080 -15.1049 -14.1746 -12.9599 -12.5223 -12.4936 -12.4913
   -12.4886 -12.0653 -12.0190 -11.8673 -11.5368 -11.5043 -11.5026 -11.5016
   -11.3291 -11.0808 -11.0674 -11.0205 -10.8663 -10.8656 -10.8430 -10.8416
   -10.8248 -10.7818 -10.7561 -10.6841 -10.6760 -10.4302 -10.4301 -10.4255
   -10.3984 -10.3809 -10.3386 -10.2959 -10.2893 -10.2886 -10.2871 -10.2846
   -10.2818 -10.2781 -10.2739 -10.2633 -10.2622 -10.2609 -10.2582 -10.2530
   -10.2360 -10.2215 -10.2137 -10.2092 -10.1914 -10.1869 -10.1840 -10.1811
   -10.1711 -10.1452 -10.0783 -10.0768 -10.0724 -10.0706 -10.0070 -10.0052
    -9.9966  -9.9838  -9.7216  -9.7123  -9.6943  -9.6878  -9.6862  -9.6727
    -9.5749  -9.5736  -9.5475  -9.5259  -9.5125  -9.5113  -9.5076  -9.5051
    -9.4940  -9.4922  -9.4917  -9.4916  -9.4739  -9.4725  -9.4711  -9.4648
    -9.4618  -9.4418  -9.4397  -9.4299  -9.4280  -9.4213  -9.4181  -9.4109
    -9.4100  -9.4046  -9.3965  -9.3729  -9.3727  -9.3720  -9.3645  -9.3588
    -9.3566  -9.3472  -9.3445  -9.3360  -9.3174  -9.3101  -9.3089  -9.2708
    -9.2315  -9.1784  -9.1649  -9.1371  -9.1305  -9.1270  -9.1114  -9.1104
    -9.0337  -9.0095  -8.9451  -8.9401  -8.9313  -8.9272  -8.9233  -8.9121
    -8.9081  -8.8997  -8.8936  -8.8681  -8.8585  -8.8522  -8.8379  -8.8374
    -8.8349  -8.8067  -8.8018  -8.8016  -8.7947  -8.7886  -8.7878  -8.7870
    -8.7786  -8.7562  -8.7241  -8.7229  -8.6589  -8.6524  -8.6507  -8.6384
    -8.6352  -8.6293  -8.6290  -8.6057  -8.5821  -8.5795  -8.5732  -8.5616
    -8.5397  -8.5226  -8.4982  -8.4893  -8.4886  -8.4867  -8.4736  -8.4641
    -8.4623  -8.4241  -8.4124  -8.4097  -8.4077  -8.3940  -8.3911  -8.3861
    -8.3819  -8.3748  -8.3667  -8.3563  -8.3542  -8.3439  -8.3417  -8.3403
    -8.3305  -8.3212  -8.3060  -8.2900  -8.2668  -8.2363  -8.1780  -8.1170
    -8.1073  -7.9735  -7.9414  -7.8452  -7.8314  -7.8202  -7.8172  -7.8138
    -7.8129  -7.8049  -7.7993  -7.7970  -7.7970  -7.7648  -7.7548  -7.7345
    -7.7323  -7.7279  -7.6961  -7.6875  -7.6607  -7.6559  -7.6511  -7.6506
    -7.6248  -7.6242  -7.6181  -7.6073  -7.6068  -7.6053  -7.5987  -7.5834
    -7.5610  -7.5429  -7.5404  -7.5187  -7.5157  -7.5141  -7.5130  -7.5079
    -7.4868  -7.4818  -7.4749  -7.4738  -7.4734  -7.4679  -7.4593  -7.4530
    -7.4374  -7.4337  -7.4258  -7.4226  -7.4160  -7.4157  -7.4126  -7.4023
    -7.3999  -7.3966  -7.3913  -7.3886  -7.3863  -7.3842  -7.3829  -7.3788
    -7.3711  -7.3611  -7.3569  -7.3569  -7.3499  -7.3444  -7.3405  -7.3367
    -7.3353  -7.3295  -7.3276  -7.3200  -7.3116  -7.3089  -7.2837  -7.2815
    -7.2787  -7.2787  -7.2775  -7.2770  -7.2684  -7.2646  -7.2644  -7.2543
    -7.2539  -7.2310  -7.2235  -7.2217  -7.2191  -7.1675  -7.1668  -7.1641
    -7.1617  -7.1557  -7.1389  -7.1337  -7.1207  -7.1185  -7.1101  -7.0144
    -7.0127  -7.0105  -7.0005  -6.9972  -6.9922  -6.9913  -6.9764  -6.9757
    -6.9746  -6.9716  -6.9711  -6.9561  -6.9514  -6.9359  -6.9326  -6.9293
    -6.9141  -6.9115  -6.9110  -6.9108  -6.8242  -6.8184  -6.7011  -6.5272
    -6.4970  -6.4803  -6.4741  -6.4630  -6.4476  -6.3917  -6.3890  -6.3823
    -6.3748  -6.3223  -6.3044  -6.2576  -6.2544  -6.2499  -6.2401  -6.2055
    -6.1961  -6.1834  -6.1705  -6.1505  -6.1315  -6.0455  -6.0318  -5.9654
    -5.9606  -5.9576  -5.9274  -5.8730  -5.8625  -5.6296  -5.2390  -5.2184
    -5.2059  -5.1992  -5.1956  -5.1329  -5.0308  -4.4228  -4.2975  -4.2875
    -4.2703  -4.2700  -4.2379

          k = 0.0000 0.2652 0.0000 (128375 PWs)   bands (ev):

   -94.3996 -94.3901 -94.3883 -94.3832 -94.3806 -94.3806 -94.3769 -94.3767
   -94.3757 -94.3716 -94.3711 -94.3684 -94.3672 -94.3649 -94.3641 -94.3628
   -94.3594 -94.3581 -94.3576 -94.3567 -94.3557 -94.3546 -94.3531 -94.3479
   -94.3461 -94.3435 -94.3417 -94.3299 -94.3292 -94.2937 -94.2924 -94.2907
   -94.2635 -94.2530 -94.2460 -94.2417 -94.2398 -94.2360 -94.2291 -94.2282
   -94.2267 -94.2240 -94.2226 -94.2207 -94.2192 -94.2183 -94.2170 -94.2155
   -94.2149 -94.2128 -94.2108 -94.2105 -94.2080 -94.2044 -94.2010 -94.1988
   -94.1967 -94.1949 -94.1894 -94.1880 -94.1705 -94.1685 -94.1651 -94.1608
   -60.5930 -60.5793 -60.5745 -60.5697 -60.5681 -60.5653 -60.5635 -60.5618
   -60.5604 -60.5596 -60.5567 -60.5553 -60.5541 -60.5536 -60.5528 -60.5521
   -60.5506 -60.5473 -60.5460 -60.5435 -60.5408 -60.5391 -60.5384 -60.5380
   -60.5327 -60.5323 -60.5301 -60.5267 -60.5251 -60.5197 -60.5147 -60.5096
   -60.5082 -60.5021 -60.4952 -60.4942 -60.4894 -60.4862 -60.4846 -60.4813
   -60.4758 -60.4727 -60.4720 -60.4713 -60.4678 -60.4587 -60.4430 -60.4402
   -60.4339 -60.4311 -60.4249 -60.4215 -60.4198 -60.4130 -60.4101 -60.4072
   -60.4056 -60.4042 -60.4009 -60.4006 -60.3992 -60.3949 -60.3940 -60.3921
   -60.3898 -60.3879 -60.3842 -60.3831 -60.3804 -60.3784 -60.3763 -60.3752
   -60.3740 -60.3723 -60.3706 -60.3696 -60.3663 -60.3564 -60.3559 -60.3514
   -60.3510 -60.3503 -60.3458 -60.3403 -60.3391 -60.3364 -60.3343 -60.3325
   -60.3265 -60.3224 -60.3213 -60.3208 -60.3181 -60.3161 -60.3123 -60.3106
   -60.3105 -60.3080 -60.3065 -60.3044 -60.3031 -60.2986 -60.2944 -60.2922
   -60.2894 -60.2874 -60.2865 -60.2852 -60.2836 -60.2827 -60.2807 -60.2802
   -60.2785 -60.2768 -60.2738 -60.2735 -60.2703 -60.2696 -60.2682 -60.2673
   -60.2619 -60.2613 -60.2531 -60.2527 -60.2505 -60.2496 -60.2477 -60.2447
   -60.2437 -60.2432 -60.2407 -60.2378 -60.2372 -60.2352 -60.2321 -60.2309
   -60.2283 -60.2258 -60.2240 -60.2214 -60.2206 -60.2196 -60.2152 -60.2106
   -60.2091 -60.2077 -60.2066 -60.2028 -60.2013 -60.2008 -60.1989 -60.1902
   -60.1877 -60.1850 -60.1838 -60.1818 -60.1797 -60.1795 -60.1764 -60.1754
   -60.1725 -60.1698 -60.1640 -60.1614 -60.1608 -60.1587 -60.1522 -60.1517
   -60.1512 -60.1500 -60.1461 -60.1454 -60.1438 -60.1401 -60.1374 -60.1363
   -60.1289 -60.1276 -60.1272 -60.1241 -60.1233 -60.1200 -60.1173 -60.1163
   -60.1147 -60.1138 -60.1118 -60.1099 -60.1097 -60.1082 -60.1053 -60.1021
   -24.9413 -15.1082 -15.1049 -14.0583 -13.1792 -12.8510 -12.6431 -12.3890
   -12.1845 -12.0899 -11.8436 -11.7459 -11.5737 -11.5329 -11.4097 -11.3148
   -11.2150 -11.1530 -11.0751 -10.9944 -10.9074 -10.8568 -10.8069 -10.7840
   -10.7764 -10.7584 -10.7291 -10.7254 -10.7111 -10.5752 -10.4938 -10.4627
   -10.4329 -10.4287 -10.4174 -10.3973 -10.3868 -10.3817 -10.3744 -10.3623
   -10.3510 -10.3291 -10.3215 -10.3158 -10.2899 -10.2875 -10.2616 -10.2535
   -10.2371 -10.2269 -10.2100 -10.2044 -10.1844 -10.1587 -10.1376 -10.1311
   -10.1077 -10.1055 -10.0984 -10.0946 -10.0707  -9.9788  -9.9504  -9.9346
    -9.9264  -9.9063  -9.8798  -9.7986  -9.7644  -9.7431  -9.6931  -9.6749
    -9.6336  -9.6273  -9.5881  -9.5406  -9.5295  -9.5205  -9.5141  -9.5015
    -9.4960  -9.4875  -9.4752  -9.4708  -9.4626  -9.4594  -9.4570  -9.4558
    -9.4407  -9.4254  -9.4198  -9.4155  -9.4111  -9.3976  -9.3921  -9.3848
    -9.3795  -9.3748  -9.3687  -9.3677  -9.3616  -9.3577  -9.3536  -9.3345
    -9.3170  -9.2929  -9.2813  -9.2737  -9.2601  -9.2578  -9.2375  -9.2205
    -9.2186  -9.2058  -9.2028  -9.1926  -9.1215  -9.1134  -9.0956  -9.0663
    -9.0363  -9.0359  -9.0255  -9.0070  -8.9879  -8.9309  -8.9221  -8.9170
    -8.9086  -8.9039  -8.8987  -8.8843  -8.8833  -8.8737  -8.8714  -8.8570
    -8.8551  -8.8394  -8.8194  -8.8160  -8.8092  -8.7984  -8.7761  -8.7651
    -8.7588  -8.7216  -8.7151  -8.6883  -8.6844  -8.6740  -8.6592  -8.6517
    -8.6425  -8.6284  -8.6204  -8.6168  -8.6046  -8.5980  -8.5928  -8.5841
    -8.5731  -8.5692  -8.5648  -8.5503  -8.5462  -8.5160  -8.4999  -8.4936
    -8.4616  -8.4494  -8.4462  -8.4225  -8.4149  -8.4068  -8.3815  -8.3717
    -8.3661  -8.3512  -8.3454  -8.3356  -8.3286  -8.2902  -8.2717  -8.2500
    -8.2340  -8.2200  -8.1968  -8.1682  -8.1540  -8.1491  -8.1087  -8.0645
    -7.9657  -7.9497  -7.9385  -7.9061  -7.8943  -7.8763  -7.8715  -7.8344
    -7.8260  -7.8097  -7.8064  -7.7893  -7.7868  -7.7757  -7.7566  -7.7534
    -7.7524  -7.7390  -7.7345  -7.7249  -7.7053  -7.6918  -7.6671  -7.6447
    -7.6288  -7.6178  -7.6085  -7.6063  -7.5997  -7.5875  -7.5826  -7.5776
    -7.5748  -7.5715  -7.5607  -7.5522  -7.5490  -7.5405  -7.5152  -7.5108
    -7.4965  -7.4897  -7.4808  -7.4699  -7.4615  -7.4556  -7.4500  -7.4455
    -7.4406  -7.4358  -7.4294  -7.4252  -7.4231  -7.4107  -7.4101  -7.4037
    -7.3969  -7.3895  -7.3802  -7.3773  -7.3718  -7.3610  -7.3560  -7.3511
    -7.3425  -7.3411  -7.3381  -7.3347  -7.3313  -7.3260  -7.3254  -7.3243
    -7.3061  -7.3014  -7.2965  -7.2910  -7.2836  -7.2810  -7.2759  -7.2727
    -7.2660  -7.2625  -7.2603  -7.2583  -7.2406  -7.2355  -7.2242  -7.2140
    -7.2106  -7.2061  -7.1839  -7.1658  -7.1558  -7.1322  -7.1263  -7.1157
    -7.1098  -7.1093  -7.0993  -7.0911  -7.0836  -7.0806  -7.0767  -7.0734
    -7.0645  -7.0618  -7.0356  -7.0049  -6.9985  -6.9929  -6.9869  -6.9855
    -6.9781  -6.9672  -6.9610  -6.9450  -6.9437  -6.9367  -6.9213  -6.9101
    -6.8735  -6.8125  -6.8058  -6.7947  -6.7774  -6.5885  -6.5711  -6.5599
    -6.5455  -6.5304  -6.5210  -6.5004  -6.4973  -6.4896  -6.4666  -6.4241
    -6.4073  -6.3926  -6.3852  -6.3735  -6.3636  -6.3561  -6.3449  -6.3241
    -6.3171  -6.2789  -6.2738  -6.2547  -6.2074  -6.1911  -6.1625  -6.0889
    -6.0599  -5.9817  -5.8505  -5.8175  -5.6794  -5.5356  -5.3786  -5.3676
    -5.2685  -5.1123  -5.0920  -4.9505  -4.9403  -4.8495  -4.8026  -4.7588
    -4.6257  -4.5541  -4.3825

          k = 0.0000-0.5303 0.0000 (128388 PWs)   bands (ev):

   -94.3960 -94.3955 -94.3865 -94.3833 -94.3811 -94.3806 -94.3769 -94.3767
   -94.3764 -94.3707 -94.3704 -94.3699 -94.3684 -94.3639 -94.3621 -94.3618
   -94.3587 -94.3586 -94.3579 -94.3571 -94.3558 -94.3553 -94.3550 -94.3458
   -94.3444 -94.3441 -94.3432 -94.3299 -94.3294 -94.2937 -94.2924 -94.2906
   -94.2599 -94.2586 -94.2453 -94.2429 -94.2366 -94.2346 -94.2291 -94.2289
   -94.2263 -94.2253 -94.2231 -94.2224 -94.2195 -94.2182 -94.2166 -94.2159
   -94.2138 -94.2113 -94.2111 -94.2102 -94.2075 -94.2052 -94.2005 -94.1994
   -94.1968 -94.1959 -94.1893 -94.1872 -94.1708 -94.1685 -94.1630 -94.1627
   -60.5878 -60.5842 -60.5768 -60.5712 -60.5693 -60.5662 -60.5622 -60.5600
   -60.5596 -60.5584 -60.5575 -60.5573 -60.5533 -60.5529 -60.5513 -60.5500
   -60.5494 -60.5479 -60.5460 -60.5431 -60.5424 -60.5395 -60.5392 -60.5339
   -60.5333 -60.5327 -60.5277 -60.5272 -60.5246 -60.5215 -60.5038 -60.5027
   -60.4999 -60.4990 -60.4970 -60.4942 -60.4873 -60.4847 -60.4791 -60.4781
   -60.4727 -60.4705 -60.4671 -60.4613 -60.4611 -60.4594 -60.4535 -60.4480
   -60.4422 -60.4418 -60.4346 -60.4305 -60.4290 -60.4271 -60.4214 -60.4146
   -60.4075 -60.4035 -60.4015 -60.4003 -60.3997 -60.3948 -60.3916 -60.3902
   -60.3893 -60.3824 -60.3823 -60.3807 -60.3794 -60.3783 -60.3750 -60.3732
   -60.3731 -60.3702 -60.3683 -60.3677 -60.3670 -60.3600 -60.3600 -60.3577
   -60.3559 -60.3556 -60.3540 -60.3522 -60.3492 -60.3459 -60.3436 -60.3403
   -60.3391 -60.3290 -60.3256 -60.3241 -60.3155 -60.3091 -60.3087 -60.3077
   -60.3037 -60.3009 -60.3005 -60.2970 -60.2933 -60.2909 -60.2896 -60.2864
   -60.2849 -60.2839 -60.2836 -60.2826 -60.2824 -60.2804 -60.2788 -60.2786
   -60.2764 -60.2730 -60.2728 -60.2700 -60.2672 -60.2666 -60.2660 -60.2649
   -60.2641 -60.2612 -60.2594 -60.2564 -60.2558 -60.2499 -60.2495 -60.2459
   -60.2442 -60.2422 -60.2407 -60.2378 -60.2344 -60.2328 -60.2300 -60.2282
   -60.2233 -60.2220 -60.2192 -60.2158 -60.2149 -60.2131 -60.2105 -60.2097
   -60.2076 -60.2072 -60.2052 -60.2044 -60.2041 -60.1998 -60.1985 -60.1950
   -60.1943 -60.1891 -60.1831 -60.1830 -60.1796 -60.1771 -60.1755 -60.1739
   -60.1730 -60.1691 -60.1611 -60.1548 -60.1526 -60.1507 -60.1503 -60.1484
   -60.1464 -60.1433 -60.1417 -60.1406 -60.1405 -60.1399 -60.1371 -60.1370
   -60.1336 -60.1334 -60.1320 -60.1301 -60.1286 -60.1266 -60.1250 -60.1245
   -60.1220 -60.1195 -60.1156 -60.1140 -60.1100 -60.1083 -60.1051 -60.1033
   -24.9413 -15.1084 -15.1050 -13.7198 -13.7149 -12.6219 -12.5967 -12.5526
   -12.5081 -11.8787 -11.6953 -11.6709 -11.5413 -11.4523 -11.1861 -11.1820
   -11.1538 -11.1084 -11.0534 -11.0348 -10.9143 -10.9094 -10.8854 -10.8366
   -10.7618 -10.7550 -10.6458 -10.6441 -10.6322 -10.6303 -10.6179 -10.6097
   -10.5872 -10.5857 -10.5786 -10.5725 -10.4838 -10.4806 -10.4247 -10.4110
   -10.4074 -10.3773 -10.2664 -10.2610 -10.2606 -10.2546 -10.1873 -10.1839
   -10.1765 -10.1715 -10.1659 -10.1541 -10.1533 -10.1432 -10.1310 -10.1274
   -10.1204 -10.1144 -10.0203 -10.0063 -10.0056  -9.9996  -9.9887  -9.9878
    -9.9744  -9.9649  -9.8878  -9.8743  -9.8232  -9.8121  -9.7757  -9.7735
    -9.7037  -9.6901  -9.5694  -9.5528  -9.5199  -9.5197  -9.4965  -9.4930
    -9.4864  -9.4763  -9.4725  -9.4658  -9.4591  -9.4516  -9.4464  -9.4381
    -9.4320  -9.4164  -9.4157  -9.4122  -9.4091  -9.4069  -9.4007  -9.3982
    -9.3601  -9.3489  -9.3149  -9.3101  -9.2805  -9.2692  -9.2660  -9.2630
    -9.2407  -9.2353  -9.2270  -9.2266  -9.2182  -9.2103  -9.2095  -9.2085
    -9.2028  -9.1966  -9.1927  -9.1822  -9.1535  -9.1497  -9.1464  -9.1420
    -9.1342  -9.1253  -9.0076  -8.9774  -8.9564  -8.9342  -8.8968  -8.8915
    -8.8906  -8.8891  -8.8821  -8.8794  -8.8754  -8.8663  -8.8620  -8.8579
    -8.8574  -8.8475  -8.8413  -8.8383  -8.8325  -8.8295  -8.7999  -8.7964
    -8.7950  -8.7935  -8.7875  -8.7387  -8.7380  -8.7269  -8.7227  -8.7136
    -8.7017  -8.6991  -8.6701  -8.6628  -8.6530  -8.6520  -8.6269  -8.6242
    -8.6126  -8.5951  -8.5727  -8.5561  -8.5430  -8.5411  -8.5073  -8.5051
    -8.4147  -8.4037  -8.3997  -8.3875  -8.3828  -8.3725  -8.3620  -8.3561
    -8.3537  -8.3389  -8.3254  -8.3048  -8.2150  -8.2125  -8.0868  -8.0857
    -8.0764  -8.0714  -8.0676  -8.0640  -8.0274  -8.0177  -8.0080  -7.9831
    -7.9439  -7.9245  -7.9196  -7.9192  -7.8965  -7.8956  -7.8881  -7.8864
    -7.8819  -7.8789  -7.8711  -7.8639  -7.8636  -7.8554  -7.8319  -7.8065
    -7.7501  -7.7461  -7.7338  -7.7181  -7.7173  -7.7119  -7.7043  -7.6787
    -7.6771  -7.6552  -7.6071  -7.6038  -7.5882  -7.5854  -7.5809  -7.5747
    -7.5725  -7.5666  -7.5658  -7.5652  -7.5573  -7.5532  -7.5523  -7.5441
    -7.5404  -7.5331  -7.5299  -7.5259  -7.5170  -7.5156  -7.5138  -7.4763
    -7.4458  -7.4221  -7.4217  -7.4055  -7.4043  -7.4006  -7.3988  -7.3896
    -7.3840  -7.3795  -7.3712  -7.3656  -7.3616  -7.3598  -7.3578  -7.3530
    -7.3450  -7.3437  -7.3383  -7.3297  -7.3277  -7.3194  -7.3115  -7.2945
    -7.2835  -7.2745  -7.2740  -7.2642  -7.2595  -7.2236  -7.2207  -7.2112
    -7.2104  -7.2063  -7.1997  -7.1943  -7.1712  -7.1611  -7.1562  -7.1479
    -7.1306  -7.1258  -7.1252  -7.1223  -7.1186  -7.1156  -7.1127  -7.1079
    -7.1021  -7.1016  -7.0974  -7.0956  -7.0926  -7.0902  -7.0868  -7.0849
    -7.0816  -7.0681  -7.0661  -7.0257  -7.0181  -6.9928  -6.9827  -6.9182
    -6.9131  -6.9128  -6.8751  -6.8686  -6.8269  -6.8246  -6.8153  -6.8123
    -6.7015  -6.6973  -6.6939  -6.6905  -6.6728  -6.6697  -6.6261  -6.6248
    -6.6114  -6.6060  -6.5994  -6.5811  -6.5599  -6.5405  -6.5402  -6.5277
    -6.5246  -6.4852  -6.4451  -6.4251  -6.4122  -6.3982  -6.3718  -6.3614
    -6.3369  -6.3297  -6.3226  -6.3118  -6.3002  -6.2990  -6.2895  -6.2855
    -6.2733  -6.1280  -5.9448  -5.9355  -5.8286  -5.7080  -5.5286  -5.5283
    -5.3050  -5.3044  -5.2788  -5.1360  -4.6655  -4.6570  -4.5477  -4.4911
    -4.4901  -4.4439  -4.4366

          k = 0.2500-0.0884 0.0000 (128371 PWs)   bands (ev):

   -94.3996 -94.3901 -94.3883 -94.3832 -94.3806 -94.3805 -94.3770 -94.3767
   -94.3757 -94.3716 -94.3711 -94.3682 -94.3672 -94.3649 -94.3642 -94.3628
   -94.3594 -94.3581 -94.3576 -94.3568 -94.3557 -94.3546 -94.3531 -94.3479
   -94.3461 -94.3435 -94.3417 -94.3299 -94.3292 -94.2937 -94.2924 -94.2906
   -94.2635 -94.2530 -94.2460 -94.2417 -94.2398 -94.2360 -94.2291 -94.2282
   -94.2267 -94.2240 -94.2226 -94.2207 -94.2192 -94.2183 -94.2170 -94.2155
   -94.2149 -94.2128 -94.2108 -94.2105 -94.2080 -94.2044 -94.2010 -94.1988
   -94.1967 -94.1949 -94.1893 -94.1880 -94.1705 -94.1686 -94.1651 -94.1608
   -60.5930 -60.5793 -60.5744 -60.5697 -60.5682 -60.5654 -60.5636 -60.5618
   -60.5604 -60.5594 -60.5567 -60.5552 -60.5544 -60.5536 -60.5528 -60.5519
   -60.5507 -60.5474 -60.5460 -60.5434 -60.5408 -60.5392 -60.5384 -60.5380
   -60.5327 -60.5323 -60.5301 -60.5267 -60.5251 -60.5197 -60.5147 -60.5096
   -60.5082 -60.5021 -60.4952 -60.4942 -60.4894 -60.4862 -60.4846 -60.4813
   -60.4758 -60.4726 -60.4721 -60.4713 -60.4678 -60.4587 -60.4430 -60.4402
   -60.4339 -60.4311 -60.4249 -60.4215 -60.4198 -60.4130 -60.4101 -60.4072
   -60.4056 -60.4042 -60.4009 -60.4006 -60.3992 -60.3949 -60.3940 -60.3922
   -60.3898 -60.3879 -60.3843 -60.3831 -60.3805 -60.3784 -60.3763 -60.3752
   -60.3740 -60.3723 -60.3706 -60.3696 -60.3663 -60.3564 -60.3559 -60.3514
   -60.3510 -60.3503 -60.3458 -60.3403 -60.3391 -60.3364 -60.3343 -60.3325
   -60.3265 -60.3224 -60.3213 -60.3208 -60.3181 -60.3161 -60.3123 -60.3106
   -60.3105 -60.3080 -60.3065 -60.3044 -60.3031 -60.2986 -60.2944 -60.2922
   -60.2893 -60.2873 -60.2865 -60.2852 -60.2836 -60.2827 -60.2807 -60.2802
   -60.2785 -60.2768 -60.2738 -60.2735 -60.2703 -60.2696 -60.2682 -60.2673
   -60.2619 -60.2613 -60.2530 -60.2527 -60.2505 -60.2496 -60.2477 -60.2447
   -60.2437 -60.2432 -60.2407 -60.2378 -60.2372 -60.2352 -60.2321 -60.2308
   -60.2283 -60.2258 -60.2240 -60.2214 -60.2205 -60.2196 -60.2152 -60.2106
   -60.2091 -60.2076 -60.2066 -60.2028 -60.2012 -60.2008 -60.1989 -60.1902
   -60.1877 -60.1850 -60.1837 -60.1818 -60.1796 -60.1795 -60.1764 -60.1754
   -60.1725 -60.1698 -60.1640 -60.1614 -60.1608 -60.1587 -60.1522 -60.1517
   -60.1512 -60.1500 -60.1461 -60.1454 -60.1438 -60.1401 -60.1374 -60.1363
   -60.1289 -60.1276 -60.1272 -60.1241 -60.1233 -60.1200 -60.1173 -60.1163
   -60.1147 -60.1138 -60.1118 -60.1099 -60.1097 -60.1082 -60.1053 -60.1021
   -24.9413 -15.1080 -15.1051 -14.0583 -13.1792 -12.8510 -12.6431 -12.3890
   -12.1845 -12.0899 -11.8436 -11.7459 -11.5737 -11.5329 -11.4097 -11.3147
   -11.2150 -11.1530 -11.0751 -10.9944 -10.9074 -10.8568 -10.8069 -10.7840
   -10.7764 -10.7584 -10.7291 -10.7254 -10.7111 -10.5752 -10.4938 -10.4627
   -10.4329 -10.4287 -10.4174 -10.3973 -10.3868 -10.3817 -10.3744 -10.3623
   -10.3510 -10.3292 -10.3215 -10.3158 -10.2899 -10.2875 -10.2616 -10.2535
   -10.2372 -10.2269 -10.2100 -10.2044 -10.1844 -10.1587 -10.1376 -10.1311
   -10.1077 -10.1055 -10.0984 -10.0946 -10.0707  -9.9788  -9.9504  -9.9346
    -9.9264  -9.9063  -9.8798  -9.7986  -9.7644  -9.7431  -9.6931  -9.6749
    -9.6335  -9.6274  -9.5881  -9.5406  -9.5295  -9.5205  -9.5141  -9.5014
    -9.4960  -9.4875  -9.4752  -9.4708  -9.4626  -9.4594  -9.4570  -9.4558
    -9.4407  -9.4254  -9.4198  -9.4155  -9.4111  -9.3977  -9.3921  -9.3848
    -9.3795  -9.3748  -9.3687  -9.3677  -9.3616  -9.3576  -9.3536  -9.3345
    -9.3170  -9.2929  -9.2813  -9.2737  -9.2601  -9.2578  -9.2375  -9.2205
    -9.2186  -9.2058  -9.2028  -9.1926  -9.1215  -9.1134  -9.0956  -9.0663
    -9.0363  -9.0359  -9.0255  -9.0070  -8.9879  -8.9309  -8.9221  -8.9170
    -8.9086  -8.9039  -8.8987  -8.8843  -8.8833  -8.8737  -8.8713  -8.8570
    -8.8551  -8.8394  -8.8194  -8.8160  -8.8092  -8.7984  -8.7761  -8.7651
    -8.7588  -8.7216  -8.7150  -8.6883  -8.6844  -8.6741  -8.6592  -8.6517
    -8.6425  -8.6284  -8.6204  -8.6168  -8.6046  -8.5980  -8.5928  -8.5842
    -8.5731  -8.5692  -8.5648  -8.5503  -8.5462  -8.5160  -8.4999  -8.4936
    -8.4616  -8.4494  -8.4462  -8.4225  -8.4149  -8.4068  -8.3815  -8.3717
    -8.3661  -8.3512  -8.3454  -8.3356  -8.3286  -8.2902  -8.2717  -8.2500
    -8.2340  -8.2200  -8.1968  -8.1682  -8.1540  -8.1491  -8.1087  -8.0645
    -7.9657  -7.9497  -7.9385  -7.9062  -7.8942  -7.8762  -7.8716  -7.8344
    -7.8260  -7.8097  -7.8064  -7.7893  -7.7868  -7.7757  -7.7565  -7.7534
    -7.7524  -7.7390  -7.7345  -7.7249  -7.7053  -7.6918  -7.6671  -7.6447
    -7.6288  -7.6178  -7.6085  -7.6063  -7.5997  -7.5875  -7.5826  -7.5776
    -7.5748  -7.5715  -7.5607  -7.5522  -7.5490  -7.5405  -7.5152  -7.5108
    -7.4965  -7.4897  -7.4808  -7.4699  -7.4615  -7.4556  -7.4500  -7.4455
    -7.4406  -7.4358  -7.4294  -7.4252  -7.4231  -7.4107  -7.4101  -7.4037
    -7.3969  -7.3895  -7.3802  -7.3773  -7.3718  -7.3610  -7.3560  -7.3511
    -7.3425  -7.3410  -7.3381  -7.3346  -7.3313  -7.3259  -7.3254  -7.3243
    -7.3061  -7.3014  -7.2965  -7.2910  -7.2836  -7.2810  -7.2759  -7.2727
    -7.2660  -7.2625  -7.2602  -7.2583  -7.2406  -7.2356  -7.2242  -7.2140
    -7.2106  -7.2061  -7.1839  -7.1658  -7.1558  -7.1322  -7.1263  -7.1157
    -7.1098  -7.1093  -7.0993  -7.0912  -7.0836  -7.0806  -7.0767  -7.0734
    -7.0645  -7.0617  -7.0356  -7.0049  -6.9985  -6.9929  -6.9869  -6.9855
    -6.9781  -6.9672  -6.9610  -6.9450  -6.9437  -6.9367  -6.9213  -6.9101
    -6.8735  -6.8125  -6.8058  -6.7948  -6.7774  -6.5885  -6.5711  -6.5599
    -6.5455  -6.5303  -6.5210  -6.5004  -6.4973  -6.4896  -6.4666  -6.4240
    -6.4073  -6.3926  -6.3852  -6.3735  -6.3636  -6.3561  -6.3449  -6.3241
    -6.3171  -6.2789  -6.2738  -6.2546  -6.2074  -6.1911  -6.1625  -6.0890
    -6.0599  -5.9817  -5.8505  -5.8175  -5.6794  -5.5356  -5.3786  -5.3676
    -5.2685  -5.1123  -5.0919  -4.9914  -4.9505  -4.9403  -4.8495  -4.8025
    -4.7588  -4.6255  -4.5531

          k = 0.2500 0.1768 0.0000 (128340 PWs)   bands (ev):

   -94.3987 -94.3890 -94.3876 -94.3862 -94.3825 -94.3809 -94.3775 -94.3765
   -94.3746 -94.3736 -94.3676 -94.3660 -94.3657 -94.3655 -94.3644 -94.3631
   -94.3610 -94.3589 -94.3584 -94.3573 -94.3567 -94.3546 -94.3495 -94.3477
   -94.3469 -94.3431 -94.3424 -94.3297 -94.3296 -94.2937 -94.2924 -94.2906
   -94.2627 -94.2512 -94.2487 -94.2455 -94.2390 -94.2360 -94.2269 -94.2251
   -94.2237 -94.2232 -94.2213 -94.2210 -94.2204 -94.2201 -94.2193 -94.2172
   -94.2153 -94.2135 -94.2111 -94.2086 -94.2077 -94.2053 -94.2021 -94.1975
   -94.1967 -94.1951 -94.1898 -94.1872 -94.1699 -94.1686 -94.1652 -94.1612
   -60.5927 -60.5784 -60.5747 -60.5706 -60.5678 -60.5659 -60.5646 -60.5613
   -60.5586 -60.5579 -60.5572 -60.5568 -60.5553 -60.5538 -60.5523 -60.5508
   -60.5484 -60.5469 -60.5452 -60.5442 -60.5434 -60.5430 -60.5398 -60.5336
   -60.5334 -60.5326 -60.5282 -60.5278 -60.5236 -60.5202 -60.5085 -60.5040
   -60.5016 -60.5011 -60.4896 -60.4891 -60.4811 -60.4792 -60.4787 -60.4781
   -60.4760 -60.4729 -60.4725 -60.4667 -60.4642 -60.4613 -60.4446 -60.4401
   -60.4377 -60.4345 -60.4327 -60.4301 -60.4262 -60.4260 -60.4216 -60.4196
   -60.4154 -60.4119 -60.4069 -60.4013 -60.3989 -60.3970 -60.3953 -60.3924
   -60.3913 -60.3889 -60.3852 -60.3831 -60.3825 -60.3822 -60.3801 -60.3783
   -60.3761 -60.3744 -60.3716 -60.3690 -60.3648 -60.3590 -60.3557 -60.3539
   -60.3525 -60.3423 -60.3422 -60.3393 -60.3378 -60.3371 -60.3354 -60.3320
   -60.3307 -60.3277 -60.3250 -60.3206 -60.3204 -60.3120 -60.3110 -60.3101
   -60.3082 -60.3036 -60.3015 -60.3002 -60.2983 -60.2964 -60.2954 -60.2933
   -60.2932 -60.2918 -60.2891 -60.2885 -60.2856 -60.2837 -60.2796 -60.2791
   -60.2775 -60.2770 -60.2743 -60.2698 -60.2696 -60.2664 -60.2630 -60.2615
   -60.2566 -60.2538 -60.2530 -60.2526 -60.2511 -60.2481 -60.2480 -60.2455
   -60.2442 -60.2380 -60.2357 -60.2353 -60.2334 -60.2328 -60.2322 -60.2315
   -60.2261 -60.2185 -60.2175 -60.2170 -60.2159 -60.2152 -60.2135 -60.2131
   -60.2105 -60.2074 -60.2074 -60.2038 -60.2016 -60.1966 -60.1963 -60.1944
   -60.1906 -60.1875 -60.1846 -60.1839 -60.1820 -60.1740 -60.1698 -60.1695
   -60.1662 -60.1661 -60.1612 -60.1609 -60.1582 -60.1565 -60.1549 -60.1537
   -60.1504 -60.1503 -60.1474 -60.1441 -60.1427 -60.1402 -60.1379 -60.1371
   -60.1305 -60.1287 -60.1279 -60.1272 -60.1264 -60.1212 -60.1192 -60.1179
   -60.1171 -60.1165 -60.1161 -60.1148 -60.1135 -60.1132 -60.1097 -60.1047
   -24.9413 -15.1081 -15.1051 -14.0190 -12.8844 -12.8669 -12.8611 -12.8082
   -12.0326 -11.9140 -11.8837 -11.7542 -11.7432 -11.5683 -11.3687 -11.2685
   -11.1455 -11.0984 -10.9766 -10.8320 -10.8245 -10.8236 -10.7870 -10.7828
   -10.7186 -10.7003 -10.6978 -10.6905 -10.5989 -10.5987 -10.5928 -10.5675
   -10.4947 -10.4755 -10.4618 -10.4531 -10.3825 -10.3720 -10.3650 -10.3453
   -10.3355 -10.3143 -10.3136 -10.3088 -10.3073 -10.3033 -10.3004 -10.2977
   -10.2901 -10.2846 -10.2702 -10.2256 -10.2152 -10.2036 -10.2003 -10.1326
   -10.1324 -10.1242 -10.1161 -10.0728  -9.9544  -9.9503  -9.9220  -9.9216
    -9.8613  -9.8403  -9.8326  -9.8253  -9.8042  -9.7968  -9.7962  -9.6609
    -9.6536  -9.6158  -9.6151  -9.5524  -9.5486  -9.5403  -9.5335  -9.5274
    -9.5271  -9.5266  -9.5116  -9.5103  -9.5066  -9.5032  -9.4926  -9.4919
    -9.4865  -9.4700  -9.4465  -9.4437  -9.3880  -9.3807  -9.3804  -9.3703
    -9.3686  -9.3289  -9.3243  -9.3174  -9.3101  -9.3082  -9.3014  -9.2909
    -9.2801  -9.2722  -9.2631  -9.2478  -9.2183  -9.2097  -9.1739  -9.1668
    -9.1629  -9.1438  -9.1348  -9.1272  -9.1131  -9.1089  -9.1064  -9.0947
    -9.0937  -9.0847  -9.0839  -9.0728  -9.0599  -9.0037  -9.0032  -8.9870
    -8.9773  -8.9192  -8.9107  -8.8987  -8.8986  -8.8934  -8.8898  -8.8813
    -8.8703  -8.8377  -8.8341  -8.8134  -8.8107  -8.8065  -8.7913  -8.7856
    -8.7805  -8.7557  -8.7517  -8.7437  -8.7313  -8.7266  -8.7047  -8.6703
    -8.6479  -8.6367  -8.6322  -8.6254  -8.6037  -8.6033  -8.6021  -8.5914
    -8.5508  -8.5234  -8.5126  -8.5095  -8.4964  -8.4913  -8.4903  -8.4825
    -8.4791  -8.4714  -8.4704  -8.4672  -8.4607  -8.4493  -8.4482  -8.4370
    -8.4150  -8.4032  -8.3906  -8.3853  -8.3248  -8.3237  -8.1981  -8.1704
    -8.1616  -8.1447  -8.1349  -8.1301  -8.1130  -8.0637  -8.0026  -7.9791
    -7.9708  -7.9453  -7.9037  -7.9032  -7.8999  -7.8866  -7.8742  -7.8699
    -7.8381  -7.8227  -7.8087  -7.8013  -7.7923  -7.7862  -7.7711  -7.7467
    -7.7230  -7.7194  -7.7104  -7.6953  -7.6946  -7.6789  -7.6783  -7.6702
    -7.6695  -7.6575  -7.6446  -7.6367  -7.6271  -7.6218  -7.5891  -7.5625
    -7.5594  -7.5514  -7.5416  -7.5368  -7.5350  -7.5296  -7.5256  -7.5227
    -7.5124  -7.5070  -7.4971  -7.4724  -7.4566  -7.4552  -7.4445  -7.4417
    -7.4402  -7.4349  -7.4277  -7.4265  -7.4200  -7.4105  -7.3903  -7.3806
    -7.3755  -7.3682  -7.3670  -7.3569  -7.3546  -7.3502  -7.3346  -7.3241
    -7.3149  -7.3132  -7.3024  -7.3010  -7.2935  -7.2852  -7.2778  -7.2733
    -7.2717  -7.2535  -7.2458  -7.2409  -7.2312  -7.2273  -7.2249  -7.2216
    -7.2194  -7.2188  -7.2137  -7.2136  -7.1981  -7.1900  -7.1820  -7.1730
    -7.1680  -7.1609  -7.1560  -7.1458  -7.1352  -7.1327  -7.1312  -7.1250
    -7.1247  -7.1137  -7.1120  -7.1036  -7.0987  -7.0853  -7.0816  -7.0810
    -7.0617  -7.0608  -7.0474  -7.0261  -7.0181  -6.9875  -6.9815  -6.9747
    -6.9543  -6.9505  -6.9326  -6.9179  -6.8964  -6.8897  -6.8896  -6.8585
    -6.8373  -6.7984  -6.7935  -6.7795  -6.7616  -6.6336  -6.6329  -6.6038
    -6.5400  -6.5309  -6.5194  -6.4761  -6.4503  -6.4491  -6.4042  -6.3879
    -6.3714  -6.3624  -6.3552  -6.3545  -6.3520  -6.3433  -6.3401  -6.3245
    -6.2740  -6.2562  -6.2498  -6.1638  -6.1594  -6.1319  -6.0479  -5.9623
    -5.9459  -5.9450  -5.8145  -5.8008  -5.6884  -5.5205  -5.5105  -5.3760
    -5.3730  -5.3618  -5.2756  -5.2591  -5.2475  -5.2250  -5.1897  -5.1758
    -4.9469  -4.8723  -4.7253

          k = 0.2500-0.6187 0.0000 (128424 PWs)   bands (ev):

   -94.3953 -94.3937 -94.3871 -94.3857 -94.3831 -94.3828 -94.3782 -94.3746
   -94.3725 -94.3704 -94.3699 -94.3683 -94.3675 -94.3649 -94.3630 -94.3624
   -94.3623 -94.3600 -94.3586 -94.3568 -94.3551 -94.3541 -94.3506 -94.3470
   -94.3460 -94.3442 -94.3422 -94.3300 -94.3294 -94.2938 -94.2924 -94.2906
   -94.2593 -94.2566 -94.2507 -94.2436 -94.2371 -94.2307 -94.2277 -94.2277
   -94.2256 -94.2252 -94.2237 -94.2225 -94.2204 -94.2178 -94.2172 -94.2160
   -94.2149 -94.2128 -94.2115 -94.2086 -94.2077 -94.2053 -94.2021 -94.1976
   -94.1967 -94.1962 -94.1901 -94.1862 -94.1703 -94.1681 -94.1638 -94.1627
   -60.5883 -60.5811 -60.5779 -60.5753 -60.5682 -60.5649 -60.5632 -60.5601
   -60.5583 -60.5575 -60.5567 -60.5561 -60.5536 -60.5527 -60.5512 -60.5504
   -60.5491 -60.5484 -60.5472 -60.5456 -60.5438 -60.5389 -60.5377 -60.5353
   -60.5325 -60.5306 -60.5302 -60.5261 -60.5238 -60.5209 -60.4974 -60.4941
   -60.4918 -60.4906 -60.4899 -60.4864 -60.4820 -60.4793 -60.4754 -60.4732
   -60.4718 -60.4692 -60.4688 -60.4672 -60.4605 -60.4560 -60.4543 -60.4509
   -60.4498 -60.4471 -60.4447 -60.4410 -60.4324 -60.4278 -60.4256 -60.4227
   -60.4203 -60.4174 -60.4082 -60.4076 -60.4021 -60.3961 -60.3951 -60.3923
   -60.3914 -60.3887 -60.3882 -60.3824 -60.3770 -60.3759 -60.3738 -60.3729
   -60.3717 -60.3714 -60.3703 -60.3682 -60.3671 -60.3640 -60.3624 -60.3609
   -60.3569 -60.3552 -60.3529 -60.3495 -60.3421 -60.3402 -60.3388 -60.3384
   -60.3362 -60.3354 -60.3299 -60.3285 -60.3200 -60.3172 -60.3094 -60.3079
   -60.3034 -60.3020 -60.2979 -60.2948 -60.2943 -60.2916 -60.2873 -60.2866
   -60.2864 -60.2860 -60.2845 -60.2822 -60.2791 -60.2785 -60.2776 -60.2761
   -60.2731 -60.2702 -60.2687 -60.2674 -60.2645 -60.2640 -60.2614 -60.2610
   -60.2607 -60.2583 -60.2576 -60.2554 -60.2540 -60.2502 -60.2499 -60.2458
   -60.2425 -60.2409 -60.2365 -60.2346 -60.2293 -60.2279 -60.2253 -60.2230
   -60.2223 -60.2209 -60.2194 -60.2188 -60.2160 -60.2135 -60.2121 -60.2104
   -60.2089 -60.2079 -60.2073 -60.2024 -60.1992 -60.1981 -60.1936 -60.1925
   -60.1901 -60.1866 -60.1857 -60.1851 -60.1798 -60.1781 -60.1749 -60.1663
   -60.1639 -60.1601 -60.1578 -60.1540 -60.1521 -60.1511 -60.1500 -60.1492
   -60.1470 -60.1459 -60.1430 -60.1415 -60.1405 -60.1397 -60.1393 -60.1381
   -60.1351 -60.1344 -60.1324 -60.1310 -60.1299 -60.1288 -60.1276 -60.1253
   -60.1223 -60.1213 -60.1189 -60.1176 -60.1170 -60.1149 -60.1119 -60.1073
   -24.9413 -15.1083 -15.1051 -13.7530 -13.4598 -13.1709 -12.5762 -12.3889
   -12.3027 -12.0630 -11.9217 -11.7126 -11.3022 -11.2511 -11.1763 -11.1302
   -11.0979 -11.0547 -11.0020 -10.9811 -10.9039 -10.8779 -10.8122 -10.8043
   -10.7953 -10.7515 -10.7436 -10.6634 -10.6527 -10.6468 -10.6134 -10.6084
   -10.6013 -10.5914 -10.5676 -10.4954 -10.4875 -10.4773 -10.4696 -10.4458
   -10.4155 -10.3967 -10.3719 -10.3614 -10.3496 -10.3281 -10.3169 -10.2366
   -10.2244 -10.1965 -10.1867 -10.1658 -10.1243 -10.1096 -10.0951 -10.0775
   -10.0341 -10.0302 -10.0085 -10.0006  -9.9918  -9.9638  -9.9517  -9.9379
    -9.9279  -9.8962  -9.8723  -9.8483  -9.8318  -9.8269  -9.8170  -9.8022
    -9.7304  -9.7121  -9.6970  -9.6377  -9.5647  -9.5523  -9.5363  -9.5322
    -9.5222  -9.5150  -9.5113  -9.5042  -9.4937  -9.4734  -9.4317  -9.4222
    -9.3910  -9.3872  -9.3813  -9.3583  -9.3531  -9.3483  -9.3238  -9.3176
    -9.3158  -9.3111  -9.3006  -9.2991  -9.2962  -9.2915  -9.2819  -9.2780
    -9.2624  -9.2448  -9.2273  -9.2247  -9.2212  -9.2057  -9.1890  -9.1819
    -9.1713  -9.1647  -9.1578  -9.1478  -9.1341  -9.1198  -9.0958  -9.0781
    -9.0684  -9.0651  -9.0538  -9.0458  -9.0395  -9.0358  -9.0296  -9.0184
    -9.0037  -8.9994  -8.9950  -8.9837  -8.9766  -8.9742  -8.9454  -8.9284
    -8.9254  -8.9178  -8.9012  -8.8785  -8.8694  -8.7832  -8.7542  -8.7525
    -8.7414  -8.7400  -8.7315  -8.7070  -8.7051  -8.7020  -8.6999  -8.6869
    -8.6815  -8.6738  -8.6664  -8.6559  -8.6546  -8.6500  -8.6346  -8.6104
    -8.6024  -8.5881  -8.5832  -8.5798  -8.5719  -8.5394  -8.5068  -8.4850
    -8.4533  -8.4273  -8.4217  -8.4008  -8.3885  -8.3443  -8.3305  -8.3173
    -8.3038  -8.2858  -8.2317  -8.2102  -8.1895  -8.1680  -8.1559  -8.1479
    -8.1145  -8.0700  -8.0617  -8.0473  -8.0349  -8.0086  -8.0003  -7.9913
    -7.9751  -7.9627  -7.9558  -7.9490  -7.9419  -7.9223  -7.9199  -7.9059
    -7.8617  -7.8479  -7.8388  -7.8153  -7.8048  -7.7859  -7.7836  -7.7612
    -7.7530  -7.7451  -7.7274  -7.7202  -7.7112  -7.6991  -7.6911  -7.6879
    -7.6799  -7.6665  -7.6505  -7.6396  -7.6198  -7.6113  -7.6009  -7.5954
    -7.5747  -7.5689  -7.5635  -7.5575  -7.5545  -7.5530  -7.5468  -7.5368
    -7.5276  -7.5210  -7.5140  -7.4966  -7.4834  -7.4683  -7.4496  -7.4459
    -7.4382  -7.4337  -7.4189  -7.4169  -7.4081  -7.4033  -7.3987  -7.3872
    -7.3849  -7.3785  -7.3661  -7.3464  -7.3424  -7.3372  -7.3328  -7.3290
    -7.3218  -7.3118  -7.3060  -7.2864  -7.2839  -7.2789  -7.2720  -7.2695
    -7.2669  -7.2545  -7.2404  -7.2377  -7.2361  -7.2324  -7.2202  -7.2131
    -7.2009  -7.1973  -7.1901  -7.1852  -7.1756  -7.1717  -7.1638  -7.1636
    -7.1535  -7.1482  -7.1393  -7.1325  -7.1307  -7.1249  -7.1232  -7.1153
    -7.1105  -7.0885  -7.0684  -7.0634  -7.0505  -7.0493  -7.0392  -7.0282
    -7.0014  -6.9959  -6.9820  -6.9736  -6.9630  -6.9214  -6.9118  -6.8731
    -6.8695  -6.8562  -6.8517  -6.8236  -6.8089  -6.7787  -6.7658  -6.7478
    -6.7174  -6.7086  -6.7034  -6.6882  -6.6654  -6.6312  -6.6253  -6.6146
    -6.6046  -6.5824  -6.5584  -6.5398  -6.5386  -6.5207  -6.4878  -6.4819
    -6.4738  -6.4501  -6.4207  -6.4021  -6.3967  -6.3959  -6.3805  -6.3622
    -6.3594  -6.3517  -6.3208  -6.3084  -6.2875  -6.2817  -6.2511  -6.2411
    -6.1120  -6.0985  -5.9607  -5.8779  -5.7751  -5.7170  -5.6203  -5.5645
    -5.4788  -5.4393  -5.4247  -5.3500  -5.2783  -5.2023  -4.9917  -4.9770
    -4.9607  -4.7772  -4.7057

          k = 0.2500-0.3536 0.0000 (128397 PWs)   bands (ev):

   -94.3979 -94.3904 -94.3891 -94.3870 -94.3812 -94.3791 -94.3774 -94.3746
   -94.3734 -94.3716 -94.3708 -94.3695 -94.3680 -94.3654 -94.3648 -94.3626
   -94.3593 -94.3586 -94.3570 -94.3566 -94.3560 -94.3544 -94.3508 -94.3494
   -94.3455 -94.3433 -94.3421 -94.3301 -94.3292 -94.2937 -94.2924 -94.2906
   -94.2614 -94.2543 -94.2519 -94.2369 -94.2363 -94.2336 -94.2312 -94.2308
   -94.2268 -94.2259 -94.2235 -94.2215 -94.2197 -94.2177 -94.2158 -94.2146
   -94.2145 -94.2127 -94.2106 -94.2092 -94.2090 -94.2043 -94.2006 -94.1992
   -94.1967 -94.1962 -94.1900 -94.1867 -94.1708 -94.1680 -94.1643 -94.1618
   -60.5888 -60.5805 -60.5785 -60.5751 -60.5673 -60.5666 -60.5616 -60.5591
   -60.5586 -60.5581 -60.5575 -60.5551 -60.5540 -60.5532 -60.5523 -60.5515
   -60.5498 -60.5482 -60.5474 -60.5440 -60.5430 -60.5378 -60.5350 -60.5343
   -60.5332 -60.5328 -60.5322 -60.5260 -60.5245 -60.5206 -60.5079 -60.5034
   -60.4982 -60.4979 -60.4903 -60.4901 -60.4846 -60.4845 -60.4821 -60.4801
   -60.4758 -60.4750 -60.4720 -60.4697 -60.4659 -60.4634 -60.4476 -60.4466
   -60.4333 -60.4314 -60.4300 -60.4284 -60.4167 -60.4162 -60.4146 -60.4137
   -60.4110 -60.4103 -60.4055 -60.4045 -60.4025 -60.3982 -60.3975 -60.3960
   -60.3939 -60.3932 -60.3888 -60.3863 -60.3861 -60.3837 -60.3816 -60.3768
   -60.3744 -60.3715 -60.3699 -60.3648 -60.3646 -60.3587 -60.3556 -60.3526
   -60.3484 -60.3473 -60.3468 -60.3424 -60.3414 -60.3383 -60.3370 -60.3350
   -60.3301 -60.3287 -60.3210 -60.3206 -60.3178 -60.3174 -60.3155 -60.3139
   -60.3103 -60.3072 -60.3050 -60.3031 -60.2985 -60.2927 -60.2903 -60.2861
   -60.2855 -60.2847 -60.2842 -60.2831 -60.2824 -60.2811 -60.2803 -60.2787
   -60.2761 -60.2751 -60.2745 -60.2720 -60.2711 -60.2667 -60.2658 -60.2651
   -60.2617 -60.2583 -60.2557 -60.2555 -60.2500 -60.2496 -60.2462 -60.2453
   -60.2428 -60.2423 -60.2421 -60.2365 -60.2348 -60.2292 -60.2273 -60.2255
[...]
    -4.7101  -4.7034  -4.6872  -4.6801  -4.6763  -4.6614  -4.6487  -4.6323
    -4.6168  -4.6129  -4.6039  -4.5912  -4.5779  -4.5687  -4.5590  -4.5484
    -4.5242  -4.5183  -4.5028  -4.4989  -4.4876  -4.4854  -4.4793  -4.4768
    -4.4562  -4.4524  -4.4498  -4.4429  -4.4251  -4.4193  -4.4124  -4.4091
    -4.3996  -4.3827  -4.3732  -4.3692  -4.3596  -4.3491  -4.3419  -4.3379
    -4.3335  -4.3048  -4.2996  -4.2773  -4.2702  -4.2638  -4.2572  -4.2485
    -4.2433  -4.2393  -4.2380  -4.2335  -4.2274  -4.2150  -4.2124  -4.2036
    -4.1944  -4.1903  -4.1675  -4.1615  -4.1476  -4.1401  -4.1363  -4.1341
    -4.1325  -4.1237  -4.1216  -4.1199  -4.1139  -4.1105  -4.1037  -4.0886
    -4.0784  -4.0776  -4.0612  -4.0478  -4.0404  -4.0385  -4.0295  -4.0234
    -4.0035  -3.9991  -3.9970  -3.9943  -3.9578  -3.9445  -3.9430  -3.9225
    -3.9168  -3.9000  -3.8926  -3.8901  -3.8847  -3.8788  -3.8752  -3.8620
    -3.8383  -3.8218  -3.8190  -3.8039  -3.7915  -3.7875  -3.7683  -3.7528
    -3.7286  -3.7249  -3.6441  -3.5898  -3.5614  -3.5332  -3.5155  -3.5105
    -3.4817  -3.3422  -3.2819

          k =-0.5000-0.3536 0.0000 (128560 PWs)   bands (ev):

   -91.5342 -91.3843 -91.3737 -91.3716 -91.3690 -91.3515 -91.3436 -91.3434
   -91.3421 -91.3404 -91.3379 -91.3341 -91.3299 -91.3279 -91.3269 -91.3267
   -91.3261 -91.3175 -91.3175 -91.3147 -91.3143 -91.3116 -91.3111 -91.3087
   -91.3079 -91.3064 -91.3044 -91.3036 -91.3025 -91.2884 -91.2839 -91.2835
   -91.2820 -91.2721 -91.2717 -91.2709 -91.2688 -91.2633 -91.2623 -91.2615
   -91.2615 -91.2608 -91.2515 -91.2511 -91.2495 -91.2439 -91.2406 -91.2406
   -91.2401 -91.2400 -91.2395 -91.2389 -91.2386 -91.2371 -91.2366 -91.2360
   -91.2336 -91.2233 -91.2209 -91.2193 -91.2189 -91.2172 -91.2169 -91.2162
   -57.7883 -57.6926 -57.6438 -57.6324 -57.6261 -57.6249 -57.6196 -57.6161
   -57.6152 -57.6131 -57.6110 -57.6094 -57.6064 -57.6063 -57.6059 -57.6057
   -57.6048 -57.6039 -57.5981 -57.5965 -57.5953 -57.5941 -57.5865 -57.5852
   -57.5846 -57.5778 -57.5705 -57.5679 -57.5641 -57.5639 -57.5620 -57.5563
   -57.5561 -57.5479 -57.5465 -57.5415 -57.5362 -57.5349 -57.5307 -57.5301
   -57.5292 -57.5288 -57.5263 -57.5243 -57.5235 -57.5195 -57.5192 -57.5168
   -57.5163 -57.5159 -57.5146 -57.5143 -57.5134 -57.5108 -57.5077 -57.5045
   -57.5041 -57.5035 -57.5033 -57.5009 -57.5007 -57.5007 -57.5000 -57.4732
   -57.4698 -57.4662 -57.4629 -57.4628 -57.4550 -57.4537 -57.4517 -57.4515
   -57.4453 -57.4446 -57.4438 -57.4311 -57.4301 -57.4245 -57.4244 -57.4195
   -57.4145 -57.4144 -57.4093 -57.4087 -57.4081 -57.4063 -57.4014 -57.4010
   -57.4005 -57.3992 -57.3984 -57.3977 -57.3930 -57.3921 -57.3862 -57.3845
   -57.3770 -57.3767 -57.3759 -57.3755 -57.3704 -57.3689 -57.3678 -57.3655
   -57.3641 -57.3633 -57.3600 -57.3595 -57.3561 -57.3558 -57.3545 -57.3541
   -57.3498 -57.3487 -57.3464 -57.3425 -57.3414 -57.3385 -57.3341 -57.3305
   -57.3297 -57.3296 -57.3290 -57.3282 -57.3267 -57.3260 -57.3245 -57.3177
   -57.3163 -57.3116 -57.3092 -57.3080 -57.3043 -57.3027 -57.3023 -57.2991
   -57.2991 -57.2982 -57.2965 -57.2961 -57.2952 -57.2943 -57.2930 -57.2927
   -57.2908 -57.2907 -57.2893 -57.2874 -57.2867 -57.2863 -57.2812 -57.2810
   -57.2800 -57.2782 -57.2765 -57.2764 -57.2764 -57.2755 -57.2753 -57.2724
   -57.2721 -57.2712 -57.2705 -57.2694 -57.2693 -57.2680 -57.2677 -57.2676
   -57.2669 -57.2649 -57.2620 -57.2614 -57.2609 -57.2601 -57.2594 -57.2591
   -57.2588 -57.2580 -57.2559 -57.2532 -57.2508 -57.2507 -57.2483 -57.2475
   -57.2463 -57.2458 -57.2449 -57.2445 -57.2437 -57.2398 -57.2374 -57.2367
   -24.9341 -15.0223 -15.0109 -13.3283 -13.3210 -12.7455 -12.7374 -12.1235
   -12.0239 -11.6834 -11.4827 -11.3086 -10.7402 -10.7307 -10.7292 -10.7106
   -10.3223 -10.2798  -9.8862  -9.8855  -9.8840  -9.8824  -9.8794  -9.8529
    -9.7883  -9.7629  -9.7539  -9.7488  -9.7486  -9.7229  -9.3255  -9.3251
    -9.3249  -9.3213  -9.3191  -9.3042  -9.1059  -9.1036  -8.8579  -8.8561
    -8.8269  -8.8202  -8.8140  -8.8020  -8.7626  -8.7591  -8.7196  -8.7185
    -8.7140  -8.7057  -8.5708  -8.5577  -8.5573  -8.5478  -8.5327  -8.5274
    -8.2891  -8.2876  -8.2709  -8.2691  -8.2633  -8.2612  -8.0474  -8.0452
    -7.9999  -7.9908  -7.9529  -7.9414  -7.8458  -7.8428  -7.7753  -7.7706
    -7.7657  -7.7597  -7.7480  -7.7454  -7.7396  -7.7390  -7.7260  -7.7255
    -7.6412  -7.6388  -7.6384  -7.6287  -7.6267  -7.6247  -7.6219  -7.6190
    -7.6164  -7.6114  -7.6095  -7.6077  -7.4089  -7.4012  -7.3918  -7.3873
    -7.2723  -7.2713  -7.2690  -7.2663  -7.2505  -7.2378  -7.2179  -7.2148
    -7.2083  -7.2070  -7.1977  -7.1917  -7.1909  -7.1873  -7.1783  -7.1775
    -7.1691  -7.1580  -7.1391  -7.1387  -7.1355  -7.1294  -7.1275  -7.1236
    -7.1204  -7.1189  -7.1179  -7.1046  -7.0997  -7.0781  -7.0744  -7.0542
    -7.0337  -7.0253  -7.0226  -7.0202  -7.0182  -7.0130  -7.0099  -7.0049
    -7.0046  -7.0035  -6.9960  -6.9754  -6.9442  -6.9290  -6.8073  -6.8009
    -6.7597  -6.7457  -6.7443  -6.7431  -6.7153  -6.7135  -6.6917  -6.6872
    -6.6800  -6.6747  -6.5943  -6.5929  -6.5712  -6.5677  -6.5638  -6.5616
    -6.5479  -6.5327  -6.5169  -6.4993  -6.4970  -6.4905  -6.4681  -6.4623
    -6.3251  -6.3160  -6.3120  -6.2986  -6.2758  -6.2597  -6.2449  -6.2345
    -6.2338  -6.2276  -6.2228  -6.2047  -6.2024  -6.1842  -6.1571  -6.1194
    -6.1190  -6.1095  -6.0930  -6.0900  -6.0734  -6.0567  -5.8510  -5.8015
    -5.7974  -5.7441  -5.7237  -5.7003  -5.6543  -5.6458  -5.4805  -5.4739
    -5.4513  -5.4439  -5.4117  -5.3907  -5.3860  -5.3846  -5.3463  -5.3087
    -5.3069  -5.3065  -5.2849  -5.2765  -5.2238  -5.2176  -5.2047  -5.1980
    -5.1627  -5.1622  -5.1618  -5.1509  -5.1202  -5.0727  -5.0698  -5.0427
    -5.0389  -5.0099  -4.9731  -4.9725  -4.9613  -4.9493  -4.9490  -4.9481
    -4.9468  -4.9335  -4.9196  -4.9174  -4.9144  -4.9060  -4.8586  -4.8493
    -4.8461  -4.8225  -4.8142  -4.8127  -4.7932  -4.7773  -4.7723  -4.7490
    -4.7395  -4.7269  -4.6940  -4.6725  -4.6633  -4.6398  -4.6114  -4.5890
    -4.5394  -4.5363  -4.5169  -4.5123  -4.5091  -4.5037  -4.5023  -4.4977
    -4.4935  -4.4769  -4.4727  -4.4670  -4.4531  -4.4476  -4.4465  -4.4452
    -4.4427  -4.4402  -4.4387  -4.4208  -4.4177  -4.3966  -4.3820  -4.3811
    -4.3658  -4.3652  -4.3557  -4.3541  -4.3443  -4.3411  -4.3395  -4.3372
    -4.3362  -4.3221  -4.3155  -4.2993  -4.2984  -4.2889  -4.2774  -4.2730
    -4.2727  -4.2712  -4.2653  -4.2652  -4.2642  -4.2572  -4.2530  -4.2215
    -4.2204  -4.2109  -4.1541  -4.1516  -4.1458  -4.1346  -4.1116  -4.1077
    -4.1059  -4.1011  -4.0851  -4.0799  -4.0770  -4.0720  -4.0700  -4.0685
    -4.0607  -4.0601  -4.0546  -4.0528  -4.0517  -4.0513  -4.0467  -4.0447
    -4.0405  -4.0367  -4.0058  -3.9983  -3.9963  -3.9899  -3.9896  -3.9780
    -3.9765  -3.9740  -3.9666  -3.9659  -3.9583  -3.9548  -3.8895  -3.8760
    -3.8752  -3.8730  -3.8649  -3.8619  -3.8313  -3.8303  -3.6825  -3.6734
    -3.6622  -3.6532  -3.4583  -3.4502  -3.4479  -3.4442  -3.4116  -3.3943
    -3.3859  -3.3822  -3.3579

     the Fermi energy is    -6.2070 ev

!    total energy              =  -21096.10276621 Ry
     Harris-Foulkes estimate   =  -21096.10276828 Ry
     estimated scf accuracy    <          7.7E-11 Ry

     The total energy is the sum of the following terms:

     one-electron contribution = -744603.69357406 Ry
     hartree contribution      =  372062.29786037 Ry
     xc contribution           =   -2235.76516037 Ry
     ewald contribution        =  358555.88645790 Ry
     Dispersion Correction     =      -1.39562800 Ry
     one-center paw contrib.   =   -4873.43317821 Ry
     smearing contrib. (-TS)   =       0.00045615 Ry

     total magnetization       =   161.92 Bohr mag/cell
     absolute magnetization    =   168.42 Bohr mag/cell

     convergence has been achieved in  16 iterations

     negative rho (up, down):  2.442E-02 1.974E-02

     Forces acting on atoms (cartesian axes, Ry/au):

     atom    1 type  1   force =    -0.00002815   -0.00001320    0.00918658
     atom    2 type  1   force =    -0.00001538   -0.00004066   -0.01100868
     atom    3 type  1   force =     0.00053871    0.00037298    0.00914143
     atom    4 type  1   force =     0.00030780    0.00021384   -0.00888042
     atom    5 type  1   force =     0.00003021    0.00001964    0.00005371
     atom    6 type  1   force =    -0.00000534   -0.00000330    0.00005480
     atom    7 type  1   force =     0.00006041    0.00004667    0.00010560
     atom    8 type  1   force =     0.00003078    0.00002236    0.00001326
     atom    9 type  1   force =    -0.00005270    0.00004843    0.00911351
     atom   10 type  1   force =     0.00003534   -0.00008625    0.00912758
     atom   11 type  1   force =     0.00010281   -0.00034289   -0.00975458
     atom   12 type  1   force =    -0.00028641    0.00020962   -0.00978344
     atom   13 type  1   force =    -0.00007335    0.00001340    0.00005899
     atom   14 type  1   force =    -0.00000987   -0.00007185    0.00006154
     atom   15 type  1   force =     0.00001157    0.00002355    0.00004131
     atom   16 type  1   force =     0.00002724    0.00000399    0.00004485
     atom   17 type  1   force =    -0.00033151   -0.00000297    0.00976537
     atom   18 type  1   force =    -0.00002501    0.00003622   -0.01004700
     atom   19 type  1   force =     0.00014166    0.00032783    0.00974682
     atom   20 type  1   force =    -0.00112377    0.00153704   -0.00704802
     atom   21 type  1   force =     0.00001270   -0.00002416    0.00003312
     atom   22 type  1   force =    -0.00000468   -0.00000110    0.00007082
     atom   23 type  1   force =     0.00001977   -0.00001632    0.00002436
     atom   24 type  1   force =    -0.00000850    0.00001858   -0.00015810
     atom   25 type  1   force =    -0.00009955    0.00016681    0.00910208
     atom   26 type  1   force =    -0.00014710    0.00022302    0.00906697
     atom   27 type  1   force =     0.00022326    0.00039026   -0.01024826
     atom   28 type  1   force =     0.00028717   -0.00025481   -0.00985502
     atom   29 type  1   force =     0.00000106   -0.00000157   -0.00000234
     atom   30 type  1   force =     0.00004279   -0.00005159    0.00002969
     atom   31 type  1   force =     0.00000396   -0.00000369   -0.00003364
     atom   32 type  1   force =    -0.00002866   -0.00000338    0.00004142
     atom   33 type  1   force =    -0.00011392   -0.00031952    0.00976156
     atom   34 type  1   force =     0.00002879   -0.00002467   -0.01004720
     atom   35 type  1   force =     0.00034738    0.00000666    0.00974588
     atom   36 type  1   force =     0.00108188   -0.00157956   -0.00701575
     atom   37 type  1   force =    -0.00001699    0.00002318    0.00002764
     atom   38 type  1   force =    -0.00000603   -0.00000346    0.00007249
     atom   39 type  1   force =    -0.00001227    0.00002853    0.00002484
     atom   40 type  1   force =     0.00001226   -0.00001000   -0.00016244
     atom   41 type  1   force =     0.00016439   -0.00022468    0.00908541
     atom   42 type  1   force =     0.00011933   -0.00015210    0.00910406
     atom   43 type  1   force =    -0.00014832    0.00034248   -0.00988047
     atom   44 type  1   force =     0.00042982    0.00005838   -0.01027214
     atom   45 type  1   force =    -0.00003603    0.00005970    0.00002750
     atom   46 type  1   force =    -0.00000393    0.00000466   -0.00000270
     atom   47 type  1   force =    -0.00001289   -0.00002613    0.00004747
     atom   48 type  1   force =    -0.00001021    0.00000424   -0.00003236
     atom   49 type  1   force =    -0.00055868   -0.00038833    0.00918573
     atom   50 type  1   force =    -0.00000356    0.00000174   -0.00600389
     atom   51 type  1   force =    -0.00000759    0.00001189    0.00918478
     atom   52 type  1   force =    -0.00027279   -0.00019409   -0.00899332
     atom   53 type  1   force =    -0.00005473   -0.00003369    0.00012156
     atom   54 type  1   force =     0.00000336    0.00000620    0.00013698
     atom   55 type  1   force =    -0.00003264   -0.00002276    0.00005162
     atom   56 type  1   force =    -0.00002862   -0.00001853    0.00001852
     atom   57 type  1   force =    -0.00002607    0.00008551    0.00913416
     atom   58 type  1   force =     0.00006960   -0.00005159    0.00914183
     atom   59 type  1   force =    -0.00023279   -0.00046351   -0.01024627
     atom   60 type  1   force =    -0.00051259   -0.00008702   -0.01022327
     atom   61 type  1   force =     0.00001981    0.00007467    0.00006358
     atom   62 type  1   force =     0.00007515   -0.00000846    0.00006309
     atom   63 type  1   force =     0.00000659    0.00001212   -0.00001619
     atom   64 type  1   force =     0.00000517    0.00000234   -0.00002277
     atom   65 type  2   force =    -0.00003671    0.00006444    0.00003655
     atom   66 type  3   force =     0.00000191   -0.00010347   -0.00002694
     atom   67 type  3   force =     0.00014957    0.00007003   -0.00004095
     atom   68 type  3   force =    -0.00002491    0.00009834   -0.00000092

     Total force =     0.000508     Total SCF correction =     0.000027

     bfgs converged in  23 scf cycles and  22 bfgs steps
     (criteria: energy <  7.3E-07 Ry, force <  3.9E-04 Ry/Bohr)

     End of BFGS Geometry Optimization

     Final energy   =  -21096.1027662104 Ry
Begin final coordinates

ATOMIC_POSITIONS (angstrom)
Fe       1.654912953   1.170200133   0.000000000    0   0   0
Fe       0.000000000   0.000000000   2.026984232    0   0   0
Fe       4.964738858   3.510600399   0.000000000    0   0   0
Fe       3.309825906   2.340400266   2.026984232    0   0   0
Fe       1.655839721   1.170769967   4.026415899
Fe       3.310262202   9.361867800   5.999067396
Fe       4.970611449   3.514624185   4.022915122
Fe       3.309346308   2.340064622   5.994252092
Fe       2.482363858   3.510600399   0.000000000    0   0   0
Fe       4.137287953   1.170200133   0.000000000    0   0   0
Fe       0.827450906   2.340400266   2.026984232    0   0   0
Fe       2.482375000   0.000000000   2.026984232    0   0   0
Fe       2.482591520   3.512163350   4.026769484
Fe       4.138901361   1.169840209   4.026875396
Fe       0.825986474   2.345189664   6.008497283
Fe       2.486429046  -0.003222759   6.008567703
Fe       6.619662953   1.170200133   0.000000000    0   0   0
Fe       4.964750000   0.000000000   2.026984232    0   0   0
Fe       9.929488858   3.510600399   0.000000000    0   0   0
Fe       8.274575906   2.340400266   2.026984232    0   0   0
Fe       6.621680586   1.168799792   4.017083984
Fe       4.964190432  -0.002092986   6.020289802
Fe       9.929291080   3.508011404   4.017329884
Fe       8.280323324   2.331487672   5.955507930
Fe       7.447113858   3.510600399   0.000000000    0   0   0
Fe       9.102037953   1.170200133   0.000000000    0   0   0
Fe       5.792200906   2.340400266   2.026984232    0   0   0
Fe       7.447125000   0.000000000   2.026984232    0   0   0
Fe       7.433142999   3.529054042   4.042283036
Fe       9.105193528   1.165612156   4.013479255
Fe       5.795217022   2.331653285   5.973088191
Fe      10.752697083   9.362961212   6.007662097
Fe       3.309814764   5.851000664   0.000000000    0   0   0
Fe       1.654901811   4.680800531   2.026984232    0   0   0
Fe       6.619640670   8.191400930   0.000000000    0   0   0
Fe       4.964727717   7.021200797   2.026984232    0   0   0
Fe       3.309195282   5.853547990   4.016975334
Fe      11.582781685   4.680626501   6.020312112
Fe       6.616998408   8.192125559   4.017203257
Fe       4.958755474   7.029058246   5.956832935
Fe       4.137265670   8.191400930   0.000000000    0   0   0
Fe       5.792189764   5.851000664   0.000000000    0   0   0
Fe       2.482352717   7.021200797   2.026984232    0   0   0
Fe       4.137276811   4.680800531   2.026984232    0   0   0
Fe       4.134069315   8.195847608   4.013696655
Fe       5.804922079   5.831745210   4.042155187
Fe      12.412052871   7.016654438   6.007697611
Fe       4.129880928   4.686466526   5.972155939
Fe       8.274564764   5.851000664   0.000000000    0   0   0
Fe       6.619651811   4.680800531   2.026984232    0   0   0
Fe      11.584390670   8.191400930   0.000000000    0   0   0
Fe       9.929477717   7.021200797   2.026984232    0   0   0
Fe       8.268150038   5.846262080   4.023586398
Fe       6.616680105   4.679810970   6.196412787
Fe      11.583362425   8.190561489   4.025751599
Fe       9.929723180   7.021321290   5.992591321
Fe       9.102015670   8.191400930   0.000000000    0   0   0
Fe      10.756939764   5.851000664   0.000000000    0   0   0
Fe       7.447102717   7.021200797   2.026984232    0   0   0
Fe       9.102026811   4.680800531   2.026984232    0   0   0
Fe       9.099800183   8.191029854   4.026362436
Fe      10.755902635   5.848915957   4.026483556
Fe       7.442660588   7.027427205   5.973970541
Fe       9.106294342   4.674208117   5.975004187
N        6.624856942   4.681300394   8.271345901
H        6.601991567   5.632791519   8.648185288
H        5.803974561   4.187053033   8.633200714
H        7.455424918   4.214527569   8.645544232
End final coordinates



     Writing output data file Fe_NH3_paper_480c_ESM_pn25.save/

     init_run     :     87.85s CPU     89.21s WALL (       1 calls)
     electrons    : 189844.03s CPU 191387.93s WALL (      23 calls)
     update_pot   :    500.87s CPU    501.33s WALL (      22 calls)
     forces       :   1042.02s CPU   1050.91s WALL (      23 calls)

     Called by init_run:
     wfcinit      :     58.80s CPU     59.87s WALL (       1 calls)
     potinit      :     11.17s CPU     11.24s WALL (       1 calls)
     hinit0       :     14.74s CPU     14.82s WALL (       1 calls)

     Called by electrons:
     c_bands      : 173695.24s CPU 175013.88s WALL (     558 calls)
     sum_band     :   8882.73s CPU   9029.77s WALL (     558 calls)
     v_of_rho     :    918.28s CPU    922.11s WALL (     560 calls)
     newd         :    167.63s CPU    172.35s WALL (     560 calls)
     PAW_pot      :    365.13s CPU    366.71s WALL (     582 calls)
     mix_rho      :   5581.03s CPU   5637.87s WALL (     558 calls)

     Called by c_bands:
     init_us_2    :    255.21s CPU    262.70s WALL (    3486 calls)
     cegterg      : 135750.22s CPU 136625.13s WALL (    1685 calls)

     Called by sum_band:
     sum_band:bec :     16.85s CPU     16.92s WALL (    1740 calls)
     addusdens    :    205.16s CPU    214.55s WALL (     558 calls)

     Called by *egterg:
     h_psi        :  40804.71s CPU  41138.74s WALL (   14640 calls)
     s_psi        :   8562.51s CPU   8576.29s WALL (   14640 calls)
     g_psi        :    112.58s CPU    113.14s WALL (   12952 calls)
     cdiaghg      :  52357.78s CPU  52581.98s WALL (   14508 calls)

     Called by h_psi:
     h_psi:pot    :  40610.42s CPU  40822.71s WALL (   14640 calls)
     h_psi:calbec :   8687.32s CPU   8702.07s WALL (   14640 calls)
     vloc_psi     :  23334.31s CPU  23519.21s WALL (   14640 calls)
     add_vuspsi   :   8588.58s CPU   8601.33s WALL (   14640 calls)

     General routines
     calbec       :  12343.07s CPU  12365.41s WALL (   16656 calls)
     fft          :    578.65s CPU    581.76s WALL (   14363 calls)
     ffts         :   2911.12s CPU   2933.00s WALL (  345038 calls)
     fftw         :  23014.12s CPU  23202.21s WALL ( 6607986 calls)
     interpolate  :     56.40s CPU     56.85s WALL (    1120 calls)
     davcio       :      2.76s CPU    371.66s WALL (   14923 calls)

     Parallel routines
     fft_scatt_xy :   4733.92s CPU   4760.39s WALL ( 6967387 calls)
     fft_scatt_yz :   6797.68s CPU   6894.64s WALL ( 6967387 calls)

     PWSCF        :   2d 5h15m CPU   2d 5h42m WALL


   This run was terminated on:   2:45:43  15Jun2022            

=------------------------------------------------------------------------------=
   JOB DONE.
=------------------------------------------------------------------------------=
