
     Program PWSCF v.6.4.1 starts on  8Jun2022 at 15:52:29 

     This program is part of the open-source Quantum ESPRESSO suite
     for quantum simulation of materials; please cite
         "P. Giannozzi et al., J. Phys.:Condens. Matter 21 395502 (2009);
         "P. Giannozzi et al., J. Phys.:Condens. Matter 29 465901 (2017);
          URL http://www.quantum-espresso.org", 
     in publications or presentations arising from this work. More details at
     http://www.quantum-espresso.org/quote

     Parallel version (MPI), running on   160 processors

     MPI processes distributed on     8 nodes
     K-points division:     npool     =       8
     R & G space division:  proc/nbgrp/npool/nimage =      20
     Waiting for input...
     Reading input from standard input
Warning: card &CELL ignored
Warning: card / ignored

     Current dimensions of program PWSCF are:
     Max number of different atomic species (ntypx) = 10
     Max number of k-points (npk) =  40000
     Max angular momentum in pseudopotentials (lmaxx) =  3

     IMPORTANT: XC functional enforced from input :
     Exchange-correlation      = PBE ( 1  4  3  4 0 0)
     Any further DFT definition will be discarded
     Please, verify this is what you really want

               file Fe.pbe-spn-kjpaw_psl.0.2.1.UPF: wavefunction(s)  3D renormalized

     -------------------------------------------------
     Parameters for Dispersion (Grimme-D2) Correction:
     -------------------------------------------------
       atom      VdW radius       C_6     

        Fe         2.952        374.666
        N          2.640         42.670
        H          1.892          4.857

     Subspace diagonalization in iterative solution of the eigenvalue problem:
     one sub-group per band group will be used
     scalapack distributed-memory algorithm (size of sub-group:  3*  3 procs)


     Parallelization info
     --------------------
     sticks:   dense  smooth     PW     G-vecs:    dense   smooth      PW
     Min         634     317     83               145278    51361    6989
     Max         635     318     84               145287    51370    7000
     Sum       12685    6351   1677              2905599  1027285  139897



     bravais-lattice index     =            0
     lattice parameter (alat)  =      18.7640  a.u.
     unit-cell volume          =   16360.3163 (a.u.)^3
     number of atoms/cell      =           66
     number of atomic types    =            3
     number of electrons       =      1030.00
     number of Kohn-Sham states=          618
     kinetic-energy cutoff     =      60.0000  Ry
     charge density cutoff     =     480.0000  Ry
     convergence threshold     =      1.0E-08
     mixing beta               =       0.2000
     number of iterations used =           10  local-TF  mixing
     Exchange-correlation      = PBE ( 1  4  3  4 0 0)
     nstep                     =           50


     Effective Screening Medium Method
     =================================
     Boundary Conditions: Metal-Slab-Metal
     field strength                   =     0.01 Ry/a.u.
     grid points for fit at edges     =        4 


     celldm(1)=  18.764036  celldm(2)=   0.000000  celldm(3)=   0.000000
     celldm(4)=   0.000000  celldm(5)=   0.000000  celldm(6)=   0.000000

     crystal axes: (cart. coord. in units of alat)
               a(1) = (   1.000000   0.000000   0.000000 )  
               a(2) = (   0.333330   0.942807   0.000000 )  
               a(3) = (   0.000000   0.000000   2.626577 )  

     reciprocal axes: (cart. coord. in units 2 pi/alat)
               b(1) = (  1.000000 -0.353551  0.000000 )  
               b(2) = (  0.000000  1.060663  0.000000 )  
               b(3) = (  0.000000  0.000000  0.380724 )  


     PseudoPot. # 1 for Fe read from file:
     ../../SSSP/Fe.pbe-spn-kjpaw_psl.0.2.1.UPF
     MD5 check sum: e86618425769142926afa95317d90200
     Pseudo is Projector augmented-wave + core cor, Zval = 16.0
     Generated using "atomic" code by A. Dal Corso v.5.0.99 svn rev. 10869
     Shape of augmentation charge: PSQ
     Using radial grid of 1191 points,  6 beta functions with: 
                l(1) =   0
                l(2) =   0
                l(3) =   1
                l(4) =   1
                l(5) =   2
                l(6) =   2
     Q(r) pseudized with 0 coefficients 


     PseudoPot. # 2 for N  read from file:
     ../../SSSP/N.pbe-n-radius_5.UPF
     MD5 check sum: 16739722b17309cd8fe442a2ace49922
     Pseudo is Ultrasoft + core correction, Zval =  5.0
     Generated using "atomic" code by A. Dal Corso v.5.1
     Using radial grid of 1085 points,  4 beta functions with: 
                l(1) =   0
                l(2) =   0
                l(3) =   1
                l(4) =   1
     Q(r) pseudized with 0 coefficients 


     PseudoPot. # 3 for H  read from file:
     ../../SSSP/H.pbe-rrkjus_psl.1.0.0.UPF
     MD5 check sum: f52b6d4d1c606e5624b1dc7b2218f220
     Pseudo is Ultrasoft, Zval =  1.0
     Generated using "atomic" code by A. Dal Corso v.5.1
     Using radial grid of  929 points,  2 beta functions with: 
                l(1) =   0
                l(2) =   0
     Q(r) pseudized with 0 coefficients 


     atomic species   valence    mass     pseudopotential
        Fe            16.00    55.84500     Fe( 1.00)
        N              5.00    14.00700     N ( 1.00)
        H              1.00     1.00800     H ( 1.00)

     Starting magnetic structure 
     atomic species   magnetization
        Fe           0.100
        N            0.100
        H            0.100

     No symmetry found



   Cartesian axes

     site n.     atom                  positions (alat units)
         1           Fe  tau(   1) = (   0.1666663   0.1178509   0.0000000  )
         2           Fe  tau(   2) = (   0.0000000   0.0000000   0.2041376  )
         3           Fe  tau(   3) = (   0.4999989   0.3535526   0.0000000  )
         4           Fe  tau(   4) = (   0.3333326   0.2357017   0.2041376  )
         5           Fe  tau(   5) = (   0.1691633   0.1174609   0.4053662  )
         6           Fe  tau(   6) = (   0.3358127   0.9392503   0.6061139  )
         7           Fe  tau(   7) = (   0.4995100   0.3559898   0.4071377  )
         8           Fe  tau(   8) = (   0.3418436   0.2351322   0.6065451  )
         9           Fe  tau(   9) = (   0.2499989   0.3535526   0.0000000  )
        10           Fe  tau(  10) = (   0.4166663   0.1178509   0.0000000  )
        11           Fe  tau(  11) = (   0.0833326   0.2357017   0.2041376  )
        12           Fe  tau(  12) = (   0.2500000   0.0000000   0.2041376  )
        13           Fe  tau(  13) = (   0.2500475   0.3534024   0.4076456  )
        14           Fe  tau(  14) = (   0.4190214   0.1195197   0.4059972  )
        15           Fe  tau(  15) = (   0.0921065   0.2318890   0.6066743  )
        16           Fe  tau(  16) = (   0.2526868   0.0019110   0.6060625  )
        17           Fe  tau(  17) = (   0.6666663   0.1178509   0.0000000  )
        18           Fe  tau(  18) = (   0.5000000   0.0000000   0.2041376  )
        19           Fe  tau(  19) = (   0.9999989   0.3535526   0.0000000  )
        20           Fe  tau(  20) = (   0.8333326   0.2357017   0.2041376  )
        21           Fe  tau(  21) = (   0.6687842   0.1165435   0.4071110  )
        22           Fe  tau(  22) = (   0.5022839   0.0081767   0.6065702  )
        23           Fe  tau(  23) = (   1.0003529   0.3509213   0.4068188  )
        24           Fe  tau(  24) = (   0.8517557   0.2096697   0.6024432  )
        25           Fe  tau(  25) = (   0.7499989   0.3535526   0.0000000  )
        26           Fe  tau(  26) = (   0.9166663   0.1178509   0.0000000  )
        27           Fe  tau(  27) = (   0.5833326   0.2357017   0.2041376  )
        28           Fe  tau(  28) = (   0.7500000   0.0000000   0.2041376  )
        29           Fe  tau(  29) = (   0.7499331   0.3534612   0.4087050  )
        30           Fe  tau(  30) = (   0.9195664   0.1133897   0.4030117  )
        31           Fe  tau(  31) = (   0.5924243   0.2420555   0.6047444  )
        32           Fe  tau(  32) = (   1.0846683   0.9333764   0.6072549  )
        33           Fe  tau(  33) = (   0.3333315   0.5892543   0.0000000  )
        34           Fe  tau(  34) = (   0.1666652   0.4714034   0.2041376  )
        35           Fe  tau(  35) = (   0.6666640   0.8249560   0.0000000  )
        36           Fe  tau(  36) = (   0.4999978   0.7071052   0.2041376  )
        37           Fe  tau(  37) = (   0.3307394   0.5894524   0.4057984  )
        38           Fe  tau(  38) = (   1.1584558   0.4708203   0.6061482  )
        39           Fe  tau(  39) = (   0.6671439   0.8274292   0.4053888  )
        40           Fe  tau(  40) = (   0.4974820   0.7106282   0.6062117  )
        41           Fe  tau(  41) = (   0.4166640   0.8249560   0.0000000  )
        42           Fe  tau(  42) = (   0.5833315   0.5892543   0.0000000  )
        43           Fe  tau(  43) = (   0.2499978   0.7071052   0.2041376  )
        44           Fe  tau(  44) = (   0.4166652   0.4714034   0.2041376  )
        45           Fe  tau(  45) = (   0.4164663   0.8248037   0.4039055  )
        46           Fe  tau(  46) = (   0.5800715   0.5934920   0.4030364  )
        47           Fe  tau(  47) = (   1.2457669   0.7041012   0.6065939  )
        48           Fe  tau(  48) = (   0.4082550   0.4758307   0.6072775  )
        49           Fe  tau(  49) = (   0.8333315   0.5892543   0.0000000  )
        50           Fe  tau(  50) = (   0.6666652   0.4714034   0.2041376  )
        51           Fe  tau(  51) = (   1.1666640   0.8249560   0.0000000  )
        52           Fe  tau(  52) = (   0.9999978   0.7071052   0.2041376  )
        53           Fe  tau(  53) = (   0.8309418   0.5904319   0.4068368  )
        54           Fe  tau(  54) = (   0.6483004   0.4973721   0.6024232  )
        55           Fe  tau(  55) = (   1.1660042   0.8224414   0.4057891  )
        56           Fe  tau(  56) = (   0.9966937   0.6995543   0.6061145  )
        57           Fe  tau(  57) = (   0.9166640   0.8249560   0.0000000  )
        58           Fe  tau(  58) = (   1.0833315   0.5892543   0.0000000  )
        59           Fe  tau(  59) = (   0.7499978   0.7071052   0.2041376  )
        60           Fe  tau(  60) = (   0.9166652   0.4714034   0.2041376  )
        61           Fe  tau(  61) = (   0.9165456   0.8250294   0.4076429  )
        62           Fe  tau(  62) = (   1.0807468   0.5874373   0.4058584  )
        63           Fe  tau(  63) = (   0.7492890   0.7166001   0.6067028  )
        64           Fe  tau(  64) = (   0.9077833   0.4650771   0.6045057  )
        65           N   tau(  65) = (   0.7501705   0.3536255   0.6386530  )
        66           H   tau(  66) = (   0.4630012   0.8578060   0.7021866  )

     number of k points=    10  Methfessel-Paxton smearing, width (Ry)=  0.0100
                       cart. coord. in units 2pi/alat
        k(    1) = (   0.0000000   0.0000000   0.0000000), wk =   0.0625000
        k(    2) = (   0.0000000   0.2651656   0.0000000), wk =   0.1250000
        k(    3) = (   0.0000000  -0.5303313   0.0000000), wk =   0.0625000
        k(    4) = (   0.2500000  -0.0883878   0.0000000), wk =   0.1250000
        k(    5) = (   0.2500000   0.1767779   0.0000000), wk =   0.1250000
        k(    6) = (   0.2500000  -0.6187190   0.0000000), wk =   0.1250000
        k(    7) = (   0.2500000  -0.3535534   0.0000000), wk =   0.1250000
        k(    8) = (  -0.5000000   0.1767755   0.0000000), wk =   0.0625000
        k(    9) = (  -0.5000000   0.4419412   0.0000000), wk =   0.1250000
        k(   10) = (  -0.5000000  -0.3535558   0.0000000), wk =   0.0625000

     Dense  grid:  2905599 G-vectors     FFT dimensions: ( 135, 135, 360)

     Smooth grid:  1027285 G-vectors     FFT dimensions: (  96,  96, 243)

     Estimated max dynamical RAM per process >       1.01 GB

     Estimated total dynamical RAM >     161.82 GB
     Generating pointlists ...
     new r_m :   0.0737 (alat units)  1.3830 (a.u.) for type    1
     new r_m :   0.0742 (alat units)  1.3922 (a.u.) for type    2
     new r_m :   0.0737 (alat units)  1.3830 (a.u.) for type    3

     Check: negative core charge=   -0.000039

     Initial potential from superposition of free atoms

     starting charge 1029.97193, renormalised to 1030.00000

     negative rho (up, down):  2.476E-02 2.546E-03
     Starting wfcs are  837 randomized atomic wfcs
     Checking if some PAW data can be deallocated... 

     total cpu time spent up to now is       87.7 secs

     Self-consistent Calculation

     iteration #  1     ecut=    60.00 Ry     beta= 0.20
     Davidson diagonalization with overlap
     c_bands:  1 eigenvalues not converged
     ethr =  1.00E-04,  avg # of iterations = 18.0

     negative rho (up, down):  1.322E-02 3.338E-03

     total cpu time spent up to now is     1072.7 secs

     total energy              =  -21087.55044851 Ry
     Harris-Foulkes estimate   =  -21096.02556911 Ry
     estimated scf accuracy    <     434.14102589 Ry

     total magnetization       =   102.04 Bohr mag/cell
     absolute magnetization    =   103.07 Bohr mag/cell

     iteration #  2     ecut=    60.00 Ry     beta= 0.20
     Davidson diagonalization with overlap
     ethr =  1.00E-02,  avg # of iterations =  1.0

     negative rho (up, down):  1.085E-02 4.166E-02

     total cpu time spent up to now is     1210.6 secs

     total energy              =  -21091.85317629 Ry
     Harris-Foulkes estimate   =  -21095.49744412 Ry
     estimated scf accuracy    <     193.65350698 Ry

     total magnetization       =   100.38 Bohr mag/cell
     absolute magnetization    =   101.67 Bohr mag/cell

     iteration #  3     ecut=    60.00 Ry     beta= 0.20
     Davidson diagonalization with overlap
     ethr =  1.00E-02,  avg # of iterations =  1.0

     negative rho (up, down):  6.142E-03 2.382E-02

     total cpu time spent up to now is     1345.2 secs

     total energy              =  -21093.70278302 Ry
     Harris-Foulkes estimate   =  -21093.80510412 Ry
     estimated scf accuracy    <      11.14487830 Ry

     total magnetization       =   130.81 Bohr mag/cell
     absolute magnetization    =   131.27 Bohr mag/cell

     iteration #  4     ecut=    60.00 Ry     beta= 0.20
     Davidson diagonalization with overlap
     ethr =  1.08E-03,  avg # of iterations =  1.0

     negative rho (up, down):  4.187E-03 1.865E-02

     total cpu time spent up to now is     1479.3 secs

     total energy              =  -21093.74230108 Ry
     Harris-Foulkes estimate   =  -21093.78469971 Ry
     estimated scf accuracy    <      16.09547400 Ry

     total magnetization       =   136.49 Bohr mag/cell
     absolute magnetization    =   137.03 Bohr mag/cell

     iteration #  5     ecut=    60.00 Ry     beta= 0.20
     Davidson diagonalization with overlap
     ethr =  1.08E-03,  avg # of iterations =  1.0

     negative rho (up, down):  1.620E-02 1.896E-01

     total cpu time spent up to now is     1609.9 secs

     total energy              =  -21092.23146187 Ry
     Harris-Foulkes estimate   =  -21093.76970509 Ry
     estimated scf accuracy    <      16.86594629 Ry

     total magnetization       =   139.29 Bohr mag/cell
     absolute magnetization    =   139.91 Bohr mag/cell

     iteration #  6     ecut=    60.00 Ry     beta= 0.20
     Davidson diagonalization with overlap
     ethr =  1.08E-03,  avg # of iterations =  5.0

     negative rho (up, down):  7.262E-03 1.286E-01

     total cpu time spent up to now is     1797.3 secs

     total energy              =  -21092.95603039 Ry
     Harris-Foulkes estimate   =  -21093.04857254 Ry
     estimated scf accuracy    <       4.49431693 Ry

     total magnetization       =   154.43 Bohr mag/cell
     absolute magnetization    =   156.64 Bohr mag/cell

     iteration #  7     ecut=    60.00 Ry     beta= 0.20
     Davidson diagonalization with overlap
     ethr =  4.36E-04,  avg # of iterations =  7.0

     negative rho (up, down):  2.343E-03 6.480E-02

     total cpu time spent up to now is     2030.1 secs

     total energy              =  -21093.23351661 Ry
     Harris-Foulkes estimate   =  -21093.22275619 Ry
     estimated scf accuracy    <       0.84281019 Ry

     total magnetization       =   151.40 Bohr mag/cell
     absolute magnetization    =   154.74 Bohr mag/cell

     iteration #  8     ecut=    60.00 Ry     beta= 0.20
     Davidson diagonalization with overlap
     c_bands:  5 eigenvalues not converged
     c_bands:  2 eigenvalues not converged
     ethr =  8.18E-05,  avg # of iterations = 19.3

     negative rho (up, down):  4.311E-04 3.115E-02

     total cpu time spent up to now is     2832.4 secs

     total energy              =  -21093.62867417 Ry
     Harris-Foulkes estimate   =  -21094.06733394 Ry
     estimated scf accuracy    <       4.44089031 Ry

     total magnetization       =   151.22 Bohr mag/cell
     absolute magnetization    =   157.57 Bohr mag/cell

     iteration #  9     ecut=    60.00 Ry     beta= 0.20
     Davidson diagonalization with overlap
     ethr =  8.18E-05,  avg # of iterations =  6.5

     negative rho (up, down):  2.532E-04 1.726E-02

     total cpu time spent up to now is     3065.6 secs

     total energy              =  -21093.78351028 Ry
     Harris-Foulkes estimate   =  -21093.79349143 Ry
     estimated scf accuracy    <       0.37111741 Ry

     total magnetization       =   149.62 Bohr mag/cell
     absolute magnetization    =   154.89 Bohr mag/cell

     iteration # 10     ecut=    60.00 Ry     beta= 0.20
     Davidson diagonalization with overlap
     ethr =  3.60E-05,  avg # of iterations =  5.2

     negative rho (up, down):  3.094E-04 2.235E-02

     total cpu time spent up to now is     3268.6 secs

     total energy              =  -21093.79916050 Ry
     Harris-Foulkes estimate   =  -21093.79747222 Ry
     estimated scf accuracy    <       0.36594026 Ry

     total magnetization       =   149.92 Bohr mag/cell
     absolute magnetization    =   155.07 Bohr mag/cell

     iteration # 11     ecut=    60.00 Ry     beta= 0.20
     Davidson diagonalization with overlap
     ethr =  3.55E-05,  avg # of iterations =  4.2

     negative rho (up, down):  1.814E-04 2.250E-02

     total cpu time spent up to now is     3437.1 secs

     total energy              =  -21093.83608849 Ry
     Harris-Foulkes estimate   =  -21093.84706206 Ry
     estimated scf accuracy    <       0.25723381 Ry

     total magnetization       =   155.91 Bohr mag/cell
     absolute magnetization    =   161.14 Bohr mag/cell

     iteration # 12     ecut=    60.00 Ry     beta= 0.20
     Davidson diagonalization with overlap
     ethr =  2.50E-05,  avg # of iterations =  4.8

     negative rho (up, down):  9.274E-05 2.019E-02

     total cpu time spent up to now is     3610.8 secs

     total energy              =  -21093.84713105 Ry
     Harris-Foulkes estimate   =  -21093.85867888 Ry
     estimated scf accuracy    <       0.37642061 Ry

     total magnetization       =   158.17 Bohr mag/cell
     absolute magnetization    =   163.50 Bohr mag/cell

     iteration # 13     ecut=    60.00 Ry     beta= 0.20
     Davidson diagonalization with overlap
     ethr =  2.50E-05,  avg # of iterations =  1.5

     negative rho (up, down):  7.596E-05 2.003E-02

     total cpu time spent up to now is     3754.8 secs

     total energy              =  -21093.82057556 Ry
     Harris-Foulkes estimate   =  -21093.85923015 Ry
     estimated scf accuracy    <       0.94957734 Ry

     total magnetization       =   159.83 Bohr mag/cell
     absolute magnetization    =   165.20 Bohr mag/cell

     iteration # 14     ecut=    60.00 Ry     beta= 0.20
     Davidson diagonalization with overlap
     ethr =  2.50E-05,  avg # of iterations =  1.1

     negative rho (up, down):  3.895E-03 4.203E-02

     total cpu time spent up to now is     3895.7 secs

     total energy              =  -21093.81966792 Ry
     Harris-Foulkes estimate   =  -21093.83814970 Ry
     estimated scf accuracy    <       0.13032808 Ry

     total magnetization       =   159.75 Bohr mag/cell
     absolute magnetization    =   165.17 Bohr mag/cell

     iteration # 15     ecut=    60.00 Ry     beta= 0.20
     Davidson diagonalization with overlap
     ethr =  1.27E-05,  avg # of iterations = 17.2

     negative rho (up, down):  9.022E-03 3.834E-02

     total cpu time spent up to now is     4528.9 secs

     total energy              =  -21093.83684295 Ry
     Harris-Foulkes estimate   =  -21093.84113151 Ry
     estimated scf accuracy    <       0.21696124 Ry

     total magnetization       =   161.03 Bohr mag/cell
     absolute magnetization    =   167.29 Bohr mag/cell

     iteration # 16     ecut=    60.00 Ry     beta= 0.20
     Davidson diagonalization with overlap
     ethr =  1.27E-05,  avg # of iterations =  8.6

     negative rho (up, down):  1.033E-01 3.198E-02

     total cpu time spent up to now is     4803.9 secs

     total energy              =  -21093.82003216 Ry
     Harris-Foulkes estimate   =  -21093.83987680 Ry
     estimated scf accuracy    <       0.17795091 Ry

     total magnetization       =   161.61 Bohr mag/cell
     absolute magnetization    =   167.92 Bohr mag/cell

     iteration # 17     ecut=    60.00 Ry     beta= 0.20
     Davidson diagonalization with overlap
     ethr =  1.27E-05,  avg # of iterations =  6.1

     negative rho (up, down):  1.126E-01 3.053E-02

     total cpu time spent up to now is     5065.7 secs

     total energy              =  -21093.81960055 Ry
     Harris-Foulkes estimate   =  -21093.82494669 Ry
     estimated scf accuracy    <       0.11071380 Ry

     total magnetization       =   161.21 Bohr mag/cell
     absolute magnetization    =   167.54 Bohr mag/cell

     iteration # 18     ecut=    60.00 Ry     beta= 0.20
     Davidson diagonalization with overlap
     ethr =  1.07E-05,  avg # of iterations =  4.3

     negative rho (up, down):  1.369E-01 2.448E-02

     total cpu time spent up to now is     5280.8 secs

     total energy              =  -21093.80195953 Ry
     Harris-Foulkes estimate   =  -21093.82177850 Ry
     estimated scf accuracy    <       0.08532530 Ry

     total magnetization       =   161.28 Bohr mag/cell
     absolute magnetization    =   167.61 Bohr mag/cell

     iteration # 19     ecut=    60.00 Ry     beta= 0.20
     Davidson diagonalization with overlap
     c_bands:  4 eigenvalues not converged
     c_bands:  4 eigenvalues not converged
     c_bands:  4 eigenvalues not converged
     ethr =  8.28E-06,  avg # of iterations = 15.7

     negative rho (up, down):  8.193E-02 1.964E-02

     total cpu time spent up to now is     5649.7 secs

     total energy              =  -21093.80725086 Ry
     Harris-Foulkes estimate   =  -21093.81510640 Ry
     estimated scf accuracy    <       0.03515250 Ry

     total magnetization       =   160.90 Bohr mag/cell
     absolute magnetization    =   167.41 Bohr mag/cell

     iteration # 20     ecut=    60.00 Ry     beta= 0.20
     Davidson diagonalization with overlap
     c_bands:  1 eigenvalues not converged
     c_bands:  1 eigenvalues not converged
     ethr =  3.41E-06,  avg # of iterations = 17.6

     negative rho (up, down):  1.014E-01 2.006E-02

     total cpu time spent up to now is     6188.4 secs

     total energy              =  -21093.79346050 Ry
     Harris-Foulkes estimate   =  -21093.81351013 Ry
     estimated scf accuracy    <       0.02718599 Ry

     total magnetization       =   160.45 Bohr mag/cell
     absolute magnetization    =   167.08 Bohr mag/cell

     iteration # 21     ecut=    60.00 Ry     beta= 0.20
     Davidson diagonalization with overlap
     c_bands:  2 eigenvalues not converged
     ethr =  2.64E-06,  avg # of iterations = 12.9

     negative rho (up, down):  1.558E-01 1.739E-02

     total cpu time spent up to now is     6818.9 secs

     total energy              =  -21093.79445833 Ry
     Harris-Foulkes estimate   =  -21093.79973996 Ry
     estimated scf accuracy    <       0.02265134 Ry

     total magnetization       =   160.02 Bohr mag/cell
     absolute magnetization    =   166.78 Bohr mag/cell

     iteration # 22     ecut=    60.00 Ry     beta= 0.20
     Davidson diagonalization with overlap
     c_bands:  1 eigenvalues not converged
     ethr =  2.20E-06,  avg # of iterations =  7.4

     negative rho (up, down):  1.363E-01 1.652E-02

     total cpu time spent up to now is     7098.2 secs

     total energy              =  -21093.78843395 Ry
     Harris-Foulkes estimate   =  -21093.79538618 Ry
     estimated scf accuracy    <       0.01222997 Ry

     total magnetization       =   160.41 Bohr mag/cell
     absolute magnetization    =   167.19 Bohr mag/cell

     iteration # 23     ecut=    60.00 Ry     beta= 0.20
     Davidson diagonalization with overlap
     ethr =  1.19E-06,  avg # of iterations =  9.7

     negative rho (up, down):  1.007E-01 1.893E-02

     total cpu time spent up to now is     7453.2 secs

     total energy              =  -21093.78707301 Ry
     Harris-Foulkes estimate   =  -21093.79181493 Ry
     estimated scf accuracy    <       0.01089761 Ry

     total magnetization       =   160.42 Bohr mag/cell
     absolute magnetization    =   167.26 Bohr mag/cell

     iteration # 24     ecut=    60.00 Ry     beta= 0.20
     Davidson diagonalization with overlap
     ethr =  1.06E-06,  avg # of iterations =  8.6

     negative rho (up, down):  9.234E-02 1.884E-02

     total cpu time spent up to now is     7802.5 secs

     total energy              =  -21093.78778907 Ry
     Harris-Foulkes estimate   =  -21093.78826315 Ry
     estimated scf accuracy    <       0.00447536 Ry

     total magnetization       =   160.22 Bohr mag/cell
     absolute magnetization    =   167.10 Bohr mag/cell

     iteration # 25     ecut=    60.00 Ry     beta= 0.20
     Davidson diagonalization with overlap
     ethr =  4.35E-07,  avg # of iterations =  9.9

     negative rho (up, down):  5.107E-02 1.834E-02

     total cpu time spent up to now is     8086.9 secs

     total energy              =  -21093.78916138 Ry
     Harris-Foulkes estimate   =  -21093.78824861 Ry
     estimated scf accuracy    <       0.00334168 Ry

     total magnetization       =   160.19 Bohr mag/cell
     absolute magnetization    =   167.09 Bohr mag/cell

     iteration # 26     ecut=    60.00 Ry     beta= 0.20
     Davidson diagonalization with overlap
     ethr =  3.24E-07,  avg # of iterations = 11.4

     negative rho (up, down):  4.024E-02 1.858E-02

     total cpu time spent up to now is     8423.1 secs

     total energy              =  -21093.79018233 Ry
     Harris-Foulkes estimate   =  -21093.79023887 Ry
     estimated scf accuracy    <       0.00274103 Ry

     total magnetization       =   160.23 Bohr mag/cell
     absolute magnetization    =   167.11 Bohr mag/cell

     iteration # 27     ecut=    60.00 Ry     beta= 0.20
     Davidson diagonalization with overlap
     ethr =  2.66E-07,  avg # of iterations =  8.6

     negative rho (up, down):  3.706E-02 2.037E-02

     total cpu time spent up to now is     8681.8 secs

     total energy              =  -21093.79015772 Ry
     Harris-Foulkes estimate   =  -21093.79042056 Ry
     estimated scf accuracy    <       0.00094703 Ry

     total magnetization       =   160.29 Bohr mag/cell
     absolute magnetization    =   167.18 Bohr mag/cell

     iteration # 28     ecut=    60.00 Ry     beta= 0.20
     Davidson diagonalization with overlap
     c_bands:  2 eigenvalues not converged
     ethr =  9.19E-08,  avg # of iterations = 15.4

     negative rho (up, down):  3.823E-02 1.881E-02

     total cpu time spent up to now is     9705.4 secs

     total energy              =  -21093.79016643 Ry
     Harris-Foulkes estimate   =  -21093.79071332 Ry
     estimated scf accuracy    <       0.00060113 Ry

     total magnetization       =   160.36 Bohr mag/cell
     absolute magnetization    =   167.28 Bohr mag/cell

     iteration # 29     ecut=    60.00 Ry     beta= 0.20
     Davidson diagonalization with overlap
     ethr =  5.84E-08,  avg # of iterations =  7.1

     negative rho (up, down):  3.681E-02 1.849E-02

     total cpu time spent up to now is     9993.3 secs

     total energy              =  -21093.78979339 Ry
     Harris-Foulkes estimate   =  -21093.79022132 Ry
     estimated scf accuracy    <       0.00030128 Ry

     total magnetization       =   160.33 Bohr mag/cell
     absolute magnetization    =   167.25 Bohr mag/cell

     iteration # 30     ecut=    60.00 Ry     beta= 0.20
     Davidson diagonalization with overlap
     ethr =  2.93E-08,  avg # of iterations =  7.0

     negative rho (up, down):  2.738E-02 1.867E-02

     total cpu time spent up to now is    10240.6 secs

     total energy              =  -21093.78875291 Ry
     Harris-Foulkes estimate   =  -21093.78983001 Ry
     estimated scf accuracy    <       0.00031928 Ry

     total magnetization       =   160.33 Bohr mag/cell
     absolute magnetization    =   167.25 Bohr mag/cell

     iteration # 31     ecut=    60.00 Ry     beta= 0.20
     Davidson diagonalization with overlap
     ethr =  2.93E-08,  avg # of iterations =  6.9

     negative rho (up, down):  2.692E-02 1.864E-02

     total cpu time spent up to now is    10567.9 secs

     total energy              =  -21093.78861699 Ry
     Harris-Foulkes estimate   =  -21093.78882580 Ry
     estimated scf accuracy    <       0.00009257 Ry

     total magnetization       =   160.35 Bohr mag/cell
     absolute magnetization    =   167.27 Bohr mag/cell

     iteration # 32     ecut=    60.00 Ry     beta= 0.20
     Davidson diagonalization with overlap
     ethr =  8.99E-09,  avg # of iterations =  8.2

     negative rho (up, down):  2.667E-02 1.857E-02

     total cpu time spent up to now is    11148.3 secs

     total energy              =  -21093.78845149 Ry
     Harris-Foulkes estimate   =  -21093.78867043 Ry
     estimated scf accuracy    <       0.00006512 Ry

     total magnetization       =   160.37 Bohr mag/cell
     absolute magnetization    =   167.30 Bohr mag/cell

     iteration # 33     ecut=    60.00 Ry     beta= 0.20
     Davidson diagonalization with overlap
     ethr =  6.32E-09,  avg # of iterations =  2.1

     negative rho (up, down):  2.596E-02 1.860E-02

     total cpu time spent up to now is    11304.1 secs

     total energy              =  -21093.78778600 Ry
     Harris-Foulkes estimate   =  -21093.78845570 Ry
     estimated scf accuracy    <       0.00004007 Ry

     total magnetization       =   160.37 Bohr mag/cell
     absolute magnetization    =   167.30 Bohr mag/cell

     iteration # 34     ecut=    60.00 Ry     beta= 0.20
     Davidson diagonalization with overlap
     ethr =  3.89E-09,  avg # of iterations =  7.5

     negative rho (up, down):  2.517E-02 1.860E-02

     total cpu time spent up to now is    11565.7 secs

     total energy              =  -21093.78646127 Ry
     Harris-Foulkes estimate   =  -21093.78779334 Ry
     estimated scf accuracy    <       0.00001968 Ry

     total magnetization       =   160.39 Bohr mag/cell
     absolute magnetization    =   167.33 Bohr mag/cell

     iteration # 35     ecut=    60.00 Ry     beta= 0.20
     Davidson diagonalization with overlap
     ethr =  1.91E-09,  avg # of iterations = 10.1

     negative rho (up, down):  2.509E-02 1.857E-02

     total cpu time spent up to now is    12035.7 secs

     total energy              =  -21093.78635265 Ry
     Harris-Foulkes estimate   =  -21093.78647303 Ry
     estimated scf accuracy    <       0.00001209 Ry

     total magnetization       =   160.40 Bohr mag/cell
     absolute magnetization    =   167.36 Bohr mag/cell

     iteration # 36     ecut=    60.00 Ry     beta= 0.20
     Davidson diagonalization with overlap
     ethr =  1.17E-09,  avg # of iterations =  4.2

     negative rho (up, down):  2.491E-02 1.853E-02

     total cpu time spent up to now is    12203.0 secs

     total energy              =  -21093.78630394 Ry
     Harris-Foulkes estimate   =  -21093.78635353 Ry
     estimated scf accuracy    <       0.00000541 Ry

     total magnetization       =   160.40 Bohr mag/cell
     absolute magnetization    =   167.35 Bohr mag/cell

     iteration # 37     ecut=    60.00 Ry     beta= 0.20
     Davidson diagonalization with overlap
     ethr =  5.25E-10,  avg # of iterations =  9.3

     negative rho (up, down):  2.489E-02 1.852E-02

     total cpu time spent up to now is    12563.5 secs

     total energy              =  -21093.78636234 Ry
     Harris-Foulkes estimate   =  -21093.78630543 Ry
     estimated scf accuracy    <       0.00000311 Ry

     total magnetization       =   160.40 Bohr mag/cell
     absolute magnetization    =   167.35 Bohr mag/cell

     iteration # 38     ecut=    60.00 Ry     beta= 0.20
     Davidson diagonalization with overlap
     ethr =  3.02E-10,  avg # of iterations =  7.6

     negative rho (up, down):  2.520E-02 1.852E-02

     total cpu time spent up to now is    13107.6 secs

     total energy              =  -21093.78608782 Ry
     Harris-Foulkes estimate   =  -21093.78636300 Ry
     estimated scf accuracy    <       0.00000214 Ry

     total magnetization       =   160.40 Bohr mag/cell
     absolute magnetization    =   167.35 Bohr mag/cell

     iteration # 39     ecut=    60.00 Ry     beta= 0.20
     Davidson diagonalization with overlap
     ethr =  2.08E-10,  avg # of iterations =  6.8

     negative rho (up, down):  2.531E-02 1.855E-02

     total cpu time spent up to now is    13335.2 secs

     total energy              =  -21093.78600333 Ry
     Harris-Foulkes estimate   =  -21093.78608810 Ry
     estimated scf accuracy    <       0.00000130 Ry

     total magnetization       =   160.41 Bohr mag/cell
     absolute magnetization    =   167.36 Bohr mag/cell

     iteration # 40     ecut=    60.00 Ry     beta= 0.20
     Davidson diagonalization with overlap
     ethr =  1.26E-10,  avg # of iterations =  8.1

     negative rho (up, down):  2.540E-02 1.856E-02

     total cpu time spent up to now is    13977.4 secs

     total energy              =  -21093.78594857 Ry
     Harris-Foulkes estimate   =  -21093.78600382 Ry
     estimated scf accuracy    <       0.00000054 Ry

     total magnetization       =   160.41 Bohr mag/cell
     absolute magnetization    =   167.37 Bohr mag/cell

     iteration # 41     ecut=    60.00 Ry     beta= 0.20
     Davidson diagonalization with overlap
     ethr =  5.22E-11,  avg # of iterations =  7.7

     negative rho (up, down):  2.544E-02 1.856E-02

     total cpu time spent up to now is    14367.8 secs

     total energy              =  -21093.78595732 Ry
     Harris-Foulkes estimate   =  -21093.78594873 Ry
     estimated scf accuracy    <       0.00000031 Ry

     total magnetization       =   160.41 Bohr mag/cell
     absolute magnetization    =   167.37 Bohr mag/cell

     iteration # 42     ecut=    60.00 Ry     beta= 0.20
     Davidson diagonalization with overlap
     ethr =  3.00E-11,  avg # of iterations =  5.5

     negative rho (up, down):  2.545E-02 1.855E-02

     total cpu time spent up to now is    14615.1 secs

     total energy              =  -21093.78594936 Ry
     Harris-Foulkes estimate   =  -21093.78595735 Ry
     estimated scf accuracy    <       0.00000014 Ry

     total magnetization       =   160.41 Bohr mag/cell
     absolute magnetization    =   167.37 Bohr mag/cell

     iteration # 43     ecut=    60.00 Ry     beta= 0.20
     Davidson diagonalization with overlap
     ethr =  1.32E-11,  avg # of iterations =  7.8

     negative rho (up, down):  2.543E-02 1.855E-02

     total cpu time spent up to now is    14874.6 secs

     total energy              =  -21093.78596638 Ry
     Harris-Foulkes estimate   =  -21093.78594938 Ry
     estimated scf accuracy    <       0.00000008 Ry

     total magnetization       =   160.41 Bohr mag/cell
     absolute magnetization    =   167.37 Bohr mag/cell

     iteration # 44     ecut=    60.00 Ry     beta= 0.20
     Davidson diagonalization with overlap
     c_bands:  2 eigenvalues not converged
     ethr =  7.94E-12,  avg # of iterations =  9.0

     negative rho (up, down):  2.540E-02 1.857E-02

     total cpu time spent up to now is    15182.7 secs

     total energy              =  -21093.78598416 Ry
     Harris-Foulkes estimate   =  -21093.78596639 Ry
     estimated scf accuracy    <       0.00000004 Ry

     total magnetization       =   160.41 Bohr mag/cell
     absolute magnetization    =   167.37 Bohr mag/cell

     iteration # 45     ecut=    60.00 Ry     beta= 0.20
     Davidson diagonalization with overlap
     c_bands:  1 eigenvalues not converged
     ethr =  4.00E-12,  avg # of iterations =  8.1

     negative rho (up, down):  2.536E-02 1.858E-02

     total cpu time spent up to now is    15883.7 secs

     total energy              =  -21093.78598587 Ry
     Harris-Foulkes estimate   =  -21093.78598417 Ry
     estimated scf accuracy    <       0.00000003 Ry

     total magnetization       =   160.41 Bohr mag/cell
     absolute magnetization    =   167.37 Bohr mag/cell

     iteration # 46     ecut=    60.00 Ry     beta= 0.20
     Davidson diagonalization with overlap
     ethr =  2.45E-12,  avg # of iterations =  5.0

     negative rho (up, down):  2.533E-02 1.859E-02

     total cpu time spent up to now is    16083.5 secs

     total energy              =  -21093.78599407 Ry
     Harris-Foulkes estimate   =  -21093.78598588 Ry
     estimated scf accuracy    <       0.00000002 Ry

     total magnetization       =   160.41 Bohr mag/cell
     absolute magnetization    =   167.37 Bohr mag/cell

     iteration # 47     ecut=    60.00 Ry     beta= 0.20
     Davidson diagonalization with overlap
     ethr =  1.55E-12,  avg # of iterations =  6.4

     negative rho (up, down):  2.526E-02 1.858E-02

     Magnetic moment per site:
     atom:    1    charge:   12.5893    magn:    2.3576    constr:    0.0000
     atom:    2    charge:   12.5785    magn:    2.1614    constr:    0.0000
     atom:    3    charge:   12.5888    magn:    2.3583    constr:    0.0000
     atom:    4    charge:   12.5767    magn:    2.2017    constr:    0.0000
     atom:    5    charge:   12.5804    magn:    2.2054    constr:    0.0000
     atom:    6    charge:   12.5819    magn:    2.2208    constr:    0.0000
     atom:    7    charge:   12.5764    magn:    2.2565    constr:    0.0000
     atom:    8    charge:   12.5840    magn:    2.3649    constr:    0.0000
     atom:    9    charge:   12.5896    magn:    2.3510    constr:    0.0000
     atom:   10    charge:   12.5895    magn:    2.3550    constr:    0.0000
     atom:   11    charge:   12.5773    magn:    2.2066    constr:    0.0000
     atom:   12    charge:   12.5779    magn:    2.1949    constr:    0.0000
     atom:   13    charge:   12.5766    magn:    2.2078    constr:    0.0000
     atom:   14    charge:   12.5805    magn:    2.1756    constr:    0.0000
     atom:   15    charge:   12.5889    magn:    2.3328    constr:    0.0000
     atom:   16    charge:   12.5854    magn:    2.2203    constr:    0.0000
     atom:   17    charge:   12.5886    magn:    2.3582    constr:    0.0000
     atom:   18    charge:   12.5768    magn:    2.2017    constr:    0.0000
     atom:   19    charge:   12.5888    magn:    2.3590    constr:    0.0000
     atom:   20    charge:   12.5762    magn:    2.2228    constr:    0.0000
     atom:   21    charge:   12.5766    magn:    2.2562    constr:    0.0000
     atom:   22    charge:   12.5838    magn:    2.3650    constr:    0.0000
     atom:   23    charge:   12.5769    magn:    2.2504    constr:    0.0000
     atom:   24    charge:   12.5952    magn:    1.6357    constr:    0.0000
     atom:   25    charge:   12.5890    magn:    2.3647    constr:    0.0000
     atom:   26    charge:   12.5888    magn:    2.3587    constr:    0.0000
     atom:   27    charge:   12.5764    magn:    2.2189    constr:    0.0000
     atom:   28    charge:   12.5771    magn:    2.2045    constr:    0.0000
     atom:   29    charge:   12.5781    magn:    2.2764    constr:    0.0000
     atom:   30    charge:   12.5803    magn:    2.0619    constr:    0.0000
     atom:   31    charge:   12.5833    magn:    2.1300    constr:    0.0000
     atom:   32    charge:   12.5879    magn:    2.3354    constr:    0.0000
     atom:   33    charge:   12.5893    magn:    2.3587    constr:    0.0000
     atom:   34    charge:   12.5767    magn:    2.1966    constr:    0.0000
     atom:   35    charge:   12.5892    magn:    2.3576    constr:    0.0000
     atom:   36    charge:   12.5786    magn:    2.1614    constr:    0.0000
     atom:   37    charge:   12.5800    magn:    2.1959    constr:    0.0000
     atom:   38    charge:   12.5857    magn:    2.3459    constr:    0.0000
     atom:   39    charge:   12.5803    magn:    2.2054    constr:    0.0000
     atom:   40    charge:   12.5815    magn:    2.2216    constr:    0.0000
     atom:   41    charge:   12.5894    magn:    2.3597    constr:    0.0000
     atom:   42    charge:   12.5891    magn:    2.3587    constr:    0.0000
     atom:   43    charge:   12.5775    magn:    2.1985    constr:    0.0000
     atom:   44    charge:   12.5773    magn:    2.2046    constr:    0.0000
     atom:   45    charge:   12.5804    magn:    2.1580    constr:    0.0000
     atom:   46    charge:   12.5806    magn:    2.0622    constr:    0.0000
     atom:   47    charge:   12.5874    magn:    2.3576    constr:    0.0000
     atom:   48    charge:   12.5879    magn:    2.3355    constr:    0.0000
     atom:   49    charge:   12.5889    magn:    2.3591    constr:    0.0000
     atom:   50    charge:   12.5767    magn:    2.2231    constr:    0.0000
     atom:   51    charge:   12.5893    magn:    2.3587    constr:    0.0000
     atom:   52    charge:   12.5767    magn:    2.1966    constr:    0.0000
     atom:   53    charge:   12.5767    magn:    2.2506    constr:    0.0000
     atom:   54    charge:   12.5949    magn:    1.6357    constr:    0.0000
     atom:   55    charge:   12.5804    magn:    2.1960    constr:    0.0000
     atom:   56    charge:   12.5858    magn:    2.3458    constr:    0.0000
     atom:   57    charge:   12.5896    magn:    2.3510    constr:    0.0000
     atom:   58    charge:   12.5893    magn:    2.3560    constr:    0.0000
     atom:   59    charge:   12.5775    magn:    2.2067    constr:    0.0000
     atom:   60    charge:   12.5765    magn:    2.2177    constr:    0.0000
     atom:   61    charge:   12.5767    magn:    2.2078    constr:    0.0000
     atom:   62    charge:   12.5803    magn:    2.1872    constr:    0.0000
     atom:   63    charge:   12.5889    magn:    2.3328    constr:    0.0000
     atom:   64    charge:   12.5828    magn:    2.1346    constr:    0.0000
     atom:   65    charge:    3.7474    magn:   -0.1329    constr:    0.0000
     atom:   66    charge:    0.9791    magn:   -0.0236    constr:    0.0000

     total cpu time spent up to now is    16282.6 secs

     End of self-consistent calculation

 ------ SPIN UP ------------


          k = 0.0000 0.0000 0.0000 (128403 PWs)   bands (ev):

   -91.0584 -91.0041 -90.9979 -90.9728 -90.9715 -90.9659 -90.9621 -90.9585
   -90.9551 -90.9549 -90.9525 -90.9501 -90.9467 -90.9424 -90.9420 -90.9414
   -90.9395 -90.9385 -90.9373 -90.9372 -90.9356 -90.9330 -90.9267 -90.9263
   -90.9236 -90.9217 -90.9203 -90.9202 -90.9162 -90.9088 -90.8940 -90.8919
   -90.8852 -90.8827 -90.8712 -90.8377 -90.8281 -90.8276 -90.8208 -90.8181
   -90.8154 -90.8108 -90.8087 -90.8061 -90.8012 -90.7994 -90.7986 -90.7964
   -90.7953 -90.7946 -90.7946 -90.7893 -90.7887 -90.7882 -90.7855 -90.7850
   -90.7804 -90.7767 -90.7723 -90.7719 -90.7679 -90.7583 -90.7540 -90.7513
   -57.2359 -57.1892 -57.1682 -57.1655 -57.1644 -57.1612 -57.1580 -57.1568
   -57.1533 -57.1519 -57.1479 -57.1442 -57.1434 -57.1433 -57.1413 -57.1412
   -57.1377 -57.1352 -57.1327 -57.1318 -57.1317 -57.1303 -57.1268 -57.1218
   -57.1213 -57.1163 -57.1161 -57.1148 -57.1119 -57.1071 -57.1070 -57.1014
   -57.0986 -57.0981 -57.0923 -57.0916 -57.0796 -57.0790 -57.0772 -57.0760
   -57.0656 -57.0610 -57.0561 -57.0544 -57.0539 -57.0518 -57.0481 -57.0406
   -57.0357 -57.0314 -57.0244 -57.0163 -57.0108 -57.0067 -57.0000 -56.9978
   -56.9977 -56.9938 -56.9926 -56.9901 -56.9835 -56.9826 -56.9816 -56.9799
   -56.9794 -56.9731 -56.9724 -56.9702 -56.9696 -56.9677 -56.9655 -56.9607
   -56.9580 -56.9549 -56.9483 -56.9433 -56.9426 -56.9390 -56.9373 -56.9325
   -56.9319 -56.9311 -56.9305 -56.9245 -56.9242 -56.9213 -56.9202 -56.9174
   -56.9156 -56.9146 -56.9133 -56.9105 -56.9104 -56.9079 -56.9071 -56.9058
   -56.9042 -56.9036 -56.8995 -56.8983 -56.8963 -56.8960 -56.8944 -56.8883
   -56.8879 -56.8859 -56.8810 -56.8786 -56.8776 -56.8735 -56.8731 -56.8718
   -56.8689 -56.8653 -56.8622 -56.8596 -56.8577 -56.8533 -56.8519 -56.8506
   -56.8485 -56.8472 -56.8469 -56.8434 -56.8422 -56.8374 -56.8371 -56.8341
   -56.8340 -56.8333 -56.8297 -56.8293 -56.8276 -56.8266 -56.8264 -56.8216
   -56.8144 -56.8118 -56.8094 -56.8082 -56.8029 -56.8012 -56.8005 -56.7994
   -56.7984 -56.7953 -56.7951 -56.7907 -56.7865 -56.7838 -56.7832 -56.7817
   -56.7806 -56.7795 -56.7790 -56.7736 -56.7733 -56.7730 -56.7685 -56.7650
   -56.7627 -56.7599 -56.7597 -56.7589 -56.7583 -56.7549 -56.7477 -56.7453
   -56.7439 -56.7410 -56.7383 -56.7308 -56.7301 -56.7280 -56.7259 -56.7226
   -56.7189 -56.7133 -56.7083 -56.7073 -56.7056 -56.7035 -56.7025 -56.7018
   -56.6956 -56.6945 -56.6932 -56.6897 -56.6883 -56.6853 -56.6186 -56.6178
   -18.4121 -10.7465  -9.7426  -9.4430  -9.3926  -9.1959  -9.0541  -8.9567
    -8.8710  -8.8694  -8.6148  -8.5428  -8.2853  -8.0754  -7.9979  -7.9352
    -7.9170  -7.7464  -7.6465  -7.6126  -7.4974  -7.4463  -7.4170  -7.4118
    -7.3849  -7.3498  -7.3426  -7.3206  -7.2642  -7.1778  -7.0321  -6.9855
    -6.9521  -6.9445  -6.9255  -6.8991  -6.8857  -6.8803  -6.8713  -6.8606
    -6.8538  -6.8521  -6.8449  -6.8416  -6.8361  -6.8284  -6.8269  -6.8133
    -6.7921  -6.7856  -6.7855  -6.7830  -6.7631  -6.7586  -6.7390  -6.7150
    -6.7145  -6.6761  -6.6665  -6.6024  -6.6014  -6.5890  -6.5838  -6.5132
    -6.5117  -6.4215  -6.3376  -6.3214  -6.2985  -6.2797  -6.2707  -6.2653
    -6.2574  -6.2338  -6.1946  -6.1220  -6.1172  -6.1120  -6.1069  -6.1009
    -6.0916  -6.0907  -6.0852  -6.0688  -6.0548  -6.0507  -6.0503  -6.0453
    -6.0435  -6.0293  -6.0185  -6.0151  -6.0068  -6.0051  -6.0008  -5.9881
    -5.9701  -5.9697  -5.9576  -5.9501  -5.9469  -5.9444  -5.9378  -5.9329
    -5.9230  -5.9167  -5.9057  -5.8985  -5.8857  -5.8726  -5.8119  -5.8046
    -5.8026  -5.7389  -5.7355  -5.7345  -5.7286  -5.6980  -5.6657  -5.6498
    -5.6371  -5.6104  -5.5713  -5.5454  -5.5341  -5.5211  -5.5106  -5.5104
    -5.5046  -5.5032  -5.4895  -5.4727  -5.4444  -5.4311  -5.4112  -5.4104
    -5.4025  -5.4003  -5.3907  -5.3848  -5.3743  -5.3733  -5.3714  -5.3621
    -5.3455  -5.3141  -5.2978  -5.2677  -5.2489  -5.2159  -5.2157  -5.2129
    -5.2099  -5.2065  -5.1911  -5.1807  -5.1624  -5.1543  -5.1381  -5.1160
    -5.0960  -5.0853  -5.0851  -5.0822  -5.0787  -5.0751  -5.0739  -5.0639
    -5.0581  -5.0098  -4.9936  -4.9864  -4.9785  -4.9656  -4.9558  -4.9532
    -4.9516  -4.9342  -4.9315  -4.9303  -4.9268  -4.9193  -4.9094  -4.8977
    -4.8777  -4.8422  -4.8289  -4.8087  -4.6900  -4.6799  -4.5743  -4.5554
    -4.4456  -4.4307  -4.4156  -4.4137  -4.4110  -4.4033  -4.3965  -4.3929
    -4.3846  -4.3761  -4.3611  -4.3586  -4.3564  -4.3432  -4.3108  -4.3019
    -4.2897  -4.2705  -4.2683  -4.2527  -4.2494  -4.2405  -4.2262  -4.2185
    -4.2162  -4.2092  -4.1991  -4.1988  -4.1904  -4.1781  -4.1723  -4.1671
    -4.1608  -4.1442  -4.1385  -4.1277  -4.1035  -4.0909  -4.0893  -4.0864
    -4.0726  -4.0673  -4.0642  -4.0634  -4.0590  -4.0380  -4.0374  -4.0318
    -4.0301  -4.0266  -4.0169  -4.0108  -4.0084  -3.9997  -3.9900  -3.9836
    -3.9824  -3.9818  -3.9732  -3.9715  -3.9698  -3.9669  -3.9594  -3.9573
    -3.9547  -3.9504  -3.9390  -3.9368  -3.9283  -3.9199  -3.9196  -3.9113
    -3.9080  -3.8922  -3.8881  -3.8780  -3.8724  -3.8703  -3.8697  -3.8618
    -3.8582  -3.8565  -3.8508  -3.8479  -3.8285  -3.8243  -3.8045  -3.7971
    -3.7848  -3.7690  -3.7637  -3.7566  -3.7502  -3.7432  -3.7385  -3.7339
    -3.7277  -3.7177  -3.7040  -3.7029  -3.6426  -3.6213  -3.6046  -3.6045
    -3.5987  -3.5941  -3.5890  -3.5888  -3.5844  -3.5723  -3.5561  -3.5556
    -3.5522  -3.5384  -3.5374  -3.5305  -3.5218  -3.5192  -3.4952  -3.4911
    -3.4859  -3.4395  -3.4264  -3.2532  -3.1570  -3.1541  -3.1147  -3.1001
    -3.0944  -3.0705  -3.0062  -3.0000  -2.9767  -2.9450  -2.9345  -2.9283
    -2.9143  -2.8562  -2.8545  -2.8540  -2.8231  -2.8026  -2.7903  -2.7787
    -2.7546  -2.7508  -2.7192  -2.6654  -2.6378  -2.6210  -2.5834  -2.5295
    -2.5140  -2.2948  -2.1761  -2.0888  -1.9086  -1.7995  -1.7801  -1.7715
    -1.7228  -1.4459  -1.2246  -1.1796  -1.1027  -0.9639  -0.9368  -0.9279
    -0.9075  -0.8077

          k = 0.0000 0.2652 0.0000 (128375 PWs)   bands (ev):

   -91.0584 -91.0041 -90.9979 -90.9717 -90.9711 -90.9666 -90.9622 -90.9617
   -90.9545 -90.9542 -90.9521 -90.9478 -90.9476 -90.9450 -90.9431 -90.9423
   -90.9392 -90.9366 -90.9364 -90.9354 -90.9349 -90.9332 -90.9284 -90.9266
   -90.9236 -90.9217 -90.9205 -90.9200 -90.9151 -90.9096 -90.8940 -90.8920
   -90.8852 -90.8826 -90.8712 -90.8368 -90.8311 -90.8248 -90.8226 -90.8179
   -90.8134 -90.8125 -90.8084 -90.8047 -90.8013 -90.8002 -90.7992 -90.7968
   -90.7958 -90.7949 -90.7925 -90.7905 -90.7888 -90.7879 -90.7852 -90.7835
   -90.7806 -90.7781 -90.7738 -90.7716 -90.7656 -90.7588 -90.7538 -90.7517
   -57.2357 -57.1865 -57.1710 -57.1667 -57.1635 -57.1616 -57.1589 -57.1560
   -57.1542 -57.1512 -57.1462 -57.1447 -57.1438 -57.1432 -57.1412 -57.1388
   -57.1370 -57.1355 -57.1343 -57.1302 -57.1296 -57.1279 -57.1268 -57.1224
   -57.1199 -57.1174 -57.1150 -57.1134 -57.1112 -57.1079 -57.1062 -57.1020
   -57.1003 -57.0990 -57.0890 -57.0857 -57.0783 -57.0754 -57.0735 -57.0683
   -57.0644 -57.0615 -57.0603 -57.0550 -57.0510 -57.0469 -57.0449 -57.0409
   -57.0389 -57.0275 -57.0255 -57.0183 -57.0157 -57.0086 -57.0066 -57.0017
   -56.9983 -56.9967 -56.9935 -56.9892 -56.9887 -56.9868 -56.9807 -56.9797
   -56.9766 -56.9747 -56.9726 -56.9712 -56.9699 -56.9688 -56.9673 -56.9664
   -56.9633 -56.9617 -56.9583 -56.9551 -56.9521 -56.9466 -56.9456 -56.9420
   -56.9405 -56.9373 -56.9363 -56.9304 -56.9282 -56.9226 -56.9219 -56.9211
   -56.9190 -56.9166 -56.9142 -56.9091 -56.9074 -56.9049 -56.9024 -56.9010
   -56.8992 -56.8955 -56.8945 -56.8933 -56.8905 -56.8867 -56.8855 -56.8835
   -56.8826 -56.8806 -56.8779 -56.8772 -56.8749 -56.8735 -56.8725 -56.8700
   -56.8688 -56.8668 -56.8642 -56.8619 -56.8589 -56.8571 -56.8550 -56.8519
   -56.8501 -56.8460 -56.8447 -56.8405 -56.8397 -56.8367 -56.8352 -56.8333
   -56.8319 -56.8300 -56.8268 -56.8234 -56.8226 -56.8214 -56.8181 -56.8158
   -56.8130 -56.8102 -56.8076 -56.8049 -56.8030 -56.8009 -56.7994 -56.7972
   -56.7959 -56.7943 -56.7924 -56.7892 -56.7871 -56.7850 -56.7823 -56.7806
   -56.7804 -56.7757 -56.7752 -56.7741 -56.7725 -56.7724 -56.7703 -56.7681
   -56.7643 -56.7619 -56.7604 -56.7583 -56.7564 -56.7513 -56.7489 -56.7439
   -56.7397 -56.7390 -56.7376 -56.7320 -56.7295 -56.7279 -56.7257 -56.7228
   -56.7195 -56.7167 -56.7128 -56.7111 -56.7090 -56.7069 -56.7046 -56.7027
   -56.7003 -56.6976 -56.6966 -56.6933 -56.6892 -56.6866 -56.6192 -56.6182
   -18.4121 -10.6404  -9.8850  -9.5883  -9.4109  -9.2352  -9.1195  -9.0276
    -8.8461  -8.6803  -8.5033  -8.3666  -8.2469  -8.0935  -7.9913  -7.9229
    -7.7781  -7.7209  -7.6738  -7.5786  -7.5063  -7.4578  -7.4158  -7.3648
    -7.3552  -7.3330  -7.3109  -7.2958  -7.2502  -7.2104  -7.1303  -7.0690
    -7.0390  -7.0161  -6.9916  -6.9860  -6.9726  -6.9683  -6.9468  -6.9394
    -6.9245  -6.8979  -6.8934  -6.8762  -6.8660  -6.8404  -6.8269  -6.8129
    -6.7914  -6.7850  -6.7710  -6.7621  -6.7539  -6.7171  -6.7000  -6.6934
    -6.6894  -6.6815  -6.6552  -6.6164  -6.5637  -6.5547  -6.5204  -6.5085
    -6.4658  -6.4507  -6.4090  -6.3882  -6.3572  -6.3227  -6.2905  -6.2454
    -6.2270  -6.2153  -6.1930  -6.1663  -6.1282  -6.1213  -6.1065  -6.1018
    -6.0919  -6.0816  -6.0765  -6.0650  -6.0580  -6.0511  -6.0417  -6.0286
    -6.0206  -6.0119  -6.0038  -6.0011  -5.9865  -5.9827  -5.9739  -5.9695
    -5.9623  -5.9565  -5.9542  -5.9442  -5.9419  -5.9186  -5.9130  -5.8863
    -5.8649  -5.8618  -5.8559  -5.8447  -5.8400  -5.8298  -5.8132  -5.8030
    -5.7902  -5.7783  -5.7730  -5.7214  -5.6947  -5.6800  -5.6716  -5.6593
    -5.6364  -5.6198  -5.6054  -5.5842  -5.5667  -5.5415  -5.5146  -5.5061
    -5.5002  -5.4847  -5.4760  -5.4705  -5.4676  -5.4515  -5.4456  -5.4404
    -5.4215  -5.4134  -5.4025  -5.3920  -5.3864  -5.3795  -5.3672  -5.3536
    -5.3387  -5.3229  -5.2913  -5.2760  -5.2646  -5.2355  -5.2300  -5.2266
    -5.2165  -5.1999  -5.1929  -5.1874  -5.1847  -5.1749  -5.1673  -5.1583
    -5.1488  -5.1435  -5.1301  -5.1228  -5.1013  -5.0954  -5.0592  -5.0431
    -5.0284  -5.0171  -5.0120  -5.0002  -4.9785  -4.9673  -4.9438  -4.9323
    -4.9236  -4.9141  -4.9010  -4.8711  -4.8612  -4.8442  -4.8108  -4.8035
    -4.7895  -4.7509  -4.7347  -4.7207  -4.6763  -4.5809  -4.5670  -4.5322
    -4.5212  -4.5098  -4.4880  -4.4642  -4.4525  -4.4460  -4.4275  -4.4052
    -4.3920  -4.3811  -4.3688  -4.3640  -4.3515  -4.3466  -4.3360  -4.3313
    -4.3187  -4.2987  -4.2947  -4.2821  -4.2664  -4.2604  -4.2512  -4.2255
    -4.2186  -4.2130  -4.2062  -4.1897  -4.1826  -4.1687  -4.1620  -4.1603
    -4.1555  -4.1480  -4.1337  -4.1100  -4.1033  -4.0971  -4.0925  -4.0754
    -4.0745  -4.0681  -4.0623  -4.0547  -4.0495  -4.0434  -4.0414  -4.0336
    -4.0301  -4.0200  -4.0104  -4.0077  -3.9966  -3.9882  -3.9827  -3.9766
    -3.9707  -3.9689  -3.9583  -3.9526  -3.9472  -3.9421  -3.9399  -3.9317
    -3.9255  -3.9211  -3.9132  -3.9077  -3.8963  -3.8898  -3.8879  -3.8827
    -3.8750  -3.8715  -3.8671  -3.8648  -3.8619  -3.8533  -3.8509  -3.8385
    -3.8343  -3.8311  -3.8213  -3.8097  -3.7990  -3.7948  -3.7789  -3.7766
    -3.7647  -3.7393  -3.7313  -3.7248  -3.7181  -3.7124  -3.7051  -3.6907
    -3.6866  -3.6760  -3.6685  -3.6631  -3.6553  -3.6520  -3.6348  -3.6195
    -3.6021  -3.5984  -3.5945  -3.5868  -3.5800  -3.5671  -3.5602  -3.5581
    -3.5459  -3.5386  -3.5185  -3.5045  -3.4864  -3.4512  -3.4392  -3.4107
    -3.3976  -3.3808  -3.2816  -3.2364  -3.2157  -3.1909  -3.1615  -3.1418
    -3.1308  -3.1078  -3.0829  -3.0527  -3.0392  -3.0082  -3.0002  -2.9909
    -2.9801  -2.9616  -2.9475  -2.9391  -2.9229  -2.9173  -2.8908  -2.8761
    -2.8589  -2.8121  -2.7893  -2.7665  -2.7351  -2.6816  -2.5874  -2.3921
    -2.3197  -2.2431  -2.1886  -2.1381  -2.0178  -1.8916  -1.8139  -1.7509
    -1.5569  -1.5252  -1.4956  -1.4706  -1.3567  -1.2653  -1.1438  -1.0623
    -1.0103  -0.9345

          k = 0.0000-0.5303 0.0000 (128388 PWs)   bands (ev):

   -91.0584 -91.0041 -90.9979 -90.9705 -90.9698 -90.9674 -90.9650 -90.9622
   -90.9540 -90.9532 -90.9500 -90.9494 -90.9486 -90.9464 -90.9428 -90.9421
   -90.9390 -90.9375 -90.9353 -90.9337 -90.9331 -90.9328 -90.9300 -90.9283
   -90.9224 -90.9216 -90.9208 -90.9207 -90.9133 -90.9110 -90.8939 -90.8921
   -90.8852 -90.8826 -90.8712 -90.8348 -90.8341 -90.8240 -90.8223 -90.8178
   -90.8159 -90.8108 -90.8074 -90.8030 -90.8022 -90.8009 -90.8003 -90.7972
   -90.7959 -90.7948 -90.7918 -90.7908 -90.7888 -90.7866 -90.7861 -90.7819
   -90.7814 -90.7786 -90.7752 -90.7714 -90.7634 -90.7596 -90.7535 -90.7522
   -57.2356 -57.1806 -57.1778 -57.1672 -57.1621 -57.1613 -57.1593 -57.1564
   -57.1555 -57.1492 -57.1463 -57.1456 -57.1430 -57.1429 -57.1395 -57.1385
   -57.1371 -57.1350 -57.1336 -57.1299 -57.1277 -57.1261 -57.1254 -57.1224
   -57.1214 -57.1161 -57.1139 -57.1119 -57.1109 -57.1089 -57.1047 -57.1029
   -57.1015 -57.1004 -57.0876 -57.0760 -57.0721 -57.0703 -57.0679 -57.0674
   -57.0646 -57.0620 -57.0618 -57.0601 -57.0494 -57.0431 -57.0386 -57.0371
   -57.0301 -57.0281 -57.0274 -57.0236 -57.0216 -57.0132 -57.0111 -57.0109
   -57.0081 -57.0035 -56.9994 -56.9912 -56.9901 -56.9887 -56.9849 -56.9823
   -56.9790 -56.9749 -56.9738 -56.9709 -56.9702 -56.9685 -56.9665 -56.9650
   -56.9636 -56.9584 -56.9577 -56.9545 -56.9535 -56.9518 -56.9498 -56.9486
   -56.9432 -56.9423 -56.9410 -56.9378 -56.9363 -56.9332 -56.9310 -56.9272
   -56.9236 -56.9227 -56.9175 -56.9113 -56.9079 -56.9047 -56.9022 -56.8997
   -56.8950 -56.8936 -56.8923 -56.8914 -56.8890 -56.8862 -56.8838 -56.8817
   -56.8814 -56.8780 -56.8749 -56.8720 -56.8711 -56.8705 -56.8672 -56.8655
   -56.8628 -56.8583 -56.8569 -56.8558 -56.8542 -56.8528 -56.8494 -56.8479
   -56.8458 -56.8430 -56.8429 -56.8416 -56.8394 -56.8382 -56.8362 -56.8337
   -56.8313 -56.8296 -56.8271 -56.8236 -56.8214 -56.8184 -56.8153 -56.8148
   -56.8134 -56.8104 -56.8080 -56.8052 -56.8042 -56.8024 -56.7991 -56.7964
   -56.7956 -56.7889 -56.7879 -56.7875 -56.7860 -56.7842 -56.7820 -56.7815
   -56.7808 -56.7787 -56.7761 -56.7753 -56.7730 -56.7706 -56.7663 -56.7656
   -56.7615 -56.7604 -56.7578 -56.7551 -56.7508 -56.7484 -56.7465 -56.7416
   -56.7375 -56.7369 -56.7344 -56.7301 -56.7291 -56.7263 -56.7257 -56.7243
   -56.7224 -56.7210 -56.7179 -56.7164 -56.7158 -56.7127 -56.7122 -56.7060
   -56.7042 -56.7017 -56.6996 -56.6943 -56.6896 -56.6873 -56.6197 -56.6186
   -18.4120 -10.3993 -10.2401  -9.6294  -9.4083  -9.1975  -9.1191  -8.9851
    -8.9639  -8.6333  -8.5329  -8.2153  -8.1787  -8.0091  -7.9487  -7.7436
    -7.7103  -7.6500  -7.6318  -7.5807  -7.5431  -7.4718  -7.4245  -7.4019
    -7.3738  -7.2882  -7.2710  -7.2269  -7.2238  -7.2149  -7.2026  -7.1892
    -7.1807  -7.1611  -7.1562  -7.1245  -7.1189  -7.0534  -7.0120  -6.9943
    -6.9218  -6.8945  -6.8626  -6.8508  -6.8449  -6.8162  -6.8130  -6.7602
    -6.7588  -6.7523  -6.7445  -6.7435  -6.7318  -6.7256  -6.7217  -6.6973
    -6.6743  -6.6292  -6.6211  -6.5926  -6.5754  -6.5703  -6.5287  -6.5093
    -6.4946  -6.4743  -6.4363  -6.4279  -6.3873  -6.3656  -6.3454  -6.3335
    -6.3142  -6.2328  -6.2003  -6.1396  -6.1326  -6.1059  -6.1012  -6.0967
    -6.0924  -6.0809  -6.0566  -6.0525  -6.0451  -6.0372  -6.0275  -6.0237
    -6.0157  -6.0082  -5.9962  -5.9925  -5.9869  -5.9823  -5.9713  -5.9527
    -5.9378  -5.9188  -5.8994  -5.8906  -5.8867  -5.8613  -5.8481  -5.8434
    -5.8330  -5.8207  -5.8116  -5.8077  -5.8006  -5.7985  -5.7931  -5.7798
    -5.7744  -5.7633  -5.7576  -5.7440  -5.7393  -5.7311  -5.7122  -5.7010
    -5.6848  -5.6154  -5.5909  -5.5564  -5.5314  -5.5073  -5.4989  -5.4927
    -5.4805  -5.4733  -5.4725  -5.4650  -5.4609  -5.4547  -5.4409  -5.4369
    -5.4325  -5.4271  -5.4254  -5.4219  -5.4202  -5.4124  -5.3978  -5.3779
    -5.3735  -5.3545  -5.3386  -5.3375  -5.3147  -5.3108  -5.2906  -5.2828
    -5.2683  -5.2663  -5.2592  -5.2339  -5.2294  -5.2085  -5.2061  -5.2004
    -5.1724  -5.1659  -5.1436  -5.1074  -5.1049  -5.0686  -5.0396  -5.0239
    -4.9901  -4.9788  -4.9724  -4.9627  -4.9516  -4.9431  -4.9416  -4.9251
    -4.9186  -4.8260  -4.8186  -4.7393  -4.7184  -4.7112  -4.7020  -4.6775
    -4.6556  -4.6524  -4.6290  -4.6227  -4.5928  -4.5916  -4.5442  -4.5386
    -4.5372  -4.5172  -4.5102  -4.5013  -4.4984  -4.4894  -4.4810  -4.4528
    -4.4470  -4.4442  -4.4311  -4.4267  -4.3772  -4.3474  -4.3419  -4.3382
    -4.3190  -4.3096  -4.3037  -4.2966  -4.2775  -4.2690  -4.2577  -4.2539
    -4.2471  -4.2243  -4.1987  -4.1914  -4.1870  -4.1783  -4.1737  -4.1723
    -4.1557  -4.1533  -4.1517  -4.1481  -4.1463  -4.1376  -4.1348  -4.1309
    -4.1290  -4.1193  -4.1108  -4.0875  -4.0780  -4.0418  -4.0306  -4.0175
    -4.0064  -4.0015  -3.9997  -3.9968  -3.9927  -3.9824  -3.9768  -3.9733
    -3.9697  -3.9514  -3.9503  -3.9419  -3.9392  -3.9324  -3.9257  -3.9228
    -3.9154  -3.9117  -3.9058  -3.8963  -3.8864  -3.8845  -3.8781  -3.8738
    -3.8563  -3.8385  -3.8322  -3.8266  -3.8225  -3.8151  -3.7996  -3.7942
    -3.7787  -3.7758  -3.7648  -3.7615  -3.7559  -3.7478  -3.7433  -3.7289
    -3.7192  -3.7151  -3.7121  -3.7103  -3.7064  -3.6997  -3.6959  -3.6905
    -3.6864  -3.6833  -3.6682  -3.6613  -3.6552  -3.6486  -3.6407  -3.6398
    -3.6163  -3.5965  -3.5797  -3.5732  -3.5028  -3.4994  -3.4971  -3.4722
    -3.4582  -3.4384  -3.4150  -3.3912  -3.3767  -3.3289  -3.3097  -3.3014
    -3.2907  -3.2821  -3.2748  -3.2677  -3.2489  -3.2133  -3.2098  -3.1979
    -3.1926  -3.1760  -3.1518  -3.1465  -3.1347  -3.1221  -3.0557  -3.0497
    -3.0294  -3.0148  -3.0118  -2.9896  -2.9806  -2.9499  -2.9344  -2.9261
    -2.9201  -2.9158  -2.8904  -2.8778  -2.8703  -2.8647  -2.6936  -2.6243
    -2.5711  -2.5091  -2.1980  -2.1660  -1.9489  -1.9070  -1.8725  -1.8198
    -1.7795  -1.4695  -1.2650  -1.2178  -1.1327  -1.1214  -1.0728  -1.0428
    -0.9937  -0.9772

          k = 0.2500-0.0884 0.0000 (128371 PWs)   bands (ev):

   -91.0584 -91.0041 -90.9979 -90.9717 -90.9711 -90.9666 -90.9621 -90.9617
   -90.9545 -90.9542 -90.9521 -90.9478 -90.9476 -90.9450 -90.9431 -90.9423
   -90.9392 -90.9366 -90.9364 -90.9354 -90.9349 -90.9332 -90.9284 -90.9266
   -90.9236 -90.9216 -90.9205 -90.9200 -90.9151 -90.9096 -90.8940 -90.8920
   -90.8852 -90.8826 -90.8712 -90.8368 -90.8311 -90.8248 -90.8226 -90.8179
   -90.8135 -90.8125 -90.8084 -90.8047 -90.8013 -90.8002 -90.7992 -90.7968
   -90.7958 -90.7949 -90.7925 -90.7905 -90.7888 -90.7879 -90.7852 -90.7835
   -90.7806 -90.7781 -90.7738 -90.7716 -90.7656 -90.7588 -90.7538 -90.7517
   -57.2357 -57.1865 -57.1710 -57.1668 -57.1635 -57.1616 -57.1589 -57.1560
   -57.1542 -57.1512 -57.1462 -57.1446 -57.1439 -57.1432 -57.1411 -57.1389
   -57.1369 -57.1354 -57.1343 -57.1302 -57.1296 -57.1279 -57.1268 -57.1224
   -57.1199 -57.1174 -57.1150 -57.1134 -57.1112 -57.1079 -57.1062 -57.1020
   -57.1003 -57.0990 -57.0890 -57.0857 -57.0783 -57.0753 -57.0735 -57.0683
   -57.0644 -57.0616 -57.0603 -57.0550 -57.0510 -57.0469 -57.0449 -57.0409
   -57.0389 -57.0275 -57.0255 -57.0183 -57.0157 -57.0086 -57.0066 -57.0017
   -56.9983 -56.9967 -56.9935 -56.9892 -56.9887 -56.9868 -56.9806 -56.9797
   -56.9766 -56.9747 -56.9726 -56.9712 -56.9699 -56.9688 -56.9673 -56.9664
   -56.9633 -56.9617 -56.9583 -56.9551 -56.9521 -56.9466 -56.9456 -56.9420
   -56.9405 -56.9373 -56.9363 -56.9304 -56.9282 -56.9226 -56.9219 -56.9211
   -56.9190 -56.9166 -56.9142 -56.9091 -56.9074 -56.9049 -56.9024 -56.9010
   -56.8992 -56.8955 -56.8945 -56.8932 -56.8905 -56.8867 -56.8855 -56.8835
   -56.8826 -56.8806 -56.8779 -56.8772 -56.8749 -56.8735 -56.8725 -56.8700
   -56.8688 -56.8668 -56.8642 -56.8619 -56.8589 -56.8571 -56.8550 -56.8518
   -56.8501 -56.8460 -56.8447 -56.8405 -56.8397 -56.8367 -56.8352 -56.8333
   -56.8319 -56.8300 -56.8268 -56.8234 -56.8226 -56.8214 -56.8181 -56.8158
   -56.8130 -56.8102 -56.8076 -56.8049 -56.8030 -56.8009 -56.7994 -56.7972
   -56.7959 -56.7943 -56.7924 -56.7892 -56.7871 -56.7850 -56.7823 -56.7806
   -56.7804 -56.7757 -56.7752 -56.7741 -56.7725 -56.7724 -56.7703 -56.7681
   -56.7643 -56.7619 -56.7604 -56.7583 -56.7564 -56.7512 -56.7489 -56.7439
   -56.7398 -56.7390 -56.7376 -56.7320 -56.7295 -56.7279 -56.7257 -56.7228
   -56.7195 -56.7167 -56.7128 -56.7111 -56.7090 -56.7069 -56.7045 -56.7027
   -56.7003 -56.6976 -56.6966 -56.6933 -56.6892 -56.6866 -56.6192 -56.6182
   -18.4121 -10.6404  -9.8850  -9.5883  -9.4109  -9.2352  -9.1195  -9.0276
    -8.8461  -8.6803  -8.5033  -8.3666  -8.2469  -8.0935  -7.9913  -7.9229
    -7.7780  -7.7209  -7.6738  -7.5786  -7.5063  -7.4578  -7.4159  -7.3648
    -7.3552  -7.3331  -7.3109  -7.2958  -7.2502  -7.2104  -7.1303  -7.0689
    -7.0389  -7.0161  -6.9916  -6.9860  -6.9726  -6.9683  -6.9469  -6.9393
    -6.9245  -6.8979  -6.8934  -6.8762  -6.8660  -6.8405  -6.8269  -6.8129
    -6.7914  -6.7850  -6.7711  -6.7620  -6.7539  -6.7170  -6.7000  -6.6934
    -6.6893  -6.6815  -6.6552  -6.6164  -6.5637  -6.5548  -6.5204  -6.5084
    -6.4658  -6.4506  -6.4090  -6.3882  -6.3572  -6.3227  -6.2905  -6.2454
    -6.2270  -6.2154  -6.1930  -6.1663  -6.1282  -6.1213  -6.1065  -6.1018
    -6.0919  -6.0816  -6.0765  -6.0650  -6.0580  -6.0511  -6.0417  -6.0285
    -6.0206  -6.0119  -6.0038  -6.0011  -5.9865  -5.9827  -5.9739  -5.9695
    -5.9623  -5.9565  -5.9542  -5.9442  -5.9419  -5.9186  -5.9130  -5.8863
    -5.8649  -5.8617  -5.8559  -5.8447  -5.8400  -5.8298  -5.8131  -5.8030
    -5.7902  -5.7783  -5.7730  -5.7215  -5.6946  -5.6801  -5.6716  -5.6592
    -5.6364  -5.6198  -5.6054  -5.5842  -5.5667  -5.5415  -5.5146  -5.5061
    -5.5001  -5.4847  -5.4760  -5.4705  -5.4675  -5.4515  -5.4456  -5.4404
    -5.4215  -5.4134  -5.4025  -5.3920  -5.3864  -5.3795  -5.3671  -5.3535
    -5.3387  -5.3229  -5.2913  -5.2760  -5.2647  -5.2356  -5.2300  -5.2266
    -5.2165  -5.1998  -5.1929  -5.1873  -5.1847  -5.1749  -5.1673  -5.1583
    -5.1488  -5.1435  -5.1301  -5.1227  -5.1013  -5.0955  -5.0591  -5.0431
    -5.0284  -5.0171  -5.0120  -5.0002  -4.9785  -4.9673  -4.9438  -4.9323
    -4.9235  -4.9141  -4.9010  -4.8711  -4.8612  -4.8442  -4.8109  -4.8035
    -4.7895  -4.7509  -4.7347  -4.7207  -4.6763  -4.5809  -4.5670  -4.5322
    -4.5213  -4.5097  -4.4880  -4.4642  -4.4526  -4.4459  -4.4275  -4.4052
    -4.3920  -4.3811  -4.3687  -4.3640  -4.3515  -4.3466  -4.3360  -4.3313
    -4.3187  -4.2987  -4.2947  -4.2821  -4.2664  -4.2605  -4.2512  -4.2256
    -4.2185  -4.2130  -4.2063  -4.1897  -4.1826  -4.1687  -4.1620  -4.1603
    -4.1555  -4.1480  -4.1337  -4.1099  -4.1033  -4.0971  -4.0925  -4.0754
    -4.0745  -4.0681  -4.0623  -4.0547  -4.0495  -4.0435  -4.0414  -4.0336
    -4.0301  -4.0200  -4.0104  -4.0077  -3.9966  -3.9882  -3.9827  -3.9765
    -3.9706  -3.9689  -3.9583  -3.9526  -3.9472  -3.9422  -3.9399  -3.9317
    -3.9256  -3.9211  -3.9132  -3.9077  -3.8963  -3.8897  -3.8880  -3.8827
    -3.8750  -3.8715  -3.8671  -3.8647  -3.8619  -3.8532  -3.8509  -3.8385
    -3.8343  -3.8311  -3.8213  -3.8097  -3.7990  -3.7948  -3.7789  -3.7766
    -3.7647  -3.7393  -3.7313  -3.7248  -3.7181  -3.7124  -3.7051  -3.6907
    -3.6866  -3.6760  -3.6685  -3.6631  -3.6553  -3.6520  -3.6348  -3.6195
    -3.6021  -3.5984  -3.5945  -3.5868  -3.5800  -3.5671  -3.5602  -3.5581
    -3.5460  -3.5386  -3.5185  -3.5045  -3.4864  -3.4512  -3.4392  -3.4107
    -3.3976  -3.3808  -3.2817  -3.2364  -3.2157  -3.1909  -3.1615  -3.1418
    -3.1308  -3.1078  -3.0829  -3.0527  -3.0392  -3.0082  -3.0002  -2.9909
    -2.9801  -2.9616  -2.9476  -2.9391  -2.9229  -2.9173  -2.8908  -2.8761
    -2.8589  -2.8121  -2.7893  -2.7665  -2.7351  -2.6815  -2.5874  -2.3921
    -2.3197  -2.2431  -2.1885  -2.1381  -2.0179  -1.8917  -1.8139  -1.7509
    -1.5569  -1.5252  -1.4955  -1.4707  -1.3567  -1.2653  -1.1438  -1.0623
    -1.0102  -0.9343

          k = 0.2500 0.1768 0.0000 (128340 PWs)   bands (ev):

   -91.0584 -91.0041 -90.9979 -90.9710 -90.9703 -90.9667 -90.9635 -90.9602
   -90.9583 -90.9536 -90.9523 -90.9486 -90.9466 -90.9464 -90.9416 -90.9401
   -90.9394 -90.9375 -90.9355 -90.9347 -90.9344 -90.9315 -90.9294 -90.9285
   -90.9258 -90.9213 -90.9210 -90.9172 -90.9147 -90.9107 -90.8940 -90.8920
   -90.8852 -90.8825 -90.8712 -90.8366 -90.8288 -90.8281 -90.8231 -90.8196
   -90.8117 -90.8103 -90.8073 -90.8047 -90.8018 -90.8005 -90.8002 -90.7974
   -90.7960 -90.7940 -90.7926 -90.7904 -90.7883 -90.7883 -90.7850 -90.7842
   -90.7808 -90.7798 -90.7723 -90.7705 -90.7656 -90.7590 -90.7539 -90.7519
   -57.2357 -57.1862 -57.1693 -57.1665 -57.1644 -57.1623 -57.1581 -57.1561
   -57.1526 -57.1506 -57.1490 -57.1444 -57.1432 -57.1411 -57.1402 -57.1388
   -57.1370 -57.1366 -57.1334 -57.1301 -57.1290 -57.1284 -57.1237 -57.1222
   -57.1219 -57.1165 -57.1152 -57.1150 -57.1095 -57.1061 -57.1054 -57.1011
   -57.0998 -57.0959 -57.0923 -57.0806 -57.0734 -57.0730 -57.0715 -57.0670
   -57.0637 -57.0604 -57.0493 -57.0483 -57.0482 -57.0456 -57.0455 -57.0435
   -57.0340 -57.0308 -57.0265 -57.0251 -57.0149 -57.0093 -57.0082 -57.0051
   -57.0037 -57.0007 -56.9963 -56.9936 -56.9905 -56.9904 -56.9894 -56.9868
   -56.9847 -56.9797 -56.9772 -56.9738 -56.9737 -56.9729 -56.9703 -56.9688
   -56.9659 -56.9632 -56.9609 -56.9566 -56.9566 -56.9487 -56.9486 -56.9432
   -56.9424 -56.9402 -56.9361 -56.9322 -56.9293 -56.9252 -56.9238 -56.9224
   -56.9202 -56.9181 -56.9156 -56.9130 -56.9083 -56.9071 -56.9027 -56.9005
   -56.8967 -56.8967 -56.8892 -56.8883 -56.8852 -56.8838 -56.8809 -56.8796
   -56.8783 -56.8775 -56.8770 -56.8750 -56.8737 -56.8736 -56.8717 -56.8694
   -56.8657 -56.8653 -56.8635 -56.8604 -56.8591 -56.8564 -56.8536 -56.8516
   -56.8507 -56.8431 -56.8429 -56.8398 -56.8390 -56.8390 -56.8364 -56.8324
   -56.8322 -56.8276 -56.8233 -56.8205 -56.8169 -56.8165 -56.8117 -56.8107
   -56.8078 -56.8064 -56.8032 -56.8031 -56.8006 -56.7999 -56.7989 -56.7983
   -56.7938 -56.7934 -56.7890 -56.7887 -56.7871 -56.7860 -56.7827 -56.7795
   -56.7794 -56.7770 -56.7744 -56.7741 -56.7717 -56.7706 -56.7705 -56.7673
   -56.7669 -56.7628 -56.7578 -56.7547 -56.7529 -56.7504 -56.7455 -56.7440
   -56.7427 -56.7360 -56.7355 -56.7329 -56.7311 -56.7291 -56.7257 -56.7243
   -56.7202 -56.7188 -56.7157 -56.7137 -56.7107 -56.7100 -56.7081 -56.7058
   -56.7022 -56.7017 -56.7001 -56.6988 -56.6912 -56.6886 -56.6196 -56.6186
   -18.4120 -10.6002  -9.7389  -9.5782  -9.5310  -9.3548  -9.1768  -9.1423
    -8.9043  -8.5904  -8.4616  -8.3018  -8.2159  -8.1753  -8.0276  -7.8677
    -7.7567  -7.6659  -7.5888  -7.4965  -7.4062  -7.4043  -7.3651  -7.3629
    -7.3261  -7.2927  -7.2790  -7.2784  -7.2427  -7.1751  -7.1732  -7.0917
    -7.0649  -7.0539  -7.0395  -7.0217  -6.9696  -6.9628  -6.9566  -6.9310
    -6.9238  -6.9126  -6.8967  -6.8910  -6.8868  -6.8863  -6.8766  -6.8746
    -6.8396  -6.8351  -6.8027  -6.7955  -6.7623  -6.7605  -6.7224  -6.7014
    -6.6982  -6.6358  -6.6251  -6.5662  -6.5418  -6.5328  -6.5107  -6.4808
    -6.4636  -6.4362  -6.4106  -6.4008  -6.3836  -6.3335  -6.3040  -6.2901
    -6.2480  -6.2056  -6.1808  -6.1625  -6.1448  -6.1346  -6.1320  -6.1131
    -6.1122  -6.1094  -6.1008  -6.0944  -6.0869  -6.0816  -6.0766  -6.0653
    -6.0624  -6.0519  -6.0304  -6.0167  -5.9792  -5.9685  -5.9650  -5.9585
    -5.9335  -5.9306  -5.9114  -5.9028  -5.8887  -5.8800  -5.8777  -5.8673
    -5.8499  -5.8463  -5.8241  -5.8193  -5.7998  -5.7803  -5.7631  -5.7510
    -5.7438  -5.7391  -5.7148  -5.7142  -5.7018  -5.6909  -5.6790  -5.6760
    -5.6682  -5.6644  -5.6630  -5.6529  -5.6188  -5.6007  -5.5834  -5.5710
    -5.5441  -5.5099  -5.5088  -5.4989  -5.4855  -5.4840  -5.4741  -5.4568
    -5.4390  -5.4131  -5.3888  -5.3811  -5.3768  -5.3746  -5.3571  -5.3535
    -5.3412  -5.3336  -5.3120  -5.2974  -5.2859  -5.2695  -5.2449  -5.2256
    -5.2143  -5.2053  -5.2023  -5.1981  -5.1692  -5.1671  -5.1599  -5.1518
    -5.1303  -5.1107  -5.1072  -5.0993  -5.0988  -5.0846  -5.0750  -5.0717
    -5.0556  -5.0501  -5.0439  -5.0342  -5.0282  -5.0203  -5.0184  -4.9804
    -4.9713  -4.9669  -4.9403  -4.8894  -4.8394  -4.8024  -4.7650  -4.7313
    -4.7035  -4.6871  -4.6717  -4.6169  -4.6104  -4.5714  -4.5566  -4.5528
    -4.5377  -4.5125  -4.4934  -4.4835  -4.4674  -4.4524  -4.4156  -4.4129
    -4.3991  -4.3920  -4.3758  -4.3719  -4.3663  -4.3540  -4.3415  -4.3241
    -4.3026  -4.2976  -4.2904  -4.2881  -4.2635  -4.2587  -4.2565  -4.2486
    -4.2394  -4.2261  -4.2152  -4.2093  -4.1760  -4.1698  -4.1618  -4.1511
    -4.1414  -4.1273  -4.1203  -4.1109  -4.1081  -4.1034  -4.1022  -4.0813
    -4.0703  -4.0602  -4.0600  -4.0558  -4.0448  -4.0306  -4.0305  -4.0226
    -4.0224  -4.0128  -4.0110  -4.0034  -4.0016  -3.9766  -3.9595  -3.9574
    -3.9517  -3.9396  -3.9390  -3.9325  -3.9306  -3.9113  -3.9102  -3.9021
    -3.8800  -3.8786  -3.8775  -3.8693  -3.8690  -3.8586  -3.8462  -3.8370
    -3.8359  -3.8344  -3.8280  -3.8159  -3.8145  -3.8111  -3.8001  -3.7924
    -3.7897  -3.7869  -3.7809  -3.7775  -3.7756  -3.7691  -3.7661  -3.7399
    -3.7376  -3.7306  -3.7293  -3.7213  -3.7192  -3.7066  -3.7011  -3.6957
    -3.6936  -3.6902  -3.6807  -3.6670  -3.6623  -3.6395  -3.6394  -3.6175
    -3.6031  -3.6009  -3.5859  -3.5638  -3.5541  -3.5471  -3.5391  -3.5187
    -3.5150  -3.5058  -3.5043  -3.4950  -3.4345  -3.4334  -3.3940  -3.3891
    -3.3856  -3.3844  -3.2765  -3.2582  -3.1874  -3.1735  -3.1340  -3.1069
    -3.1013  -3.0573  -3.0490  -3.0376  -3.0237  -3.0151  -2.9862  -2.9770
    -2.9592  -2.9570  -2.9479  -2.9390  -2.9342  -2.8916  -2.8786  -2.8418
    -2.7982  -2.7624  -2.7162  -2.7091  -2.6610  -2.6504  -2.5387  -2.5185
    -2.4214  -2.3517  -2.3032  -2.1130  -2.0113  -1.9651  -1.9279  -1.9033
    -1.8439  -1.8356  -1.7808  -1.7758  -1.6656  -1.5489  -1.3631  -1.2828
    -1.1805  -1.1018

          k = 0.2500-0.6187 0.0000 (128424 PWs)   bands (ev):

   -91.0584 -91.0041 -90.9979 -90.9696 -90.9690 -90.9674 -90.9639 -90.9637
   -90.9574 -90.9539 -90.9533 -90.9493 -90.9455 -90.9437 -90.9412 -90.9410
   -90.9391 -90.9373 -90.9365 -90.9350 -90.9331 -90.9326 -90.9319 -90.9264
   -90.9245 -90.9218 -90.9208 -90.9176 -90.9138 -90.9117 -90.8939 -90.8921
   -90.8852 -90.8825 -90.8712 -90.8351 -90.8324 -90.8261 -90.8238 -90.8193
   -90.8117 -90.8103 -90.8065 -90.8035 -90.8025 -90.8013 -90.8007 -90.7982
   -90.7965 -90.7938 -90.7916 -90.7901 -90.7886 -90.7865 -90.7859 -90.7835
   -90.7816 -90.7808 -90.7736 -90.7700 -90.7633 -90.7601 -90.7537 -90.7524
   -57.2355 -57.1815 -57.1734 -57.1711 -57.1618 -57.1606 -57.1582 -57.1559
   -57.1547 -57.1499 -57.1477 -57.1452 -57.1441 -57.1402 -57.1389 -57.1385
   -57.1363 -57.1342 -57.1324 -57.1305 -57.1276 -57.1272 -57.1256 -57.1231
   -57.1191 -57.1166 -57.1145 -57.1116 -57.1096 -57.1070 -57.1042 -57.1025
   -57.1007 -57.0990 -57.0873 -57.0749 -57.0669 -57.0653 -57.0627 -57.0614
   -57.0606 -57.0595 -57.0587 -57.0528 -57.0505 -57.0453 -57.0376 -57.0363
   -57.0333 -57.0299 -57.0271 -57.0232 -57.0207 -57.0177 -57.0174 -57.0128
   -57.0101 -57.0074 -57.0038 -57.0016 -56.9954 -56.9931 -56.9890 -56.9862
   -56.9844 -56.9783 -56.9773 -56.9768 -56.9741 -56.9718 -56.9708 -56.9687
   -56.9639 -56.9617 -56.9587 -56.9570 -56.9545 -56.9527 -56.9500 -56.9479
   -56.9464 -56.9450 -56.9413 -56.9397 -56.9361 -56.9339 -56.9314 -56.9284
   -56.9252 -56.9230 -56.9211 -56.9182 -56.9128 -56.9072 -56.9033 -56.8999
   -56.8959 -56.8901 -56.8873 -56.8861 -56.8849 -56.8833 -56.8817 -56.8788
   -56.8776 -56.8757 -56.8747 -56.8707 -56.8686 -56.8672 -56.8650 -56.8633
   -56.8618 -56.8592 -56.8580 -56.8564 -56.8536 -56.8523 -56.8489 -56.8480
   -56.8459 -56.8432 -56.8416 -56.8388 -56.8362 -56.8338 -56.8317 -56.8292
   -56.8275 -56.8272 -56.8254 -56.8223 -56.8203 -56.8176 -56.8150 -56.8108
   -56.8101 -56.8080 -56.8047 -56.8040 -56.8006 -56.7988 -56.7971 -56.7953
   -56.7935 -56.7903 -56.7897 -56.7871 -56.7859 -56.7835 -56.7818 -56.7799
   -56.7774 -56.7760 -56.7736 -56.7731 -56.7722 -56.7710 -56.7699 -56.7653
   -56.7617 -56.7549 -56.7544 -56.7516 -56.7504 -56.7480 -56.7453 -56.7417
   -56.7381 -56.7358 -56.7349 -56.7325 -56.7284 -56.7271 -56.7262 -56.7250
   -56.7228 -56.7214 -56.7189 -56.7181 -56.7167 -56.7159 -56.7148 -56.7112
   -56.7094 -56.7069 -56.7040 -56.6991 -56.6922 -56.6902 -56.6202 -56.6190
   -18.4120 -10.3673 -10.0796  -9.8037  -9.4825  -9.2946  -9.2295  -8.9286
    -8.8186  -8.6297  -8.5467  -8.3282  -8.2777  -7.8327  -7.7557  -7.7037
    -7.6640  -7.6388  -7.5929  -7.5615  -7.5099  -7.4375  -7.3804  -7.3702
    -7.3474  -7.3359  -7.3011  -7.2573  -7.2323  -7.2074  -7.2001  -7.1955
    -7.1738  -7.1461  -7.1255  -7.0915  -7.0800  -7.0551  -7.0375  -7.0272
    -7.0037  -6.9999  -6.9567  -6.9454  -6.9203  -6.9013  -6.8424  -6.8300
    -6.8110  -6.7876  -6.7500  -6.7234  -6.7102  -6.6819  -6.6509  -6.6375
    -6.6033  -6.5943  -6.5837  -6.5681  -6.5582  -6.5477  -6.5138  -6.5053
    -6.4725  -6.4685  -6.4311  -6.4117  -6.4039  -6.3751  -6.3466  -6.3296
    -6.3077  -6.2695  -6.2522  -6.2214  -6.1907  -6.1462  -6.1309  -6.1216
    -6.1164  -6.1051  -6.0944  -6.0902  -6.0829  -6.0516  -6.0366  -6.0138
    -6.0003  -5.9907  -5.9717  -5.9564  -5.9440  -5.9269  -5.9188  -5.9149
    -5.9076  -5.8998  -5.8878  -5.8792  -5.8741  -5.8656  -5.8604  -5.8314
    -5.8255  -5.8164  -5.8103  -5.7955  -5.7853  -5.7756  -5.7684  -5.7565
    -5.7517  -5.7398  -5.7246  -5.7162  -5.7082  -5.6786  -5.6714  -5.6619
    -5.6530  -5.6441  -5.6383  -5.6312  -5.6268  -5.6139  -5.6042  -5.5902
    -5.5821  -5.5769  -5.5691  -5.5547  -5.5469  -5.5288  -5.5171  -5.5014
    -5.4895  -5.4790  -5.4515  -5.4111  -5.3791  -5.3597  -5.3459  -5.3406
    -5.3192  -5.3155  -5.3122  -5.3086  -5.2887  -5.2801  -5.2703  -5.2640
    -5.2572  -5.2509  -5.2404  -5.2310  -5.2245  -5.2157  -5.1997  -5.1899
    -5.1815  -5.1743  -5.1577  -5.1089  -5.0912  -5.0821  -5.0653  -5.0287
    -5.0267  -4.9988  -4.9858  -4.9511  -4.9426  -4.9203  -4.9045  -4.8688
    -4.8569  -4.8276  -4.7952  -4.7606  -4.7469  -4.7271  -4.7175  -4.6972
    -4.6658  -4.6506  -4.6447  -4.6148  -4.5986  -4.5826  -4.5747  -4.5500
    -4.5416  -4.5371  -4.5260  -4.5160  -4.4986  -4.4886  -4.4629  -4.4433
    -4.4274  -4.4161  -4.4042  -4.3995  -4.3742  -4.3589  -4.3470  -4.3296
    -4.3181  -4.3072  -4.3007  -4.2890  -4.2830  -4.2722  -4.2601  -4.2454
    -4.2391  -4.2294  -4.2260  -4.1963  -4.1891  -4.1746  -4.1687  -4.1656
    -4.1586  -4.1461  -4.1380  -4.1334  -4.1302  -4.1256  -4.1171  -4.1149
    -4.1108  -4.0936  -4.0852  -4.0823  -4.0616  -4.0513  -4.0391  -4.0213
    -4.0186  -4.0006  -3.9989  -3.9858  -3.9815  -3.9734  -3.9649  -3.9616
    -3.9547  -3.9444  -3.9380  -3.9296  -3.9275  -3.9105  -3.9090  -3.8950
    -3.8903  -3.8753  -3.8698  -3.8669  -3.8494  -3.8438  -3.8373  -3.8341
    -3.8262  -3.8199  -3.8162  -3.8110  -3.8071  -3.8036  -3.7972  -3.7756
    -3.7694  -3.7641  -3.7623  -3.7541  -3.7522  -3.7435  -3.7390  -3.7331
    -3.7292  -3.7254  -3.7141  -3.7115  -3.7060  -3.6916  -3.6748  -3.6707
    -3.6585  -3.6506  -3.6366  -3.6272  -3.6139  -3.6074  -3.6047  -3.5885
    -3.5490  -3.5333  -3.5225  -3.5119  -3.4942  -3.4846  -3.4791  -3.4389
    -3.4095  -3.3977  -3.3780  -3.3723  -3.3280  -3.3186  -3.3126  -3.2999
    -3.2931  -3.2849  -3.2467  -3.2404  -3.2232  -3.2076  -3.1962  -3.1763
    -3.1514  -3.1387  -3.1180  -3.1014  -3.0835  -3.0689  -3.0598  -3.0396
    -3.0203  -3.0116  -2.9940  -2.9887  -2.9781  -2.9682  -2.9437  -2.9228
    -2.9091  -2.8954  -2.8764  -2.8597  -2.7793  -2.7661  -2.7493  -2.6441
    -2.5384  -2.4974  -2.3277  -2.2651  -2.1806  -2.1584  -2.0642  -2.0265
    -1.8762  -1.7723  -1.6564  -1.5914  -1.4492  -1.4211  -1.2852  -1.2108
    -1.1493  -0.9746

          k = 0.2500-0.3536 0.0000 (128397 PWs)   bands (ev):

   -91.0584 -91.0041 -90.9979 -90.9707 -90.9702 -90.9670 -90.9631 -90.9625
   -90.9575 -90.9542 -90.9497 -90.9483 -90.9475 -90.9448 -90.9414 -90.9399
   -90.9393 -90.9390 -90.9374 -90.9357 -90.9350 -90.9322 -90.9300 -90.9248
   -90.9230 -90.9219 -90.9205 -90.9197 -90.9153 -90.9101 -90.8939 -90.8921
   -90.8852 -90.8826 -90.8712 -90.8354 -90.8331 -90.8252 -90.8220 -90.8182
   -90.8134 -90.8115 -90.8085 -90.8044 -90.8010 -90.8007 -90.7997 -90.7977
   -90.7971 -90.7934 -90.7916 -90.7905 -90.7888 -90.7877 -90.7854 -90.7821
   -90.7808 -90.7793 -90.7762 -90.7700 -90.7640 -90.7595 -90.7536 -90.7522
   -57.2356 -57.1818 -57.1745 -57.1707 -57.1623 -57.1609 -57.1585 -57.1557
   -57.1543 -57.1502 -57.1486 -57.1445 -57.1432 -57.1424 -57.1406 -57.1377
   -57.1360 -57.1346 -57.1314 -57.1312 -57.1292 -57.1283 -57.1261 -57.1230
   -57.1178 -57.1163 -57.1139 -57.1132 -57.1102 -57.1090 -57.1058 -57.1033
   -57.1003 -57.0993 -57.0857 -57.0802 -57.0749 -57.0727 -57.0646 -57.0631
   -57.0612 -57.0603 -57.0572 -57.0556 -57.0531 -57.0497 -57.0468 -57.0435
   -57.0398 -57.0293 -57.0228 -57.0206 -57.0154 -57.0108 -57.0097 -57.0045
   -57.0012 -56.9993 -56.9910 -56.9899 -56.9885 -56.9863 -56.9850 -56.9831
   -56.9827 -56.9806 -56.9779 -56.9759 -56.9721 -56.9715 -56.9708 -56.9691
   -56.9672 -56.9623 -56.9596 -56.9582 -56.9565 -56.9548 -56.9498 -56.9483
   -56.9466 -56.9390 -56.9366 -56.9338 -56.9307 -56.9286 -56.9270 -56.9263
   -56.9208 -56.9199 -56.9181 -56.9097 -56.9062 -56.9051 -56.9023 -56.8957
   -56.8939 -56.8938 -56.8927 -56.8900 -56.8879 -56.8855 -56.8840 -56.8825
[...]
    -1.7958  -1.7828  -1.7345  -1.7097  -1.6968  -1.6850  -1.6616  -1.6439
    -1.6349  -1.6279  -1.6141  -1.6061  -1.5835  -1.5757  -1.5657  -1.5465
    -1.5089  -1.5016  -1.4875  -1.4753  -1.4736  -1.4391  -1.4249  -1.3899
    -1.3846  -1.3704  -1.3694  -1.3539  -1.3352  -1.3180  -1.3072  -1.3012
    -1.2910  -1.2786  -1.2680  -1.2588  -1.2547  -1.2402  -1.2308  -1.2199
    -1.2048  -1.2018  -1.1861  -1.1679  -1.1583  -1.1440  -1.1266  -1.1249
    -1.1122  -1.1062  -1.0961  -1.0906  -1.0871  -1.0853  -1.0666  -1.0556
    -1.0395  -1.0333  -1.0256  -1.0241  -1.0184  -1.0015  -0.9930  -0.9840
    -0.9732  -0.9616  -0.9536  -0.9379  -0.9316  -0.9250  -0.9160  -0.9035
    -0.8913  -0.8875  -0.8765  -0.8714  -0.8697  -0.8654  -0.8509  -0.8482
    -0.8377  -0.8357  -0.8296  -0.8186  -0.8093  -0.8001  -0.7940  -0.7820
    -0.7655  -0.7556  -0.7484  -0.7457  -0.7380  -0.7335  -0.7278  -0.7189
    -0.7149  -0.7062  -0.6993  -0.6938  -0.6857  -0.6800  -0.6738  -0.6575
    -0.6511  -0.6343  -0.6264  -0.6205  -0.6142  -0.5969  -0.5693  -0.5610
    -0.5497  -0.5424  -0.5352  -0.5295  -0.5203  -0.5099  -0.5058  -0.4916
    -0.4851  -0.4502  -0.4387  -0.4349  -0.4158  -0.3989  -0.3953  -0.3673
    -0.3451  -0.3173  -0.2664  -0.2448  -0.2020  -0.1467  -0.0644  -0.0441
     0.0605   0.1036   0.1320   0.1691   0.2413   0.3381   0.3928   0.4292
     0.4738   0.6110

          k =-0.5000-0.3536 0.0000 (128560 PWs)   bands (ev):

   -88.6213 -88.6209 -88.2008 -88.1997 -88.0880 -88.0872 -88.0609 -88.0396
   -88.0317 -87.9673 -87.9625 -87.9524 -87.9482 -87.9420 -87.9377 -87.9361
   -87.9269 -87.9256 -87.9227 -87.9164 -87.9156 -87.9132 -87.9107 -87.9093
   -87.9072 -87.9046 -87.9036 -87.8987 -87.8987 -87.8942 -87.8931 -87.8928
   -87.8919 -87.8915 -87.8888 -87.8815 -87.8777 -87.8766 -87.8719 -87.8719
   -87.8707 -87.8676 -87.8669 -87.8658 -87.8651 -87.8628 -87.8618 -87.8591
   -87.8530 -87.8471 -87.8463 -87.8443 -87.8441 -87.8422 -87.8419 -87.8412
   -87.8390 -87.8383 -87.8381 -87.8352 -87.8227 -87.8201 -87.8184 -87.8163
   -55.1620 -55.1539 -54.6240 -54.6122 -54.5496 -54.5396 -54.5085 -54.5035
   -54.3339 -54.3130 -54.2880 -54.2821 -54.2816 -54.2772 -54.2745 -54.2691
   -54.2467 -54.2460 -54.2337 -54.2321 -54.2303 -54.2233 -54.2128 -54.2122
   -54.2055 -54.2051 -54.2009 -54.1986 -54.1985 -54.1900 -54.1899 -54.1888
   -54.1863 -54.1857 -54.1798 -54.1746 -54.1735 -54.1674 -54.1644 -54.1635
   -54.1607 -54.1600 -54.1538 -54.1515 -54.1504 -54.1468 -54.1460 -54.1444
   -54.1435 -54.1391 -54.1347 -54.1307 -54.1265 -54.1215 -54.1208 -54.1206
   -54.1189 -54.1152 -54.1140 -54.1139 -54.1125 -54.1117 -54.1109 -54.1104
   -54.1075 -54.1058 -54.1052 -54.1036 -54.1020 -54.0973 -54.0941 -54.0918
   -54.0901 -54.0874 -54.0819 -54.0738 -54.0663 -54.0646 -54.0609 -54.0586
   -54.0524 -54.0518 -54.0455 -54.0443 -54.0414 -54.0409 -54.0256 -54.0239
   -54.0228 -54.0203 -54.0193 -54.0149 -54.0140 -54.0085 -54.0068 -54.0066
   -54.0042 -53.9998 -53.9965 -53.9956 -53.9933 -53.9911 -53.9886 -53.9863
   -53.9857 -53.9825 -53.9799 -53.9732 -53.9706 -53.9702 -53.9698 -53.9685
   -53.9660 -53.9648 -53.9636 -53.9614 -53.9610 -53.9609 -53.9580 -53.9557
   -53.9521 -53.9493 -53.9477 -53.9464 -53.9417 -53.9380 -53.9362 -53.9348
   -53.9333 -53.9327 -53.9290 -53.9274 -53.9269 -53.9255 -53.9210 -53.9189
   -53.9146 -53.9131 -53.9127 -53.9082 -53.9077 -53.9065 -53.9056 -53.9054
   -53.9039 -53.9037 -53.9022 -53.9005 -53.8983 -53.8976 -53.8973 -53.8966
   -53.8956 -53.8931 -53.8907 -53.8899 -53.8884 -53.8876 -53.8855 -53.8851
   -53.8799 -53.8797 -53.8791 -53.8766 -53.8737 -53.8736 -53.8723 -53.8714
   -53.8709 -53.8708 -53.8704 -53.8701 -53.8670 -53.8664 -53.8663 -53.8656
   -53.8626 -53.8625 -53.8590 -53.8573 -53.8563 -53.8541 -53.8531 -53.8509
   -53.8499 -53.8483 -53.8468 -53.8448 -53.8415 -53.8411 -53.8376 -53.8353
   -18.5271  -9.9920  -9.9441  -9.4431  -9.4345  -9.0116  -8.9682  -8.8249
    -8.4427  -8.3097  -7.9514  -7.8440  -7.7453  -7.3419  -7.2880  -7.2727
    -7.1301  -6.8971  -6.6602  -6.5042  -6.4889  -6.4720  -6.4594  -6.4521
    -6.3873  -6.3834  -6.3547  -6.3069  -6.2895  -6.2158  -6.0492  -5.9332
    -5.9288  -5.9211  -5.9042  -5.8535  -5.8108  -5.7308  -5.5574  -5.4719
    -5.4673  -5.4571  -5.4257  -5.4138  -5.4003  -5.3611  -5.3300  -5.2999
    -5.2867  -5.2335  -5.1722  -5.1672  -5.1433  -5.1291  -5.1204  -5.1147
    -4.9364  -4.9198  -4.8982  -4.8965  -4.8704  -4.8387  -4.8003  -4.6699
    -4.6250  -4.6088  -4.6038  -4.5612  -4.5548  -4.5518  -4.4816  -4.4413
    -4.4238  -4.4055  -4.3756  -4.3698  -4.3576  -4.3404  -4.3351  -4.3238
    -4.3113  -4.2998  -4.2564  -4.2336  -4.2331  -4.2274  -4.2247  -4.2196
    -4.1943  -4.1878  -4.1861  -4.1529  -4.1436  -4.0506  -4.0184  -4.0165
    -4.0107  -4.0078  -3.9378  -3.9139  -3.8894  -3.8800  -3.8753  -3.8694
    -3.8559  -3.8510  -3.8502  -3.8427  -3.8036  -3.7914  -3.7904  -3.7827
    -3.7827  -3.7746  -3.7739  -3.7588  -3.7571  -3.7502  -3.7419  -3.7397
    -3.7255  -3.7167  -3.7047  -3.7044  -3.6984  -3.6978  -3.6881  -3.6761
    -3.6674  -3.6554  -3.6370  -3.6345  -3.6300  -3.6284  -3.6239  -3.6175
    -3.6059  -3.5998  -3.5805  -3.5782  -3.5393  -3.4552  -3.4201  -3.4069
    -3.3913  -3.3831  -3.3796  -3.3654  -3.3640  -3.3499  -3.3450  -3.3320
    -3.3276  -3.2610  -3.2234  -3.2154  -3.1952  -3.1928  -3.1902  -3.1752
    -3.1535  -3.1491  -3.1350  -3.1207  -3.1175  -3.0906  -3.0529  -3.0248
    -3.0140  -2.9799  -2.9755  -2.9056  -2.8966  -2.8951  -2.8562  -2.8415
    -2.8165  -2.8052  -2.7962  -2.7657  -2.7552  -2.7494  -2.7416  -2.7279
    -2.7263  -2.7155  -2.6815  -2.6788  -2.6318  -2.5008  -2.4792  -2.4712
    -2.3700  -2.3335  -2.3302  -2.2196  -2.1949  -2.1598  -2.1444  -2.0928
    -2.0655  -2.0623  -2.0563  -2.0137  -1.9864  -1.9605  -1.9557  -1.9314
    -1.9186  -1.8954  -1.8556  -1.8287  -1.8128  -1.8125  -1.8116  -1.7839
    -1.7195  -1.7056  -1.7009  -1.6965  -1.6904  -1.6698  -1.6268  -1.6140
    -1.6123  -1.5780  -1.5694  -1.5672  -1.5620  -1.5565  -1.5428  -1.5313
    -1.5204  -1.5199  -1.4730  -1.4638  -1.4600  -1.4551  -1.4286  -1.4237
    -1.4098  -1.4011  -1.3899  -1.3729  -1.3273  -1.3210  -1.2738  -1.2709
    -1.2584  -1.2221  -1.2209  -1.2112  -1.2073  -1.1960  -1.1655  -1.1590
    -1.1563  -1.1396  -1.1385  -1.1317  -1.1040  -1.1017  -1.0970  -1.0830
    -1.0818  -1.0681  -1.0649  -1.0559  -1.0503  -1.0495  -1.0324  -1.0270
    -1.0265  -0.9988  -0.9947  -0.9917  -0.9844  -0.9745  -0.9680  -0.9637
    -0.9629  -0.9591  -0.9551  -0.9477  -0.9317  -0.9276  -0.9187  -0.9155
    -0.9083  -0.8893  -0.8865  -0.8844  -0.8777  -0.8744  -0.8656  -0.8638
    -0.8594  -0.8375  -0.8272  -0.8235  -0.8155  -0.7926  -0.7823  -0.7807
    -0.7609  -0.7600  -0.7563  -0.7453  -0.7443  -0.7336  -0.7292  -0.6978
    -0.6963  -0.6889  -0.6878  -0.6772  -0.6720  -0.6656  -0.6593  -0.6505
    -0.6477  -0.6475  -0.6418  -0.6388  -0.6339  -0.6290  -0.6118  -0.6009
    -0.6001  -0.5918  -0.5885  -0.5743  -0.5655  -0.5614  -0.5360  -0.5337
    -0.5164  -0.5117  -0.5101  -0.4853  -0.4813  -0.4715  -0.3522  -0.3164
    -0.2906  -0.2652  -0.2355  -0.2198  -0.0849  -0.0640  -0.0514  -0.0453
    -0.0387  -0.0139  -0.0041   0.0113   0.0270   0.0488   0.0561   0.2453
     0.2594   0.2763

     the Fermi energy is    -2.8050 ev

!    total energy              =  -21093.78603745 Ry
     Harris-Foulkes estimate   =  -21093.78603846 Ry
     estimated scf accuracy    <          9.2E-11 Ry

     The total energy is the sum of the following terms:

     one-electron contribution = -743754.88627259 Ry
     hartree contribution      =  371765.92688620 Ry
     xc contribution           =   -2234.32997992 Ry
     ewald contribution        =  358004.34742398 Ry
     Dispersion Correction     =      -1.39572409 Ry
     one-center paw contrib.   =   -4873.45166172 Ry
     smearing contrib. (-TS)   =       0.00329069 Ry

     total magnetization       =   160.47 Bohr mag/cell
     absolute magnetization    =   167.44 Bohr mag/cell

     convergence has been achieved in  12 iterations

     negative rho (up, down):  2.527E-02 1.860E-02

     Forces acting on atoms (cartesian axes, Ry/au):

     atom    1 type  1   force =     0.00008074    0.00069082    0.00882122
     atom    2 type  1   force =     0.00255522   -0.00384165   -0.01542993
     atom    3 type  1   force =    -0.00084899   -0.00072930    0.00855059
     atom    4 type  1   force =     0.00081245    0.00122802   -0.00840169
     atom    5 type  1   force =    -0.00006400    0.00000601   -0.00002500
     atom    6 type  1   force =    -0.00000717    0.00003850    0.00004901
     atom    7 type  1   force =     0.00004109    0.00004576   -0.00005271
     atom    8 type  1   force =    -0.00005084   -0.00000970    0.00003196
     atom    9 type  1   force =     0.00005029    0.00008660    0.00824642
     atom   10 type  1   force =    -0.00067016   -0.00047852    0.00890320
     atom   11 type  1   force =     0.00098332   -0.00028179   -0.00873524
     atom   12 type  1   force =     0.00031719    0.00028370   -0.01304771
     atom   13 type  1   force =     0.00000523   -0.00001615   -0.00000973
     atom   14 type  1   force =    -0.00000243   -0.00000678   -0.00005954
     atom   15 type  1   force =    -0.00003764   -0.00007404    0.00013429
     atom   16 type  1   force =     0.00006107    0.00005161   -0.00008031
     atom   17 type  1   force =    -0.00096080   -0.00049634    0.00851561
     atom   18 type  1   force =     0.00143371    0.00036513   -0.00837405
     atom   19 type  1   force =     0.00071817    0.00066564    0.00857435
     atom   20 type  1   force =    -0.00116944    0.00144627   -0.00282047
     atom   21 type  1   force =     0.00006375    0.00002605   -0.00004644
     atom   22 type  1   force =    -0.00002606   -0.00004569    0.00003855
     atom   23 type  1   force =    -0.00001825   -0.00004728   -0.00004409
     atom   24 type  1   force =     0.00001497    0.00000174    0.00000832
     atom   25 type  1   force =     0.00005264   -0.00000395    0.00744235
     atom   26 type  1   force =    -0.00102978    0.00130604    0.00826483
     atom   27 type  1   force =     0.00138299    0.00091372   -0.00372627
     atom   28 type  1   force =     0.00016979   -0.00097644   -0.00818351
     atom   29 type  1   force =     0.00001225    0.00001454   -0.00013142
     atom   30 type  1   force =     0.00002104    0.00000270   -0.00007630
     atom   31 type  1   force =    -0.00003954   -0.00002199    0.00005158
     atom   32 type  1   force =     0.00011302    0.00003467    0.00010620
     atom   33 type  1   force =     0.00009696   -0.00081736    0.00866397
     atom   34 type  1   force =    -0.00069674   -0.00119505   -0.00853219
     atom   35 type  1   force =     0.00069076   -0.00015767    0.00884631
     atom   36 type  1   force =    -0.00282459    0.00375152   -0.01542358
     atom   37 type  1   force =     0.00004948    0.00001671   -0.00000773
     atom   38 type  1   force =     0.00001392   -0.00003030    0.00004166
     atom   39 type  1   force =    -0.00000956   -0.00006248   -0.00002705
     atom   40 type  1   force =     0.00003569   -0.00001636    0.00005564
     atom   41 type  1   force =     0.00017063    0.00007756    0.00927164
     atom   42 type  1   force =     0.00089504   -0.00140852    0.00830453
     atom   43 type  1   force =    -0.00082594   -0.00051060   -0.01265153
     atom   44 type  1   force =    -0.00088679    0.00048758   -0.00809068
     atom   45 type  1   force =     0.00000868    0.00000328   -0.00005125
     atom   46 type  1   force =     0.00000428    0.00002298   -0.00007996
     atom   47 type  1   force =     0.00008422    0.00006247    0.00001698
     atom   48 type  1   force =     0.00006754    0.00009317    0.00009733
     atom   49 type  1   force =     0.00086113    0.00049300    0.00861424
     atom   50 type  1   force =     0.00102118   -0.00167462   -0.00279920
     atom   51 type  1   force =    -0.00072413    0.00037417    0.00867819
     atom   52 type  1   force =    -0.00137030   -0.00024286   -0.00855165
     atom   53 type  1   force =    -0.00004894    0.00000033   -0.00005169
     atom   54 type  1   force =     0.00000269    0.00001947   -0.00001543
     atom   55 type  1   force =     0.00003801    0.00004591   -0.00000769
     atom   56 type  1   force =    -0.00001192    0.00002254    0.00003406
     atom   57 type  1   force =     0.00007920   -0.00005094    0.00825281
     atom   58 type  1   force =     0.00051222    0.00035107    0.00887383
     atom   59 type  1   force =     0.00006291    0.00102854   -0.00865253
     atom   60 type  1   force =    -0.00126900   -0.00094132   -0.00367824
     atom   61 type  1   force =    -0.00001441    0.00001239   -0.00000933
     atom   62 type  1   force =     0.00000622    0.00000325   -0.00005983
     atom   63 type  1   force =    -0.00007101   -0.00001404    0.00012905
     atom   64 type  1   force =     0.00005930    0.00004908   -0.00000960
     atom   65 type  2   force =     0.00001653    0.00001805    0.00002803
     atom   66 type  3   force =     0.00001292    0.00001119    0.00017220

     Total force =     0.000513     Total SCF correction =     0.000046

     bfgs converged in  12 scf cycles and  11 bfgs steps
     (criteria: energy <  7.3E-07 Ry, force <  3.9E-04 Ry/Bohr)

     End of BFGS Geometry Optimization

     Final energy   =  -21093.7860374492 Ry
Begin final coordinates

ATOMIC_POSITIONS (angstrom)
Fe       1.654912953   1.170200133   0.000000000    0   0   0
Fe       0.000000000   0.000000000   2.026984232    0   0   0
Fe       4.964738858   3.510600399   0.000000000    0   0   0
Fe       3.309825906   2.340400266   2.026984232    0   0   0
Fe       1.680378438   1.166552972   4.026651122
Fe       3.334753161   9.326401447   6.022809758
Fe       4.959762987   3.535076708   4.043961924
Fe       3.395180004   2.335326321   6.026234318
Fe       2.482363858   3.510600399   0.000000000    0   0   0
Fe       4.137287953   1.170200133   0.000000000    0   0   0
Fe       0.827450906   2.340400266   2.026984232    0   0   0
Fe       2.482375000   0.000000000   2.026984232    0   0   0
Fe       2.482824022   3.509619238   4.048700480
Fe       4.161023798   1.187230109   4.032511818
Fe       0.916093585   2.304367799   6.025040658
Fe       2.511703937   0.020699218   6.022077235
Fe       6.619662953   1.170200133   0.000000000    0   0   0
Fe       4.964750000   0.000000000   2.026984232    0   0   0
Fe       9.929488858   3.510600399   0.000000000    0   0   0
Fe       8.274575906   2.340400266   2.026984232    0   0   0
Fe       6.640796866   1.157092072   4.043616295
Fe       4.988317853   0.082087340   6.026415650
Fe       9.932629132   3.484965513   4.040910238
Fe       8.457098655   2.082068801   5.986550927
Fe       7.447113858   3.510600399   0.000000000    0   0   0
Fe       9.102037953   1.170200133   0.000000000    0   0   0
Fe       5.792200906   2.340400266   2.026984232    0   0   0
Fe       7.447125000   0.000000000   2.026984232    0   0   0
Fe       7.446152203   3.509491140   4.059478280
Fe       9.131019902   1.126200848   4.004481936
Fe       5.882655382   2.403722928   6.008039493
Fe      10.769623181   9.266586043   6.031239487
Fe       3.309814764   5.851000664   0.000000000    0   0   0
Fe       1.654901811   4.680800531   2.026984232    0   0   0
Fe       6.619640670   8.191400930   0.000000000    0   0   0
Fe       4.964727717   7.021200797   2.026984232    0   0   0
Fe       3.284007049   5.853545097   4.030304653
Fe      11.502379935   4.676075179   6.022250208
Fe       6.624732871   8.216553197   4.026834699
Fe       4.939853024   7.056277960   6.023194843
Fe       4.137265670   8.191400930   0.000000000    0   0   0
Fe       5.792189764   5.851000664   0.000000000    0   0   0
Fe       2.482352717   7.021200797   2.026984232    0   0   0
Fe       4.137276811   4.680800531   2.026984232    0   0   0
Fe       4.135738670   8.190318371   4.012842071
Fe       5.760274172   5.893055175   4.004722851
Fe      12.369008507   6.990883997   6.026196264
Fe       4.052158610   4.724629132   6.031768227
Fe       8.274564764   5.851000664   0.000000000    0   0   0
Fe       6.619651811   4.680800531   2.026984232    0   0   0
Fe      11.584390670   8.191400930   0.000000000    0   0   0
Fe       9.929477717   7.021200797   2.026984232    0   0   0
Fe       8.251116226   5.862260223   4.041240385
Fe       6.437291900   4.938394453   5.986537645
Fe      11.578245610   8.166135150   4.030125600
Fe       9.897317533   6.945671192   6.021948816
Fe       9.102015670   8.191400930   0.000000000    0   0   0
Fe      10.756939764   5.851000664   0.000000000    0   0   0
Fe       7.447102717   7.021200797   2.026984232    0   0   0
Fe       9.102026811   4.680800531   2.026984232    0   0   0
Fe       9.101135418   8.192051278   4.048618393
Fe      10.731067762   5.832948256   4.030919824
Fe       7.442122409   7.116598751   6.025529393
Fe       9.013214613   4.617472229   6.006713399
N        7.448198864   3.510950522   6.351669108
H        4.600514664   8.519035290   6.976251645
End final coordinates



     Writing output data file Fe_N_H_paper_480c_ESM_p25.save/

     init_run     :     84.40s CPU     85.59s WALL (       1 calls)
     electrons    :  86472.45s CPU  87177.94s WALL (      12 calls)
     update_pot   :    202.40s CPU    202.64s WALL (      11 calls)
     forces       :    537.80s CPU    542.03s WALL (      12 calls)

     Called by init_run:
     wfcinit      :     59.00s CPU     60.00s WALL (       1 calls)
     potinit      :      8.11s CPU      8.14s WALL (       1 calls)
     hinit0       :     14.56s CPU     14.61s WALL (       1 calls)

     Called by electrons:
     c_bands      :  78802.86s CPU  79397.71s WALL (     269 calls)
     sum_band     :   4256.06s CPU   4328.03s WALL (     269 calls)
     v_of_rho     :    444.96s CPU    446.98s WALL (     270 calls)
     newd         :     79.32s CPU     82.53s WALL (     270 calls)
     PAW_pot      :    125.56s CPU    126.35s WALL (     281 calls)
     mix_rho      :   2647.43s CPU   2675.08s WALL (     269 calls)

     Called by c_bands:
     init_us_2    :    123.69s CPU    127.68s WALL (    1686 calls)
     cegterg      :  63316.20s CPU  63715.02s WALL (     816 calls)

     Called by sum_band:
     sum_band:bec :      7.98s CPU      8.03s WALL (     840 calls)
     addusdens    :     97.54s CPU    103.28s WALL (     269 calls)

     Called by *egterg:
     h_psi        :  20146.89s CPU  20313.69s WALL (    6425 calls)
     s_psi        :   4178.12s CPU   4183.93s WALL (    6425 calls)
     g_psi        :     56.90s CPU     57.05s WALL (    5606 calls)
     cdiaghg      :  22302.38s CPU  22402.07s WALL (    6356 calls)

     Called by h_psi:
     h_psi:pot    :  20044.67s CPU  20148.93s WALL (    6425 calls)
     h_psi:calbec :   4222.85s CPU   4231.47s WALL (    6425 calls)
     vloc_psi     :  11633.11s CPU  11720.64s WALL (    6425 calls)
     add_vuspsi   :   4188.62s CPU   4196.78s WALL (    6425 calls)

     General routines
     calbec       :   5995.79s CPU   6008.14s WALL (    7409 calls)
     fft          :    282.95s CPU    284.64s WALL (    6939 calls)
     ffts         :   1362.60s CPU   1372.80s WALL (  159270 calls)
     fftw         :  11240.87s CPU  11329.94s WALL ( 3260554 calls)
     interpolate  :     27.74s CPU     27.88s WALL (     540 calls)
     davcio       :      1.29s CPU    180.15s WALL (    7068 calls)

     Parallel routines
     fft_scatt_xy :   2368.56s CPU   2379.67s WALL ( 3426763 calls)
     fft_scatt_yz :   3297.76s CPU   3344.29s WALL ( 3426763 calls)

     PWSCF        :   1d 0h17m CPU   1d 0h29m WALL


   This run was terminated on:  16:21:35   9Jun2022            

=------------------------------------------------------------------------------=
   JOB DONE.
=------------------------------------------------------------------------------=
