     Message from routine get_command_line:
     unexpected argument # 4     :-in

     Program PWSCF v.6.7MaX starts on 28Sep2022 at 20:53:39 

     This program is part of the open-source Quantum ESPRESSO suite
     for quantum simulation of materials; please cite
         "P. Giannozzi et al., J. Phys.:Condens. Matter 21 395502 (2009);
         "P. Giannozzi et al., J. Phys.:Condens. Matter 29 465901 (2017);
          URL http://www.quantum-espresso.org", 
     in publications or presentations arising from this work. More details at
     http://www.quantum-espresso.org/quote

     Parallel version (MPI), running on   120 processors

     MPI processes distributed on     1 nodes
     K-points division:     npool     =       8
     R & G space division:  proc/nbgrp/npool/nimage =      15
     Waiting for input...
     Reading input from standard input
Warning: card &CELL ignored
Warning: card / ignored

     Current dimensions of program PWSCF are:
     Max number of different atomic species (ntypx) = 10
     Max number of k-points (npk) =  40000
     Max angular momentum in pseudopotentials (lmaxx) =  3

     IMPORTANT: XC functional enforced from input :
     Exchange-correlation= PBE
                           (   1   4   3   4   0   0   0)
     Any further DFT definition will be discarded
     Please, verify this is what you really want


     -------------------------------------------------
     Parameters for Dispersion (Grimme-D2) Correction:
     -------------------------------------------------
       atom      VdW radius       C_6     

        N          2.640         42.670
        H          1.892          4.857

     Subspace diagonalization in iterative solution of the eigenvalue problem:
     one sub-group per band group will be used
     scalapack distributed-memory algorithm (size of sub-group:  3*  3 procs)


     Parallelization info
     --------------------
     sticks:   dense  smooth     PW     G-vecs:    dense   smooth      PW
     Min        3636    1818    468               639190   225950   29545
     Max        3637    1819    470               639197   225953   29547
     Sum       54553   27281   7033              9587919  3389267  443191



     bravais-lattice index     =            0
     lattice parameter (alat)  =      37.7945  a.u.
     unit-cell volume          =   53986.6760 (a.u.)^3
     number of atoms/cell      =            3
     number of atomic types    =            2
     number of electrons       =         7.00
     number of Kohn-Sham states=            8
     kinetic-energy cutoff     =      60.0000  Ry
     charge density cutoff     =     480.0000  Ry
     scf convergence threshold =      1.0E-08
     mixing beta               =       0.7000
     number of iterations used =           10  plain     mixing
     energy convergence thresh.=      7.3E-07
     force convergence thresh. =      3.9E-04
     Exchange-correlation= PBE
                           (   1   4   3   4   0   0   0)
     nstep                     =           50


     celldm(1)=  37.794522  celldm(2)=   0.000000  celldm(3)=   0.000000
     celldm(4)=   0.000000  celldm(5)=   0.000000  celldm(6)=   0.000000

     crystal axes: (cart. coord. in units of alat)
               a(1) = (   1.000000   0.000000   0.000000 )  
               a(2) = (   0.000000   1.000000   0.000000 )  
               a(3) = (   0.000000   0.000000   1.000000 )  

     reciprocal axes: (cart. coord. in units 2 pi/alat)
               b(1) = (  1.000000  0.000000  0.000000 )  
               b(2) = (  0.000000  1.000000  0.000000 )  
               b(3) = (  0.000000  0.000000  1.000000 )  


     PseudoPot. # 1 for N  read from file:
     ../../SSSP/N.pbe-n-radius_5.UPF
     MD5 check sum: 16739722b17309cd8fe442a2ace49922
     Pseudo is Ultrasoft + core correction, Zval =  5.0
     Generated using "atomic" code by A. Dal Corso  v.5.1
     Using radial grid of 1085 points,  4 beta functions with: 
                l(1) =   0
                l(2) =   0
                l(3) =   1
                l(4) =   1
     Q(r) pseudized with 0 coefficients 


     PseudoPot. # 2 for H  read from file:
     ../../SSSP/H.pbe-rrkjus_psl.1.0.0.UPF
     MD5 check sum: f52b6d4d1c606e5624b1dc7b2218f220
     Pseudo is Ultrasoft, Zval =  1.0
     Generated using "atomic" code by A. Dal Corso  v.5.1
     Using radial grid of  929 points,  2 beta functions with: 
                l(1) =   0
                l(2) =   0
     Q(r) pseudized with 0 coefficients 


     atomic species   valence    mass     pseudopotential
        N              5.00    14.00700     N ( 1.00)
        H              1.00     1.00800     H ( 1.00)

     Starting magnetic structure 
     atomic species   magnetization
        N            0.100
        H            0.100

     No symmetry found



   Cartesian axes

     site n.     atom                  positions (alat units)
         1           N   tau(   1) = (   0.5000000   0.5000000   0.0000000  )
         2           H   tau(   2) = (   0.5000000   0.5404449  -0.0324140  )
         3           H   tau(   3) = (   0.5000000   0.4595551  -0.0324140  )

     number of k points=    10  Methfessel-Paxton smearing, width (Ry)=  0.0100
                       cart. coord. in units 2pi/alat
        k(    1) = (   0.0000000   0.0000000   0.0000000), wk =   0.0625000
        k(    2) = (   0.0000000   0.2500000   0.0000000), wk =   0.1250000
        k(    3) = (   0.0000000  -0.5000000   0.0000000), wk =   0.0625000
        k(    4) = (   0.2500000   0.0000000   0.0000000), wk =   0.1250000
        k(    5) = (   0.2500000   0.2500000   0.0000000), wk =   0.1250000
        k(    6) = (   0.2500000  -0.5000000   0.0000000), wk =   0.1250000
        k(    7) = (   0.2500000  -0.2500000   0.0000000), wk =   0.1250000
        k(    8) = (  -0.5000000   0.0000000   0.0000000), wk =   0.0625000
        k(    9) = (  -0.5000000   0.2500000   0.0000000), wk =   0.1250000
        k(   10) = (  -0.5000000  -0.5000000   0.0000000), wk =   0.0625000

     Dense  grid:  9587919 G-vectors     FFT dimensions: ( 270, 270, 270)

     Smooth grid:  3389267 G-vectors     FFT dimensions: ( 192, 192, 192)

     Estimated max dynamical RAM per process >     388.03 MB

     Estimated total dynamical RAM >      45.47 GB

     Adding external electric field
        E field amplitude [Ha a.u.]: -2.3644E-02
        Potential amp.       -1.6085 Ry
        Total length         34.0151 bohr

     Generating pointlists ...
     new r_m :   0.0214 (alat units)  0.8081 (a.u.) for type    1
     new r_m :   0.0214 (alat units)  0.8081 (a.u.) for type    2

     Initial potential from superposition of free atoms

     starting charge    6.99997, renormalised to    7.00000

     negative rho (up, down):  9.679E-05 7.919E-05
     Starting wfcs are    6 randomized atomic wfcs +    2 random wfcs

     total cpu time spent up to now is       21.5 secs

     Self-consistent Calculation

     iteration #  1     ecut=    60.00 Ry     beta= 0.70
     CG style diagonalization
     c_bands:  1 eigenvalues not converged
     c_bands:  2 eigenvalues not converged
     c_bands:  3 eigenvalues not converged
     ethr =  1.00E-04,  avg # of iterations = 12.0

     negative rho (up, down):  2.226E-04 1.487E-04

     total cpu time spent up to now is       56.4 secs

     total energy              =     -22.33544408 Ry
     estimated scf accuracy    <       0.35208602 Ry

     total magnetization       =     1.00 Bohr mag/cell
     absolute magnetization    =     1.01 Bohr mag/cell

     iteration #  2     ecut=    60.00 Ry     beta= 0.70
     CG style diagonalization
     ethr =  5.03E-03,  avg # of iterations =  3.4

     negative rho (up, down):  1.807E-04 1.980E-04

     total cpu time spent up to now is       74.8 secs

     total energy              =     -22.39182453 Ry
     estimated scf accuracy    <       0.11998926 Ry

     total magnetization       =     1.00 Bohr mag/cell
     absolute magnetization    =     1.04 Bohr mag/cell

     iteration #  3     ecut=    60.00 Ry     beta= 0.70
     CG style diagonalization
     ethr =  1.71E-03,  avg # of iterations =  3.4

     negative rho (up, down):  2.268E-04 1.749E-04

     total cpu time spent up to now is       93.3 secs

     total energy              =     -22.44606058 Ry
     estimated scf accuracy    <       0.00259824 Ry

     total magnetization       =     1.00 Bohr mag/cell
     absolute magnetization    =     1.05 Bohr mag/cell

     iteration #  4     ecut=    60.00 Ry     beta= 0.70
     CG style diagonalization
     ethr =  3.71E-05,  avg # of iterations =  4.6

     negative rho (up, down):  2.340E-04 1.711E-04

     total cpu time spent up to now is      114.2 secs

     total energy              =     -22.44719328 Ry
     estimated scf accuracy    <       0.00087076 Ry

     total magnetization       =     1.00 Bohr mag/cell
     absolute magnetization    =     1.06 Bohr mag/cell

     iteration #  5     ecut=    60.00 Ry     beta= 0.70
     CG style diagonalization
     ethr =  1.24E-05,  avg # of iterations =  6.3

     negative rho (up, down):  2.422E-04 1.727E-04

     total cpu time spent up to now is      138.5 secs

     total energy              =     -22.44728029 Ry
     estimated scf accuracy    <       0.00005552 Ry

     total magnetization       =     1.00 Bohr mag/cell
     absolute magnetization    =     1.07 Bohr mag/cell

     iteration #  6     ecut=    60.00 Ry     beta= 0.70
     CG style diagonalization
     c_bands:  1 eigenvalues not converged
     c_bands:  1 eigenvalues not converged
     ethr =  7.93E-07,  avg # of iterations =  6.8

     negative rho (up, down):  2.442E-04 1.723E-04

     total cpu time spent up to now is      164.0 secs

     total energy              =     -22.44731587 Ry
     estimated scf accuracy    <       0.00001088 Ry

     total magnetization       =     1.00 Bohr mag/cell
     absolute magnetization    =     1.07 Bohr mag/cell

     iteration #  7     ecut=    60.00 Ry     beta= 0.70
     CG style diagonalization
     ethr =  1.55E-07,  avg # of iterations =  4.7

     negative rho (up, down):  2.439E-04 1.722E-04

     total cpu time spent up to now is      185.3 secs

     total energy              =     -22.44732265 Ry
     estimated scf accuracy    <       0.00000147 Ry

     total magnetization       =     1.00 Bohr mag/cell
     absolute magnetization    =     1.07 Bohr mag/cell

     iteration #  8     ecut=    60.00 Ry     beta= 0.70
     CG style diagonalization
     ethr =  2.10E-08,  avg # of iterations =  3.9

     negative rho (up, down):  2.440E-04 1.721E-04

     total cpu time spent up to now is      205.3 secs

     total energy              =     -22.44732325 Ry
     estimated scf accuracy    <       0.00000004 Ry

     total magnetization       =     1.00 Bohr mag/cell
     absolute magnetization    =     1.07 Bohr mag/cell

     iteration #  9     ecut=    60.00 Ry     beta= 0.70
     CG style diagonalization
     ethr =  6.17E-10,  avg # of iterations =  4.4

     negative rho (up, down):  2.441E-04 1.721E-04

     total cpu time spent up to now is      226.3 secs

     total energy              =     -22.44732344 Ry
     estimated scf accuracy    <       0.00000011 Ry

     total magnetization       =     1.00 Bohr mag/cell
     absolute magnetization    =     1.07 Bohr mag/cell

     iteration # 10     ecut=    60.00 Ry     beta= 0.70
     CG style diagonalization
     ethr =  6.17E-10,  avg # of iterations =  3.5

     negative rho (up, down):  2.441E-04 1.721E-04

     total cpu time spent up to now is      245.6 secs

     total energy              =     -22.44732345 Ry
     estimated scf accuracy    <       0.00000002 Ry

     total magnetization       =     1.00 Bohr mag/cell
     absolute magnetization    =     1.07 Bohr mag/cell

     iteration # 11     ecut=    60.00 Ry     beta= 0.70
     CG style diagonalization
     ethr =  2.49E-10,  avg # of iterations =  3.3

     negative rho (up, down):  2.441E-04 1.721E-04

     Magnetic moment per site:
     atom:    1    charge:    1.3494    magn:    0.2672    constr:    0.0000
     atom:    2    charge:    0.4476    magn:   -0.0054    constr:    0.0000
     atom:    3    charge:    0.4476    magn:   -0.0054    constr:    0.0000

     total cpu time spent up to now is      262.3 secs

     End of self-consistent calculation

 ------ SPIN UP ------------


          k = 0.0000 0.0000 0.0000 (423701 PWs)   bands (ev):

   -29.3845 -19.7242 -16.2237 -15.8347  -8.6579  -8.0064  -7.8911  -7.8619

          k = 0.0000 0.2500 0.0000 (423725 PWs)   bands (ev):

   -29.3845 -19.7242 -16.2237 -15.8347  -8.6564  -8.0445  -7.8797  -7.8461

          k = 0.0000-0.5000 0.0000 (423542 PWs)   bands (ev):

   -29.3845 -19.7242 -16.2237 -15.8347  -8.6547  -8.0725  -7.8559  -7.8257

          k = 0.2500 0.0000 0.0000 (423725 PWs)   bands (ev):

   -29.3845 -19.7242 -16.2237 -15.8347  -8.6564  -8.0313  -7.8789  -7.8747

          k = 0.2500 0.2500 0.0000 (423766 PWs)   bands (ev):

   -29.3845 -19.7242 -16.2237 -15.8347  -8.6551  -8.0351  -7.9598  -7.7759

          k = 0.2500-0.5000 0.0000 (423782 PWs)   bands (ev):

   -29.3845 -19.7242 -16.2237 -15.8347  -8.6533  -8.0523  -7.9498  -7.8499

          k = 0.2500-0.2500 0.0000 (423766 PWs)   bands (ev):

   -29.3845 -19.7242 -16.2237 -15.8347  -8.6551  -8.0348  -7.9593  -7.7759

          k =-0.5000 0.0000 0.0000 (423542 PWs)   bands (ev):

   -29.3845 -19.7242 -16.2237 -15.8347  -8.6552  -8.0549  -7.8651  -7.8637

          k =-0.5000 0.2500 0.0000 (423782 PWs)   bands (ev):

   -29.3845 -19.7242 -16.2237 -15.8347  -8.6538  -8.0328  -7.9764  -7.8390

          k =-0.5000-0.5000 0.0000 (423708 PWs)   bands (ev):

   -29.3845 -19.7242 -16.2237 -15.8347  -8.6524  -8.0171  -7.9885  -7.9292

 ------ SPIN DOWN ----------


          k = 0.0000 0.0000 0.0000 (423701 PWs)   bands (ev):

   -28.1173 -19.3565 -15.6531 -12.6596  -8.4602  -7.9777  -7.8659  -7.7714

          k = 0.0000 0.2500 0.0000 (423725 PWs)   bands (ev):

   -28.1173 -19.3565 -15.6531 -12.6596  -8.4558  -8.0264  -7.8556  -7.7481

          k = 0.0000-0.5000 0.0000 (423542 PWs)   bands (ev):

   -28.1173 -19.3565 -15.6531 -12.6596  -8.4511  -8.0625  -7.8249  -7.7107

          k = 0.2500 0.0000 0.0000 (423725 PWs)   bands (ev):

   -28.1173 -19.3565 -15.6531 -12.6596  -8.4569  -7.9995  -7.8514  -7.8310

          k = 0.2500 0.2500 0.0000 (423766 PWs)   bands (ev):

   -28.1173 -19.3565 -15.6531 -12.6596  -8.4528  -8.0140  -7.9225  -7.7404

          k = 0.2500-0.5000 0.0000 (423782 PWs)   bands (ev):

   -28.1173 -19.3565 -15.6531 -12.6596  -8.4485  -8.0419  -7.8951  -7.8403

          k = 0.2500-0.2500 0.0000 (423766 PWs)   bands (ev):

   -28.1173 -19.3565 -15.6531 -12.6596  -8.4530  -8.0136  -7.9230  -7.7507

          k =-0.5000 0.0000 0.0000 (423542 PWs)   bands (ev):

   -28.1173 -19.3565 -15.6531 -12.6596  -8.4537  -8.0216  -7.8354  -7.8352

          k =-0.5000 0.2500 0.0000 (423782 PWs)   bands (ev):

   -28.1173 -19.3565 -15.6531 -12.6596  -8.4501  -7.9985  -7.9586  -7.8104

          k =-0.5000-0.5000 0.0000 (423708 PWs)   bands (ev):

   -28.1173 -19.3565 -15.6531 -12.6596  -8.4461  -8.0037  -7.9329  -7.9236

     the Fermi energy is   -12.7742 ev

!    total energy              =     -22.44732345 Ry
     estimated scf accuracy    <          2.0E-09 Ry
     smearing contrib. (-TS)   =       0.00028990 Ry
     internal energy E=F+TS    =     -22.44761335 Ry

     The total energy is F=E-TS. E is the sum of the following terms:
     one-electron contribution =     -52.07325820 Ry
     hartree contribution      =      24.89528394 Ry
     xc contribution           =      -6.72134619 Ry
     ewald contribution        =       7.18903680 Ry
     Dispersion Correction     =      -0.00009835 Ry
     electric field correction =       4.26276865 Ry

     total magnetization       =     1.00 Bohr mag/cell
     absolute magnetization    =     1.07 Bohr mag/cell

     convergence has been achieved in  11 iterations

     negative rho (up, down):  2.441E-04 1.721E-04

     Forces acting on atoms (cartesian axes, Ry/au):

     atom    1 type  1   force =    -0.00000004   -0.00000000    0.00511114
     atom    2 type  2   force =     0.00000001   -0.00534700   -0.00255555
     atom    3 type  2   force =     0.00000003    0.00534701   -0.00255559

     Total force =     0.008381     Total SCF correction =     0.000017

     BFGS Geometry Optimization
     Energy error            =      0.0E+00
     Gradient error          =      5.3E-03

     number of scf cycles    =   1
     number of bfgs steps    =   0

     energy   new            =     -22.4473234524 Ry

     new trust radius        =       0.0059263407 bohr
     new conv_thr            =       0.0000000100 Ry


ATOMIC_POSITIONS (angstrom)
N            10.0000000000       10.0000000000        0.0000000000    0   0   0
H            10.0000000056       10.8060692745       -0.6496331914
H            10.0000000162        9.1939307779       -0.6496332138



     Writing output data file ./NH2_ESM_VA12.save/
     NEW-OLD atomic charge density approx. for the potential

     negative rho (up, down):  1.889E-04 2.093E-04

     Adding external electric field
        E field amplitude [Ha a.u.]: -2.3644E-02
        Potential amp.       -1.6085 Ry
        Total length         34.0151 bohr

     Generating pointlists ...

     total cpu time spent up to now is      283.8 secs

     Self-consistent Calculation

     iteration #  1     ecut=    60.00 Ry     beta= 0.70
     CG style diagonalization
     ethr =  1.00E-06,  avg # of iterations =  2.4

     Threshold (ethr) on eigenvalues was too large:
     Diagonalizing with lowered threshold

     CG style diagonalization
     ethr =  3.24E-08,  avg # of iterations =  2.4

     negative rho (up, down):  2.307E-04 1.813E-04

     total cpu time spent up to now is      307.7 secs

     total energy              =     -22.44738735 Ry
     estimated scf accuracy    <       0.00000274 Ry

     total magnetization       =     1.00 Bohr mag/cell
     absolute magnetization    =     1.07 Bohr mag/cell

     iteration #  2     ecut=    60.00 Ry     beta= 0.70
     CG style diagonalization
     ethr =  3.92E-08,  avg # of iterations =  3.4

     negative rho (up, down):  2.393E-04 1.758E-04

     total cpu time spent up to now is      326.2 secs

     total energy              =     -22.44738801 Ry
     estimated scf accuracy    <       0.00000039 Ry

     total magnetization       =     1.00 Bohr mag/cell
     absolute magnetization    =     1.07 Bohr mag/cell

     iteration #  3     ecut=    60.00 Ry     beta= 0.70
     CG style diagonalization
     ethr =  5.59E-09,  avg # of iterations =  3.5

     negative rho (up, down):  2.436E-04 1.728E-04

     total cpu time spent up to now is      344.8 secs

     total energy              =     -22.44738817 Ry
     estimated scf accuracy    <       0.00000004 Ry

     total magnetization       =     1.00 Bohr mag/cell
     absolute magnetization    =     1.07 Bohr mag/cell

     iteration #  4     ecut=    60.00 Ry     beta= 0.70
     CG style diagonalization
     ethr =  5.37E-10,  avg # of iterations =  3.2

     negative rho (up, down):  2.444E-04 1.725E-04

     Magnetic moment per site:
     atom:    1    charge:    1.3498    magn:    0.2672    constr:    0.0000
     atom:    2    charge:    0.4488    magn:   -0.0054    constr:    0.0000
     atom:    3    charge:    0.4488    magn:   -0.0054    constr:    0.0000

     total cpu time spent up to now is      361.3 secs

     End of self-consistent calculation

 ------ SPIN UP ------------


          k = 0.0000 0.0000 0.0000 (423701 PWs)   bands (ev):

   -29.4016 -19.7186 -16.2379 -15.8368  -8.6543  -8.0062  -7.8905  -7.8617

          k = 0.0000 0.2500 0.0000 (423725 PWs)   bands (ev):

   -29.4016 -19.7186 -16.2379 -15.8368  -8.6526  -8.0442  -7.8793  -7.8461

          k = 0.0000-0.5000 0.0000 (423542 PWs)   bands (ev):

   -29.4016 -19.7186 -16.2379 -15.8368  -8.6509  -8.0723  -7.8556  -7.8256

          k = 0.2500 0.0000 0.0000 (423725 PWs)   bands (ev):

   -29.4016 -19.7186 -16.2379 -15.8368  -8.6528  -8.0314  -7.8782  -7.8745

          k = 0.2500 0.2500 0.0000 (423766 PWs)   bands (ev):

   -29.4016 -19.7186 -16.2379 -15.8368  -8.6513  -8.0349  -7.9596  -7.7756

          k = 0.2500-0.5000 0.0000 (423782 PWs)   bands (ev):

   -29.4016 -19.7186 -16.2379 -15.8368  -8.6496  -8.0522  -7.9498  -7.8497

          k = 0.2500-0.2500 0.0000 (423766 PWs)   bands (ev):

   -29.4016 -19.7186 -16.2379 -15.8368  -8.6514  -8.0346  -7.9592  -7.7757

          k =-0.5000 0.0000 0.0000 (423542 PWs)   bands (ev):

   -29.4016 -19.7186 -16.2379 -15.8368  -8.6515  -8.0549  -7.8642  -7.8633

          k =-0.5000 0.2500 0.0000 (423782 PWs)   bands (ev):

   -29.4016 -19.7186 -16.2379 -15.8368  -8.6501  -8.0329  -7.9760  -7.8390

          k =-0.5000-0.5000 0.0000 (423708 PWs)   bands (ev):

   -29.4016 -19.7186 -16.2379 -15.8368  -8.6486  -8.0166  -7.9884  -7.9293

 ------ SPIN DOWN ----------


          k = 0.0000 0.0000 0.0000 (423701 PWs)   bands (ev):

   -28.1356 -19.3503 -15.6664 -12.6620  -8.4570  -7.9773  -7.8651  -7.7715

          k = 0.0000 0.2500 0.0000 (423725 PWs)   bands (ev):

   -28.1356 -19.3503 -15.6664 -12.6620  -8.4525  -8.0261  -7.8551  -7.7482

          k = 0.0000-0.5000 0.0000 (423542 PWs)   bands (ev):

   -28.1356 -19.3503 -15.6664 -12.6620  -8.4477  -8.0623  -7.8248  -7.7103

          k = 0.2500 0.0000 0.0000 (423725 PWs)   bands (ev):

   -28.1356 -19.3503 -15.6664 -12.6620  -8.4537  -7.9993  -7.8509  -7.8309

          k = 0.2500 0.2500 0.0000 (423766 PWs)   bands (ev):

   -28.1356 -19.3503 -15.6664 -12.6620  -8.4495  -8.0136  -7.9224  -7.7407

          k = 0.2500-0.5000 0.0000 (423782 PWs)   bands (ev):

   -28.1356 -19.3503 -15.6664 -12.6620  -8.4451  -8.0416  -7.8950  -7.8403

          k = 0.2500-0.2500 0.0000 (423766 PWs)   bands (ev):

   -28.1356 -19.3503 -15.6664 -12.6620  -8.4496  -8.0134  -7.9228  -7.7505

          k =-0.5000 0.0000 0.0000 (423542 PWs)   bands (ev):

   -28.1356 -19.3503 -15.6664 -12.6620  -8.4504  -8.0216  -7.8346  -7.8346

          k =-0.5000 0.2500 0.0000 (423782 PWs)   bands (ev):

   -28.1356 -19.3503 -15.6664 -12.6620  -8.4467  -7.9986  -7.9581  -7.8105

          k =-0.5000-0.5000 0.0000 (423708 PWs)   bands (ev):

   -28.1356 -19.3503 -15.6664 -12.6620  -8.4426  -8.0033  -7.9329  -7.9236

     the Fermi energy is   -12.7765 ev

!    total energy              =     -22.44738817 Ry
     estimated scf accuracy    <          3.9E-10 Ry
     smearing contrib. (-TS)   =       0.00028990 Ry
     internal energy E=F+TS    =     -22.44767807 Ry

     The total energy is F=E-TS. E is the sum of the following terms:
     one-electron contribution =     -52.09851793 Ry
     hartree contribution      =      24.90724243 Ry
     xc contribution           =      -6.72355043 Ry
     ewald contribution        =       7.20471607 Ry
     Dispersion Correction     =      -0.00009517 Ry
     electric field correction =       4.26252696 Ry

     total magnetization       =     1.00 Bohr mag/cell
     absolute magnetization    =     1.07 Bohr mag/cell

     convergence has been achieved in   4 iterations

     negative rho (up, down):  2.444E-04 1.725E-04

     Forces acting on atoms (cartesian axes, Ry/au):

     atom    1 type  1   force =    -0.00000000    0.00000003    0.00640172
     atom    2 type  2   force =    -0.00000000   -0.00289643   -0.00320085
     atom    3 type  2   force =     0.00000001    0.00289640   -0.00320087

     Total force =     0.006105     Total SCF correction =     0.000004
     Energy error            =      6.5E-05
     Gradient error          =      3.2E-03

     number of scf cycles    =   2
     number of bfgs steps    =   1

     energy   old            =     -22.4473234524 Ry
     energy   new            =     -22.4473881705 Ry

     CASE: energy  _new < energy  _old

     new trust radius        =       0.0065189748 bohr
     new conv_thr            =       0.0000000008 Ry


ATOMIC_POSITIONS (angstrom)
N            10.0000000000       10.0000000000        0.0000000000    0   0   0
H            10.0000000050       10.8035249887       -0.6519627804
H            10.0000000239        9.1964750457       -0.6519628237



     Writing output data file ./NH2_ESM_VA12.save/
     NEW-OLD atomic charge density approx. for the potential

     negative rho (up, down):  1.892E-04 2.102E-04

     Adding external electric field
        E field amplitude [Ha a.u.]: -2.3644E-02
        Potential amp.       -1.6085 Ry
        Total length         34.0151 bohr

     Generating pointlists ...

     total cpu time spent up to now is      382.0 secs

     Self-consistent Calculation

     iteration #  1     ecut=    60.00 Ry     beta= 0.70
     CG style diagonalization
     ethr =  1.00E-06,  avg # of iterations =  2.4

     Threshold (ethr) on eigenvalues was too large:
     Diagonalizing with lowered threshold

     CG style diagonalization
     ethr =  2.18E-08,  avg # of iterations =  2.5

     negative rho (up, down):  2.331E-04 1.841E-04

     total cpu time spent up to now is      406.2 secs

     total energy              =     -22.44744571 Ry
     estimated scf accuracy    <       0.00000158 Ry

     total magnetization       =     1.00 Bohr mag/cell
     absolute magnetization    =     1.07 Bohr mag/cell

     iteration #  2     ecut=    60.00 Ry     beta= 0.70
     CG style diagonalization
     ethr =  2.25E-08,  avg # of iterations =  3.2

     negative rho (up, down):  2.418E-04 1.744E-04

     total cpu time spent up to now is      424.3 secs

     total energy              =     -22.44744606 Ry
     estimated scf accuracy    <       0.00000016 Ry

     total magnetization       =     1.00 Bohr mag/cell
     absolute magnetization    =     1.07 Bohr mag/cell

     iteration #  3     ecut=    60.00 Ry     beta= 0.70
     CG style diagonalization
     ethr =  2.32E-09,  avg # of iterations =  3.4

     negative rho (up, down):  2.439E-04 1.729E-04

     total cpu time spent up to now is      442.7 secs

     total energy              =     -22.44744610 Ry
     estimated scf accuracy    <       0.00000002 Ry

     total magnetization       =     1.00 Bohr mag/cell
     absolute magnetization    =     1.07 Bohr mag/cell

     iteration #  4     ecut=    60.00 Ry     beta= 0.70
     CG style diagonalization
     ethr =  2.98E-10,  avg # of iterations =  3.4

     negative rho (up, down):  2.445E-04 1.726E-04

     Magnetic moment per site:
     atom:    1    charge:    1.3500    magn:    0.2671    constr:    0.0000
     atom:    2    charge:    0.4493    magn:   -0.0053    constr:    0.0000
     atom:    3    charge:    0.4493    magn:   -0.0053    constr:    0.0000

     total cpu time spent up to now is      459.5 secs

     End of self-consistent calculation

 ------ SPIN UP ------------


          k = 0.0000 0.0000 0.0000 (423701 PWs)   bands (ev):

   -29.4119 -19.7034 -16.2539 -15.8378  -8.6516  -8.0060  -7.8898  -7.8614

          k = 0.0000 0.2500 0.0000 (423725 PWs)   bands (ev):

   -29.4119 -19.7034 -16.2539 -15.8378  -8.6500  -8.0438  -7.8790  -7.8459

          k = 0.0000-0.5000 0.0000 (423542 PWs)   bands (ev):

   -29.4119 -19.7034 -16.2539 -15.8378  -8.6483  -8.0720  -7.8553  -7.8253

          k = 0.2500 0.0000 0.0000 (423725 PWs)   bands (ev):

   -29.4119 -19.7034 -16.2539 -15.8378  -8.6502  -8.0314  -7.8774  -7.8742

          k = 0.2500 0.2500 0.0000 (423766 PWs)   bands (ev):

   -29.4119 -19.7034 -16.2539 -15.8378  -8.6487  -8.0346  -7.9593  -7.7753

          k = 0.2500-0.5000 0.0000 (423782 PWs)   bands (ev):

   -29.4119 -19.7034 -16.2539 -15.8378  -8.6470  -8.0519  -7.9497  -7.8494

          k = 0.2500-0.2500 0.0000 (423766 PWs)   bands (ev):

   -29.4119 -19.7034 -16.2539 -15.8378  -8.6487  -8.0344  -7.9590  -7.7755

          k =-0.5000 0.0000 0.0000 (423542 PWs)   bands (ev):

   -29.4119 -19.7034 -16.2539 -15.8378  -8.6489  -8.0547  -7.8632  -7.8630

          k =-0.5000 0.2500 0.0000 (423782 PWs)   bands (ev):

   -29.4119 -19.7034 -16.2539 -15.8378  -8.6474  -8.0329  -7.9756  -7.8390

          k =-0.5000-0.5000 0.0000 (423708 PWs)   bands (ev):

   -29.4119 -19.7034 -16.2539 -15.8378  -8.6459  -8.0161  -7.9882  -7.9294

 ------ SPIN DOWN ----------


          k = 0.0000 0.0000 0.0000 (423701 PWs)   bands (ev):

   -28.1469 -19.3348 -15.6816 -12.6633  -8.4546  -7.9770  -7.8644  -7.7714

          k = 0.0000 0.2500 0.0000 (423725 PWs)   bands (ev):

   -28.1469 -19.3348 -15.6816 -12.6633  -8.4500  -8.0258  -7.8546  -7.7482

          k = 0.0000-0.5000 0.0000 (423542 PWs)   bands (ev):

   -28.1469 -19.3348 -15.6816 -12.6633  -8.4452  -8.0620  -7.8247  -7.7099

          k = 0.2500 0.0000 0.0000 (423725 PWs)   bands (ev):

   -28.1469 -19.3348 -15.6816 -12.6633  -8.4513  -7.9992  -7.8502  -7.8308

          k = 0.2500 0.2500 0.0000 (423766 PWs)   bands (ev):

   -28.1469 -19.3348 -15.6816 -12.6633  -8.4470  -8.0133  -7.9222  -7.7408

          k = 0.2500-0.5000 0.0000 (423782 PWs)   bands (ev):

   -28.1469 -19.3348 -15.6816 -12.6633  -8.4426  -8.0413  -7.8948  -7.8401

          k = 0.2500-0.2500 0.0000 (423766 PWs)   bands (ev):

   -28.1469 -19.3348 -15.6816 -12.6633  -8.4471  -8.0131  -7.9226  -7.7504

          k =-0.5000 0.0000 0.0000 (423542 PWs)   bands (ev):

   -28.1469 -19.3348 -15.6816 -12.6633  -8.4479  -8.0216  -7.8342  -7.8337

          k =-0.5000 0.2500 0.0000 (423782 PWs)   bands (ev):

   -28.1469 -19.3348 -15.6816 -12.6633  -8.4441  -7.9985  -7.9576  -7.8105

          k =-0.5000-0.5000 0.0000 (423708 PWs)   bands (ev):

   -28.1469 -19.3348 -15.6816 -12.6633  -8.4400  -8.0029  -7.9329  -7.9236

     the Fermi energy is   -12.7778 ev

!    total energy              =     -22.44744611 Ry
     estimated scf accuracy    <          7.3E-10 Ry
     smearing contrib. (-TS)   =       0.00028990 Ry
     internal energy E=F+TS    =     -22.44773600 Ry

     The total energy is F=E-TS. E is the sum of the following terms:
     one-electron contribution =     -52.10965900 Ry
     hartree contribution      =      24.91250188 Ry
     xc contribution           =      -6.72445798 Ry
     ewald contribution        =       7.21186091 Ry
     Dispersion Correction     =      -0.00009241 Ry
     electric field correction =       4.26211061 Ry

     total magnetization       =     1.00 Bohr mag/cell
     absolute magnetization    =     1.07 Bohr mag/cell

     convergence has been achieved in   4 iterations

     negative rho (up, down):  2.445E-04 1.726E-04

     Forces acting on atoms (cartesian axes, Ry/au):

     atom    1 type  1   force =    -0.00000000   -0.00000000    0.00609973
     atom    2 type  2   force =    -0.00000000   -0.00129898   -0.00304987
     atom    3 type  2   force =     0.00000000    0.00129898   -0.00304986

     Total force =     0.004688     Total SCF correction =     0.000010
     Energy error            =      5.8E-05
     Gradient error          =      3.0E-03

     number of scf cycles    =   3
     number of bfgs steps    =   2

     energy   old            =     -22.4473881705 Ry
     energy   new            =     -22.4474461051 Ry

     CASE: energy  _new < energy  _old

     new trust radius        =       0.0097784622 bohr
     new conv_thr            =       0.0000000008 Ry


ATOMIC_POSITIONS (angstrom)
N            10.0000000000       10.0000000000        0.0000000000    0   0   0
H            10.0000000066       10.8003071399       -0.6560150889
H            10.0000000363        9.1996928941       -0.6560151451



     Writing output data file ./NH2_ESM_VA12.save/
     NEW-OLD atomic charge density approx. for the potential

     negative rho (up, down):  1.892E-04 2.099E-04

     Adding external electric field
        E field amplitude [Ha a.u.]: -2.3644E-02
        Potential amp.       -1.6085 Ry
        Total length         34.0151 bohr

     Generating pointlists ...

     total cpu time spent up to now is      480.1 secs

     Self-consistent Calculation

     iteration #  1     ecut=    60.00 Ry     beta= 0.70
     CG style diagonalization
     ethr =  1.00E-06,  avg # of iterations =  2.4

     Threshold (ethr) on eigenvalues was too large:
     Diagonalizing with lowered threshold

     CG style diagonalization
     ethr =  4.47E-08,  avg # of iterations =  2.6

     negative rho (up, down):  2.308E-04 1.817E-04

     total cpu time spent up to now is      504.6 secs

     total energy              =     -22.44751001 Ry
     estimated scf accuracy    <       0.00000320 Ry

     total magnetization       =     1.00 Bohr mag/cell
     absolute magnetization    =     1.07 Bohr mag/cell

     iteration #  2     ecut=    60.00 Ry     beta= 0.70
     CG style diagonalization
     ethr =  4.57E-08,  avg # of iterations =  3.1

     negative rho (up, down):  2.417E-04 1.736E-04

     total cpu time spent up to now is      522.4 secs

     total energy              =     -22.44751058 Ry
     estimated scf accuracy    <       0.00000032 Ry

     total magnetization       =     1.00 Bohr mag/cell
     absolute magnetization    =     1.07 Bohr mag/cell

     iteration #  3     ecut=    60.00 Ry     beta= 0.70
     CG style diagonalization
     ethr =  4.63E-09,  avg # of iterations =  3.4

     negative rho (up, down):  2.438E-04 1.727E-04

     total cpu time spent up to now is      541.0 secs

     total energy              =     -22.44751065 Ry
     estimated scf accuracy    <       0.00000003 Ry

     total magnetization       =     1.00 Bohr mag/cell
     absolute magnetization    =     1.07 Bohr mag/cell

     iteration #  4     ecut=    60.00 Ry     beta= 0.70
     CG style diagonalization
     ethr =  4.54E-10,  avg # of iterations =  3.4

     negative rho (up, down):  2.443E-04 1.726E-04

     total cpu time spent up to now is      559.6 secs

     total energy              =     -22.44751066 Ry
     estimated scf accuracy    <          3.4E-09 Ry

     total magnetization       =     1.00 Bohr mag/cell
     absolute magnetization    =     1.07 Bohr mag/cell

     iteration #  5     ecut=    60.00 Ry     beta= 0.70
     CG style diagonalization
     ethr =  4.88E-11,  avg # of iterations =  3.4

     negative rho (up, down):  2.444E-04 1.726E-04

     Magnetic moment per site:
     atom:    1    charge:    1.3499    magn:    0.2671    constr:    0.0000
     atom:    2    charge:    0.4494    magn:   -0.0053    constr:    0.0000
     atom:    3    charge:    0.4494    magn:   -0.0053    constr:    0.0000

     total cpu time spent up to now is      576.5 secs

     End of self-consistent calculation

 ------ SPIN UP ------------


          k = 0.0000 0.0000 0.0000 (423701 PWs)   bands (ev):

   -29.4199 -19.6743 -16.2776 -15.8384  -8.6490  -8.0057  -7.8886  -7.8610

          k = 0.0000 0.2500 0.0000 (423725 PWs)   bands (ev):

   -29.4199 -19.6743 -16.2776 -15.8384  -8.6473  -8.0434  -7.8785  -7.8456

          k = 0.0000-0.5000 0.0000 (423542 PWs)   bands (ev):

   -29.4199 -19.6743 -16.2776 -15.8384  -8.6456  -8.0715  -7.8550  -7.8249

          k = 0.2500 0.0000 0.0000 (423725 PWs)   bands (ev):

   -29.4199 -19.6743 -16.2776 -15.8384  -8.6476  -8.0313  -7.8763  -7.8739

          k = 0.2500 0.2500 0.0000 (423766 PWs)   bands (ev):

   -29.4199 -19.6743 -16.2776 -15.8384  -8.6460  -8.0342  -7.9588  -7.7748

          k = 0.2500-0.5000 0.0000 (423782 PWs)   bands (ev):

   -29.4199 -19.6743 -16.2776 -15.8384  -8.6443  -8.0514  -7.9496  -7.8491

          k = 0.2500-0.2500 0.0000 (423766 PWs)   bands (ev):

   -29.4199 -19.6743 -16.2776 -15.8384  -8.6460  -8.0341  -7.9586  -7.7750

          k =-0.5000 0.0000 0.0000 (423542 PWs)   bands (ev):

   -29.4199 -19.6743 -16.2776 -15.8384  -8.6462  -8.0546  -7.8627  -7.8617

          k =-0.5000 0.2500 0.0000 (423782 PWs)   bands (ev):

   -29.4199 -19.6743 -16.2776 -15.8384  -8.6447  -8.0327  -7.9748  -7.8389

          k =-0.5000-0.5000 0.0000 (423708 PWs)   bands (ev):

   -29.4199 -19.6743 -16.2776 -15.8384  -8.6432  -8.0154  -7.9880  -7.9293

 ------ SPIN DOWN ----------


          k = 0.0000 0.0000 0.0000 (423701 PWs)   bands (ev):

   -28.1559 -19.3052 -15.7044 -12.6643  -8.4521  -7.9767  -7.8632  -7.7712

          k = 0.0000 0.2500 0.0000 (423725 PWs)   bands (ev):

   -28.1559 -19.3052 -15.7044 -12.6643  -8.4475  -8.0254  -7.8540  -7.7480

          k = 0.0000-0.5000 0.0000 (423542 PWs)   bands (ev):

   -28.1559 -19.3052 -15.7044 -12.6643  -8.4426  -8.0615  -7.8247  -7.7092

          k = 0.2500 0.0000 0.0000 (423725 PWs)   bands (ev):

   -28.1559 -19.3052 -15.7044 -12.6643  -8.4487  -7.9989  -7.8491  -7.8306

          k = 0.2500 0.2500 0.0000 (423766 PWs)   bands (ev):

   -28.1559 -19.3052 -15.7044 -12.6643  -8.4445  -8.0128  -7.9218  -7.7409

          k = 0.2500-0.5000 0.0000 (423782 PWs)   bands (ev):

   -28.1559 -19.3052 -15.7044 -12.6643  -8.4400  -8.0408  -7.8946  -7.8398

          k = 0.2500-0.2500 0.0000 (423766 PWs)   bands (ev):

   -28.1559 -19.3052 -15.7044 -12.6643  -8.4445  -8.0127  -7.9221  -7.7501

          k =-0.5000 0.0000 0.0000 (423542 PWs)   bands (ev):

   -28.1559 -19.3052 -15.7044 -12.6643  -8.4453  -8.0215  -7.8337  -7.8323

          k =-0.5000 0.2500 0.0000 (423782 PWs)   bands (ev):

   -28.1559 -19.3052 -15.7044 -12.6643  -8.4414  -7.9984  -7.9568  -7.8104

          k =-0.5000-0.5000 0.0000 (423708 PWs)   bands (ev):

   -28.1559 -19.3052 -15.7044 -12.6643  -8.4373  -8.0022  -7.9327  -7.9235

     the Fermi energy is   -12.7788 ev

!    total energy              =     -22.44751066 Ry
     estimated scf accuracy    <          9.7E-11 Ry
     smearing contrib. (-TS)   =       0.00028990 Ry
     internal energy E=F+TS    =     -22.44780055 Ry

     The total energy is F=E-TS. E is the sum of the following terms:
     one-electron contribution =     -52.11199835 Ry
     hartree contribution      =      24.91357571 Ry
     xc contribution           =      -6.72451262 Ry
     ewald contribution        =       7.21383737 Ry
     Dispersion Correction     =      -0.00008905 Ry
     electric field correction =       4.26138638 Ry

     total magnetization       =     1.00 Bohr mag/cell
     absolute magnetization    =     1.07 Bohr mag/cell

     convergence has been achieved in   5 iterations

     negative rho (up, down):  2.444E-04 1.726E-04

     Forces acting on atoms (cartesian axes, Ry/au):

     atom    1 type  1   force =     0.00000000   -0.00000001    0.00422144
     atom    2 type  2   force =    -0.00000000    0.00010180   -0.00211073
     atom    3 type  2   force =    -0.00000000   -0.00010179   -0.00211072

     Total force =     0.002988     Total SCF correction =     0.000003
     Energy error            =      6.5E-05
     Gradient error          =      2.1E-03

     number of scf cycles    =   4
     number of bfgs steps    =   3

     energy   old            =     -22.4474461051 Ry
     energy   new            =     -22.4475106581 Ry

     CASE: energy  _new < energy  _old

     new trust radius        =       0.0101895081 bohr
     new conv_thr            =       0.0000000005 Ry


ATOMIC_POSITIONS (angstrom)
N            10.0000000000       10.0000000000        0.0000000000    0   0   0
H            10.0000000101       10.7975359773       -0.6606405377
H            10.0000000502        9.2024640692       -0.6606406019



     Writing output data file ./NH2_ESM_VA12.save/
     NEW-OLD atomic charge density approx. for the potential

     negative rho (up, down):  1.891E-04 2.098E-04

     Adding external electric field
        E field amplitude [Ha a.u.]: -2.3644E-02
        Potential amp.       -1.6085 Ry
        Total length         34.0151 bohr

     Generating pointlists ...

     total cpu time spent up to now is      597.6 secs

     Self-consistent Calculation

     iteration #  1     ecut=    60.00 Ry     beta= 0.70
     CG style diagonalization
     ethr =  1.00E-06,  avg # of iterations =  2.4

     Threshold (ethr) on eigenvalues was too large:
     Diagonalizing with lowered threshold

     CG style diagonalization
     ethr =  5.36E-08,  avg # of iterations =  2.8

     negative rho (up, down):  2.307E-04 1.815E-04

     total cpu time spent up to now is      622.3 secs

     total energy              =     -22.44754868 Ry
     estimated scf accuracy    <       0.00000465 Ry

     total magnetization       =     1.00 Bohr mag/cell
     absolute magnetization    =     1.07 Bohr mag/cell

     iteration #  2     ecut=    60.00 Ry     beta= 0.70
     CG style diagonalization
     ethr =  6.64E-08,  avg # of iterations =  3.4

     negative rho (up, down):  2.393E-04 1.757E-04

     total cpu time spent up to now is      640.6 secs

     total energy              =     -22.44754939 Ry
     estimated scf accuracy    <       0.00000083 Ry

     total magnetization       =     1.00 Bohr mag/cell
     absolute magnetization    =     1.07 Bohr mag/cell

     iteration #  3     ecut=    60.00 Ry     beta= 0.70
     CG style diagonalization
     ethr =  1.18E-08,  avg # of iterations =  3.4

     negative rho (up, down):  2.437E-04 1.723E-04

     total cpu time spent up to now is      659.1 secs

     total energy              =     -22.44754974 Ry
     estimated scf accuracy    <       0.00000009 Ry

     total magnetization       =     1.00 Bohr mag/cell
     absolute magnetization    =     1.07 Bohr mag/cell

     iteration #  4     ecut=    60.00 Ry     beta= 0.70
     CG style diagonalization
     ethr =  1.33E-09,  avg # of iterations =  3.0

     negative rho (up, down):  2.441E-04 1.723E-04

     total cpu time spent up to now is      677.0 secs

     total energy              =     -22.44754975 Ry
     estimated scf accuracy    <          2.9E-09 Ry

     total magnetization       =     1.00 Bohr mag/cell
     absolute magnetization    =     1.07 Bohr mag/cell

     iteration #  5     ecut=    60.00 Ry     beta= 0.70
     CG style diagonalization
     ethr =  4.21E-11,  avg # of iterations =  3.4

     negative rho (up, down):  2.442E-04 1.723E-04

     total cpu time spent up to now is      695.7 secs

     total energy              =     -22.44754975 Ry
     estimated scf accuracy    <          5.4E-10 Ry

     total magnetization       =     1.00 Bohr mag/cell
     absolute magnetization    =     1.07 Bohr mag/cell

     iteration #  6     ecut=    60.00 Ry     beta= 0.70
     CG style diagonalization
     ethr =  7.77E-12,  avg # of iterations =  4.1

     negative rho (up, down):  2.442E-04 1.723E-04

     total cpu time spent up to now is      715.7 secs

     total energy              =     -22.44754975 Ry
     estimated scf accuracy    <          2.0E-09 Ry

     total magnetization       =     1.00 Bohr mag/cell
     absolute magnetization    =     1.07 Bohr mag/cell

     iteration #  7     ecut=    60.00 Ry     beta= 0.70
     CG style diagonalization
     ethr =  7.77E-12,  avg # of iterations =  4.0

     negative rho (up, down):  2.442E-04 1.723E-04

     Magnetic moment per site:
     atom:    1    charge:    1.3495    magn:    0.2671    constr:    0.0000
     atom:    2    charge:    0.4489    magn:   -0.0053    constr:    0.0000
     atom:    3    charge:    0.4489    magn:   -0.0053    constr:    0.0000

     total cpu time spent up to now is      733.8 secs

     End of self-consistent calculation

 ------ SPIN UP ------------


          k = 0.0000 0.0000 0.0000 (423701 PWs)   bands (ev):

   -29.4212 -19.6385 -16.3011 -15.8379  -8.6473  -8.0056  -7.8875  -7.8606

          k = 0.0000 0.2500 0.0000 (423725 PWs)   bands (ev):

   -29.4212 -19.6385 -16.3011 -15.8379  -8.6457  -8.0430  -7.8780  -7.8453

          k = 0.0000-0.5000 0.0000 (423542 PWs)   bands (ev):

   -29.4212 -19.6385 -16.3011 -15.8379  -8.6439  -8.0711  -7.8548  -7.8245

          k = 0.2500 0.0000 0.0000 (423725 PWs)   bands (ev):

   -29.4212 -19.6385 -16.3011 -15.8379  -8.6459  -8.0312  -7.8751  -7.8737

          k = 0.2500 0.2500 0.0000 (423766 PWs)   bands (ev):

   -29.4212 -19.6385 -16.3011 -15.8379  -8.6443  -8.0338  -7.9583  -7.7743

          k = 0.2500-0.5000 0.0000 (423782 PWs)   bands (ev):

   -29.4212 -19.6385 -16.3011 -15.8379  -8.6427  -8.0509  -7.9494  -7.8487

          k = 0.2500-0.2500 0.0000 (423766 PWs)   bands (ev):

   -29.4212 -19.6385 -16.3011 -15.8379  -8.6443  -8.0337  -7.9581  -7.7746

          k =-0.5000 0.0000 0.0000 (423542 PWs)   bands (ev):

   -29.4212 -19.6385 -16.3011 -15.8379  -8.6445  -8.0543  -7.8626  -7.8601

          k =-0.5000 0.2500 0.0000 (423782 PWs)   bands (ev):

   -29.4212 -19.6385 -16.3011 -15.8379  -8.6430  -8.0326  -7.9741  -7.8388

          k =-0.5000-0.5000 0.0000 (423708 PWs)   bands (ev):

   -29.4212 -19.6385 -16.3011 -15.8379  -8.6415  -8.0146  -7.9877  -7.9293

 ------ SPIN DOWN ----------


          k = 0.0000 0.0000 0.0000 (423701 PWs)   bands (ev):

   -28.1580 -19.2692 -15.7273 -12.6642  -8.4504  -7.9765  -7.8620  -7.7710

          k = 0.0000 0.2500 0.0000 (423725 PWs)   bands (ev):

   -28.1580 -19.2692 -15.7273 -12.6642  -8.4458  -8.0249  -7.8535  -7.7478

          k = 0.0000-0.5000 0.0000 (423542 PWs)   bands (ev):

   -28.1580 -19.2692 -15.7273 -12.6642  -8.4409  -8.0609  -7.8248  -7.7086

          k = 0.2500 0.0000 0.0000 (423725 PWs)   bands (ev):

   -28.1580 -19.2692 -15.7273 -12.6642  -8.4471  -7.9987  -7.8480  -7.8305

          k = 0.2500 0.2500 0.0000 (423766 PWs)   bands (ev):

   -28.1580 -19.2692 -15.7273 -12.6642  -8.4428  -8.0124  -7.9214  -7.7411

          k = 0.2500-0.5000 0.0000 (423782 PWs)   bands (ev):

   -28.1580 -19.2692 -15.7273 -12.6642  -8.4382  -8.0402  -7.8944  -7.8395

          k = 0.2500-0.2500 0.0000 (423766 PWs)   bands (ev):

   -28.1580 -19.2692 -15.7273 -12.6642  -8.4428  -8.0123  -7.9217  -7.7498

          k =-0.5000 0.0000 0.0000 (423542 PWs)   bands (ev):

   -28.1580 -19.2692 -15.7273 -12.6642  -8.4436  -8.0214  -7.8334  -7.8309

          k =-0.5000 0.2500 0.0000 (423782 PWs)   bands (ev):

   -28.1580 -19.2692 -15.7273 -12.6642  -8.4397  -7.9982  -7.9560  -7.8104

          k =-0.5000-0.5000 0.0000 (423708 PWs)   bands (ev):

   -28.1580 -19.2692 -15.7273 -12.6642  -8.4355  -8.0014  -7.9325  -7.9233

     the Fermi energy is   -12.7787 ev

!    total energy              =     -22.44754975 Ry
     estimated scf accuracy    <          5.2E-10 Ry
     smearing contrib. (-TS)   =       0.00028990 Ry
     internal energy E=F+TS    =     -22.44783965 Ry

     The total energy is F=E-TS. E is the sum of the following terms:
     one-electron contribution =     -52.10162437 Ry
     hartree contribution      =      24.90847917 Ry
     xc contribution           =      -6.72337370 Ry
     ewald contribution        =       7.20820580 Ry
     Dispersion Correction     =      -0.00008627 Ry
     electric field correction =       4.26055972 Ry

     total magnetization       =     1.00 Bohr mag/cell
     absolute magnetization    =     1.07 Bohr mag/cell

     convergence has been achieved in   7 iterations

     negative rho (up, down):  2.442E-04 1.723E-04

     Forces acting on atoms (cartesian axes, Ry/au):

     atom    1 type  1   force =    -0.00000000   -0.00000001    0.00104611
     atom    2 type  2   force =    -0.00000000    0.00067756   -0.00052306
     atom    3 type  2   force =     0.00000000   -0.00067755   -0.00052305

     Total force =     0.001211     Total SCF correction =     0.000004
     Energy error            =      3.9E-05
     Gradient error          =      6.8E-04

     number of scf cycles    =   5
     number of bfgs steps    =   4

     energy   old            =     -22.4475106581 Ry
     energy   new            =     -22.4475497524 Ry

     CASE: energy  _new < energy  _old

     new trust radius        =       0.0007899153 bohr
     new conv_thr            =       0.0000000002 Ry


ATOMIC_POSITIONS (angstrom)
N            10.0000000000       10.0000000000        0.0000000000    0   0   0
H            10.0000000108       10.7976785637       -0.6610334721
H            10.0000000520        9.2023214872       -0.6610335351



     Writing output data file ./NH2_ESM_VA12.save/
     NEW-OLD atomic charge density approx. for the potential

     negative rho (up, down):  1.884E-04 2.089E-04

     Adding external electric field
        E field amplitude [Ha a.u.]: -2.3644E-02
        Potential amp.       -1.6085 Ry
        Total length         34.0151 bohr

     Generating pointlists ...

     total cpu time spent up to now is      755.2 secs

     Self-consistent Calculation

     iteration #  1     ecut=    60.00 Ry     beta= 0.70
     CG style diagonalization
     ethr =  1.00E-06,  avg # of iterations =  2.0

     Threshold (ethr) on eigenvalues was too large:
     Diagonalizing with lowered threshold

     CG style diagonalization
     ethr =  9.31E-10,  avg # of iterations =  2.8

     negative rho (up, down):  2.301E-04 1.807E-04

     total cpu time spent up to now is      779.2 secs

     total energy              =     -22.44755219 Ry
     estimated scf accuracy    <       0.00000014 Ry

     total magnetization       =     1.00 Bohr mag/cell
     absolute magnetization    =     1.07 Bohr mag/cell

     iteration #  2     ecut=    60.00 Ry     beta= 0.70
     CG style diagonalization
     ethr =  2.06E-09,  avg # of iterations =  3.4

     negative rho (up, down):  2.386E-04 1.760E-04

     total cpu time spent up to now is      797.7 secs

     total energy              =     -22.44755222 Ry
     estimated scf accuracy    <       0.00000002 Ry

     total magnetization       =     1.00 Bohr mag/cell
     absolute magnetization    =     1.07 Bohr mag/cell

     iteration #  3     ecut=    60.00 Ry     beta= 0.70
     CG style diagonalization
     ethr =  2.92E-10,  avg # of iterations =  3.4

     negative rho (up, down):  2.434E-04 1.724E-04

     total cpu time spent up to now is      816.3 secs

     total energy              =     -22.44755224 Ry
     estimated scf accuracy    <          7.8E-10 Ry

     total magnetization       =     1.00 Bohr mag/cell
     absolute magnetization    =     1.07 Bohr mag/cell

     iteration #  4     ecut=    60.00 Ry     beta= 0.70
     CG style diagonalization
     ethr =  1.12E-11,  avg # of iterations =  3.6

     negative rho (up, down):  2.438E-04 1.724E-04

     total cpu time spent up to now is      835.1 secs

     total energy              =     -22.44755224 Ry
     estimated scf accuracy    <          6.1E-10 Ry

     total magnetization       =     1.00 Bohr mag/cell
     absolute magnetization    =     1.07 Bohr mag/cell

     iteration #  5     ecut=    60.00 Ry     beta= 0.70
     CG style diagonalization
     ethr =  8.70E-12,  avg # of iterations =  3.4

     negative rho (up, down):  2.441E-04 1.722E-04

     Magnetic moment per site:
     atom:    1    charge:    1.3493    magn:    0.2671    constr:    0.0000
     atom:    2    charge:    0.4486    magn:   -0.0053    constr:    0.0000
     atom:    3    charge:    0.4486    magn:   -0.0053    constr:    0.0000

     total cpu time spent up to now is      851.9 secs

     End of self-consistent calculation

 ------ SPIN UP ------------


          k = 0.0000 0.0000 0.0000 (423701 PWs)   bands (ev):

   -29.4181 -19.6347 -16.3017 -15.8374  -8.6478  -8.0057  -7.8876  -7.8606

          k = 0.0000 0.2500 0.0000 (423725 PWs)   bands (ev):

   -29.4181 -19.6347 -16.3017 -15.8374  -8.6461  -8.0430  -7.8782  -7.8454

          k = 0.0000-0.5000 0.0000 (423542 PWs)   bands (ev):

   -29.4181 -19.6347 -16.3017 -15.8374  -8.6444  -8.0711  -7.8549  -7.8245

          k = 0.2500 0.0000 0.0000 (423725 PWs)   bands (ev):

   -29.4181 -19.6347 -16.3017 -15.8374  -8.6464  -8.0314  -7.8752  -7.8737

          k = 0.2500 0.2500 0.0000 (423766 PWs)   bands (ev):

   -29.4181 -19.6347 -16.3017 -15.8374  -8.6448  -8.0338  -7.9584  -7.7744

          k = 0.2500-0.5000 0.0000 (423782 PWs)   bands (ev):

   -29.4181 -19.6347 -16.3017 -15.8374  -8.6432  -8.0510  -7.9495  -7.8487

          k = 0.2500-0.2500 0.0000 (423766 PWs)   bands (ev):

   -29.4181 -19.6347 -16.3017 -15.8374  -8.6448  -8.0338  -7.9582  -7.7747

          k =-0.5000 0.0000 0.0000 (423542 PWs)   bands (ev):

   -29.4181 -19.6347 -16.3017 -15.8374  -8.6450  -8.0543  -7.8626  -7.8601

          k =-0.5000 0.2500 0.0000 (423782 PWs)   bands (ev):

   -29.4181 -19.6347 -16.3017 -15.8374  -8.6435  -8.0326  -7.9742  -7.8389

          k =-0.5000-0.5000 0.0000 (423708 PWs)   bands (ev):

   -29.4181 -19.6347 -16.3017 -15.8374  -8.6419  -8.0146  -7.9877  -7.9293

 ------ SPIN DOWN ----------


          k = 0.0000 0.0000 0.0000 (423701 PWs)   bands (ev):

   -28.1548 -19.2654 -15.7280 -12.6637  -8.4508  -7.9766  -7.8620  -7.7710

          k = 0.0000 0.2500 0.0000 (423725 PWs)   bands (ev):

   -28.1548 -19.2654 -15.7280 -12.6637  -8.4462  -8.0250  -7.8535  -7.7479

          k = 0.0000-0.5000 0.0000 (423542 PWs)   bands (ev):

   -28.1548 -19.2654 -15.7280 -12.6637  -8.4412  -8.0609  -7.8251  -7.7086

          k = 0.2500 0.0000 0.0000 (423725 PWs)   bands (ev):

   -28.1548 -19.2654 -15.7280 -12.6637  -8.4475  -7.9988  -7.8481  -7.8306

          k = 0.2500 0.2500 0.0000 (423766 PWs)   bands (ev):

   -28.1548 -19.2654 -15.7280 -12.6637  -8.4432  -8.0124  -7.9214  -7.7415

          k = 0.2500-0.5000 0.0000 (423782 PWs)   bands (ev):

   -28.1548 -19.2654 -15.7280 -12.6637  -8.4386  -8.0402  -7.8944  -7.8395

          k = 0.2500-0.2500 0.0000 (423766 PWs)   bands (ev):

   -28.1548 -19.2654 -15.7280 -12.6637  -8.4432  -8.0123  -7.9217  -7.7498

          k =-0.5000 0.0000 0.0000 (423542 PWs)   bands (ev):

   -28.1548 -19.2654 -15.7280 -12.6637  -8.4440  -8.0214  -7.8335  -7.8309

          k =-0.5000 0.2500 0.0000 (423782 PWs)   bands (ev):

   -28.1548 -19.2654 -15.7280 -12.6637  -8.4401  -7.9982  -7.9560  -7.8104

          k =-0.5000-0.5000 0.0000 (423708 PWs)   bands (ev):

   -28.1548 -19.2654 -15.7280 -12.6637  -8.4359  -8.0014  -7.9325  -7.9233

     the Fermi energy is   -12.7783 ev

!    total energy              =     -22.44755224 Ry
     estimated scf accuracy    <          3.4E-12 Ry
     smearing contrib. (-TS)   =       0.00028990 Ry
     internal energy E=F+TS    =     -22.44784213 Ry

     The total energy is F=E-TS. E is the sum of the following terms:
     one-electron contribution =     -52.09556370 Ry
     hartree contribution      =      24.90560463 Ry
     xc contribution           =      -6.72281963 Ry
     ewald contribution        =       7.20453348 Ry
     Dispersion Correction     =      -0.00008641 Ry
     electric field correction =       4.26048950 Ry

     total magnetization       =     1.00 Bohr mag/cell
     absolute magnetization    =     1.07 Bohr mag/cell

     convergence has been achieved in   5 iterations

     negative rho (up, down):  2.441E-04 1.722E-04

     Forces acting on atoms (cartesian axes, Ry/au):

     atom    1 type  1   force =     0.00000000   -0.00000000    0.00035945
     atom    2 type  2   force =    -0.00000000    0.00030119   -0.00017973
     atom    3 type  2   force =    -0.00000000   -0.00030118   -0.00017973

     Total force =     0.000496     Total SCF correction =     0.000000
     Energy error            =      2.5E-06
     Gradient error          =      3.0E-04

     number of scf cycles    =   6
     number of bfgs steps    =   5

     energy   old            =     -22.4475497524 Ry
     energy   new            =     -22.4475522380 Ry

     CASE: energy  _new < energy  _old

     new trust radius        =       0.0004473206 bohr
     new conv_thr            =            1.0E-10 Ry


ATOMIC_POSITIONS (angstrom)
N            10.0000000000       10.0000000000        0.0000000000    0   0   0
H            10.0000000106       10.7978969109       -0.6611248887
H            10.0000000519        9.2021031413       -0.6611249513



     Writing output data file ./NH2_ESM_VA12.save/
     NEW-OLD atomic charge density approx. for the potential

     negative rho (up, down):  1.882E-04 2.087E-04

     Adding external electric field
        E field amplitude [Ha a.u.]: -2.3644E-02
        Potential amp.       -1.6085 Ry
        Total length         34.0151 bohr

     Generating pointlists ...

     total cpu time spent up to now is      872.8 secs

     Self-consistent Calculation

     iteration #  1     ecut=    60.00 Ry     beta= 0.70
     CG style diagonalization
     ethr =  1.00E-06,  avg # of iterations =  2.0

     Threshold (ethr) on eigenvalues was too large:
     Diagonalizing with lowered threshold

     CG style diagonalization
     ethr =  4.33E-10,  avg # of iterations =  2.4

     negative rho (up, down):  2.300E-04 1.806E-04

     total cpu time spent up to now is      896.1 secs

     total energy              =     -22.44755276 Ry
     estimated scf accuracy    <       0.00000006 Ry

     total magnetization       =     1.00 Bohr mag/cell
     absolute magnetization    =     1.07 Bohr mag/cell

     iteration #  2     ecut=    60.00 Ry     beta= 0.70
     CG style diagonalization
     ethr =  9.04E-10,  avg # of iterations =  3.4

     negative rho (up, down):  2.381E-04 1.763E-04

     total cpu time spent up to now is      914.6 secs

     total energy              =     -22.44755278 Ry
     estimated scf accuracy    <       0.00000001 Ry

     total magnetization       =     1.00 Bohr mag/cell
     absolute magnetization    =     1.07 Bohr mag/cell

     iteration #  3     ecut=    60.00 Ry     beta= 0.70
     CG style diagonalization
     ethr =  2.02E-10,  avg # of iterations =  3.4

     negative rho (up, down):  2.430E-04 1.727E-04

     total cpu time spent up to now is      933.2 secs

     total energy              =     -22.44755279 Ry
     estimated scf accuracy    <          3.3E-10 Ry

     total magnetization       =     1.00 Bohr mag/cell
     absolute magnetization    =     1.07 Bohr mag/cell

     iteration #  4     ecut=    60.00 Ry     beta= 0.70
     CG style diagonalization
     ethr =  4.69E-12,  avg # of iterations =  3.4

     negative rho (up, down):  2.441E-04 1.722E-04

     Magnetic moment per site:
     atom:    1    charge:    1.3493    magn:    0.2671    constr:    0.0000
     atom:    2    charge:    0.4485    magn:   -0.0054    constr:    0.0000
     atom:    3    charge:    0.4485    magn:   -0.0054    constr:    0.0000

     total cpu time spent up to now is      949.9 secs

     End of self-consistent calculation

 ------ SPIN UP ------------


          k = 0.0000 0.0000 0.0000 (423701 PWs)   bands (ev):

   -29.4158 -19.6334 -16.3011 -15.8370  -8.6481  -8.0058  -7.8877  -7.8607

          k = 0.0000 0.2500 0.0000 (423725 PWs)   bands (ev):

   -29.4158 -19.6334 -16.3011 -15.8370  -8.6465  -8.0431  -7.8783  -7.8454

          k = 0.0000-0.5000 0.0000 (423542 PWs)   bands (ev):

   -29.4158 -19.6334 -16.3011 -15.8370  -8.6447  -8.0712  -7.8550  -7.8246

          k = 0.2500 0.0000 0.0000 (423725 PWs)   bands (ev):

   -29.4158 -19.6334 -16.3011 -15.8370  -8.6468  -8.0314  -7.8753  -7.8737

          k = 0.2500 0.2500 0.0000 (423766 PWs)   bands (ev):

   -29.4158 -19.6334 -16.3011 -15.8370  -8.6452  -8.0338  -7.9584  -7.7744

          k = 0.2500-0.5000 0.0000 (423782 PWs)   bands (ev):

   -29.4158 -19.6334 -16.3011 -15.8370  -8.6435  -8.0510  -7.9496  -7.8487

          k = 0.2500-0.2500 0.0000 (423766 PWs)   bands (ev):

   -29.4158 -19.6334 -16.3011 -15.8370  -8.6452  -8.0338  -7.9583  -7.7748

          k =-0.5000 0.0000 0.0000 (423542 PWs)   bands (ev):

   -29.4158 -19.6334 -16.3011 -15.8370  -8.6454  -8.0544  -7.8627  -7.8601

          k =-0.5000 0.2500 0.0000 (423782 PWs)   bands (ev):

   -29.4158 -19.6334 -16.3011 -15.8370  -8.6439  -8.0326  -7.9743  -7.8390

          k =-0.5000-0.5000 0.0000 (423708 PWs)   bands (ev):

   -29.4158 -19.6334 -16.3011 -15.8370  -8.6423  -8.0146  -7.9877  -7.9293

 ------ SPIN DOWN ----------


          k = 0.0000 0.0000 0.0000 (423701 PWs)   bands (ev):

   -28.1523 -19.2642 -15.7275 -12.6634  -8.4511  -7.9768  -7.8620  -7.7710

          k = 0.0000 0.2500 0.0000 (423725 PWs)   bands (ev):

   -28.1523 -19.2642 -15.7275 -12.6634  -8.4465  -8.0251  -7.8536  -7.7480

          k = 0.0000-0.5000 0.0000 (423542 PWs)   bands (ev):

   -28.1523 -19.2642 -15.7275 -12.6634  -8.4416  -8.0609  -7.8254  -7.7086

          k = 0.2500 0.0000 0.0000 (423725 PWs)   bands (ev):

   -28.1523 -19.2642 -15.7275 -12.6634  -8.4478  -7.9988  -7.8482  -7.8306

          k = 0.2500 0.2500 0.0000 (423766 PWs)   bands (ev):

   -28.1523 -19.2642 -15.7275 -12.6634  -8.4435  -8.0124  -7.9215  -7.7419

          k = 0.2500-0.5000 0.0000 (423782 PWs)   bands (ev):

   -28.1523 -19.2642 -15.7275 -12.6634  -8.4390  -8.0402  -7.8944  -7.8396

          k = 0.2500-0.2500 0.0000 (423766 PWs)   bands (ev):

   -28.1523 -19.2642 -15.7275 -12.6634  -8.4435  -8.0124  -7.9217  -7.7498

          k =-0.5000 0.0000 0.0000 (423542 PWs)   bands (ev):

   -28.1523 -19.2642 -15.7275 -12.6634  -8.4444  -8.0214  -7.8336  -7.8309

          k =-0.5000 0.2500 0.0000 (423782 PWs)   bands (ev):

   -28.1523 -19.2642 -15.7275 -12.6634  -8.4404  -7.9982  -7.9561  -7.8105

          k =-0.5000-0.5000 0.0000 (423708 PWs)   bands (ev):

   -28.1523 -19.2642 -15.7275 -12.6634  -8.4363  -8.0015  -7.9325  -7.9233

     the Fermi energy is   -12.7779 ev

!    total energy              =     -22.44755279 Ry
     estimated scf accuracy    <          2.6E-11 Ry
     smearing contrib. (-TS)   =       0.00028990 Ry
     internal energy E=F+TS    =     -22.44784268 Ry

     The total energy is F=E-TS. E is the sum of the following terms:
     one-electron contribution =     -52.09158164 Ry
     hartree contribution      =      24.90368607 Ry
     xc contribution           =      -6.72245467 Ry
     ewald contribution        =       7.20212102 Ry
     Dispersion Correction     =      -0.00008663 Ry
     electric field correction =       4.26047316 Ry

     total magnetization       =     1.00 Bohr mag/cell
     absolute magnetization    =     1.07 Bohr mag/cell

     convergence has been achieved in   4 iterations

     negative rho (up, down):  2.441E-04 1.722E-04

     Forces acting on atoms (cartesian axes, Ry/au):

     atom    1 type  1   force =     0.00000000    0.00000000   -0.00000292
     atom    2 type  2   force =    -0.00000000    0.00000664    0.00000146
     atom    3 type  2   force =    -0.00000000   -0.00000664    0.00000146

     Total force =     0.000010     Total SCF correction =     0.000002
     SCF correction compared to forces is large: reduce conv_thr to get better values
     Energy error            =      5.5E-07
     Gradient error          =      6.6E-06

     bfgs converged in   7 scf cycles and   6 bfgs steps
     (criteria: energy <  7.3E-07 Ry, force <  3.9E-04 Ry/Bohr)

     End of BFGS Geometry Optimization

     Final energy   =     -22.4475527886 Ry

     File ./NH2_ESM_VA12.bfgs deleted, as requested
Begin final coordinates

ATOMIC_POSITIONS (angstrom)
N            10.0000000000       10.0000000000        0.0000000000    0   0   0
H            10.0000000106       10.7978969109       -0.6611248887
H            10.0000000519        9.2021031413       -0.6611249513
End final coordinates



     Writing output data file ./NH2_ESM_VA12.save/

     init_run     :     20.21s CPU     21.34s WALL (       1 calls)
     electrons    :    761.97s CPU    816.17s WALL (       7 calls)
     update_pot   :     46.71s CPU     49.35s WALL (       6 calls)
     forces       :     56.50s CPU     60.80s WALL (       7 calls)

     Called by init_run:
     wfcinit      :      1.65s CPU      1.78s WALL (       1 calls)
     potinit      :      7.25s CPU      7.85s WALL (       1 calls)
     hinit0       :      1.26s CPU      1.43s WALL (       1 calls)

     Called by electrons:
     c_bands      :    307.96s CPU    312.93s WALL (      46 calls)
     sum_band     :    104.60s CPU    108.03s WALL (      46 calls)
     v_of_rho     :    266.03s CPU    289.39s WALL (      47 calls)
     newd         :     35.36s CPU     37.26s WALL (      47 calls)
     mix_rho      :     46.51s CPU     56.28s WALL (      46 calls)

     Called by c_bands:
     init_us_2    :      1.71s CPU      1.79s WALL (     300 calls)
     ccgdiagg     :    246.33s CPU    249.29s WALL (     138 calls)
     wfcrot       :     56.06s CPU     56.72s WALL (     102 calls)

     Called by *cgdiagg:
     h_psi        :    265.49s CPU    268.67s WALL (    3284 calls)
     s_psi        :     13.44s CPU     13.59s WALL (    6466 calls)

     Called by h_psi:
     h_psi:calbec :     10.02s CPU     10.15s WALL (    3284 calls)
     vloc_psi     :    242.34s CPU    245.23s WALL (    3284 calls)
     add_vuspsi   :     11.83s CPU     11.98s WALL (    3284 calls)
     hs_1psi      :    220.21s CPU    222.86s WALL (    3182 calls)
     s_1psi       :     15.06s CPU     15.24s WALL (    3182 calls)

     General routines
     calbec       :     19.24s CPU     19.56s WALL (    6688 calls)
     fft          :    298.72s CPU    306.79s WALL (    1284 calls)
     ffts         :     15.81s CPU     15.96s WALL (     186 calls)
     fftw         :    229.75s CPU    232.42s WALL (    9100 calls)
     interpolate  :     32.56s CPU     34.71s WALL (      94 calls)
     davcio       :      0.12s CPU      5.67s WALL (     721 calls)

     Parallel routines
     fft_scatt_xy :     85.31s CPU     86.36s WALL (   10570 calls)
     fft_scatt_yz :    197.35s CPU    199.75s WALL (   10570 calls)

     PWSCF        :  14m58.25s CPU  16m 1.80s WALL


   This run was terminated on:  21: 9:41  28Sep2022            

=------------------------------------------------------------------------------=
   JOB DONE.
=------------------------------------------------------------------------------=
