
     Program PHONON v.6.7MaX starts on 29Sep2022 at  0:51:30 

     This program is part of the open-source Quantum ESPRESSO suite
     for quantum simulation of materials; please cite
         "P. Giannozzi et al., J. Phys.:Condens. Matter 21 395502 (2009);
         "P. Giannozzi et al., J. Phys.:Condens. Matter 29 465901 (2017);
          URL http://www.quantum-espresso.org", 
     in publications or presentations arising from this work. More details at
     http://www.quantum-espresso.org/quote

     Parallel version (MPI), running on   120 processors

     MPI processes distributed on     1 nodes
     K-points division:     npool     =       8
     R & G space division:  proc/nbgrp/npool/nimage =      15
     Waiting for input...
     Reading input from standard input

     Reading xml data from directory:

     ./NH2_ESM_VA12.save/

     IMPORTANT: XC functional enforced from input :
     Exchange-correlation= PBE
                           (   1   4   3   4   0   0   0)
     Any further DFT definition will be discarded
     Please, verify this is what you really want


     Parallelization info
     --------------------
     sticks:   dense  smooth     PW     G-vecs:    dense   smooth      PW
     Min        3636    1818    468               639190   225950   29545
     Max        3637    1819    470               639197   225953   29547
     Sum       54553   27281   7033              9587919  3389267  443191


     Adding external electric field
        E field amplitude [Ha a.u.]: -2.3644E-02
        Potential amp.       -1.6085 Ry
        Total length         34.0151 bohr


     negative rho (up, down):  2.441E-04 1.722E-04
     Reading collected, re-writing distributed wavefunctions

     Calculation of q =    0.0000000   0.0000000   0.0000000

     phonons (vibrational modes) for NH2                                        

     bravais-lattice index     =            0
     lattice parameter (alat)  =      37.7945  a.u.
     unit-cell volume          =   53986.6760 (a.u.)^3
     number of atoms/cell      =            3
     number of atomic types    =            2
     kinetic-energy cut-off    =      60.0000  Ry
     charge density cut-off    =     480.0000  Ry
     convergence threshold     =      1.0E-12
     beta                      =       0.7000
     number of iterations used =            4
     Exchange-correlation= PBE
                           (   1   4   3   4   0   0   0)


     celldm(1)=   37.79452  celldm(2)=    0.00000  celldm(3)=    0.00000
     celldm(4)=    0.00000  celldm(5)=    0.00000  celldm(6)=    0.00000

     crystal axes: (cart. coord. in units of alat)
               a(1) = (  1.0000  0.0000  0.0000 )  
               a(2) = (  0.0000  1.0000  0.0000 )  
               a(3) = (  0.0000  0.0000  1.0000 )  

     reciprocal axes: (cart. coord. in units 2 pi/alat)
               b(1) = (  1.0000  0.0000  0.0000 )  
               b(2) = (  0.0000  1.0000  0.0000 )  
               b(3) = (  0.0000  0.0000  1.0000 )  


     Atoms inside the unit cell: 

     Cartesian axes

     site n.  atom      mass           positions (alat units)
        1     N   14.0067   tau(    1) = (    0.50000    0.50000    0.00000  )
        2     H    1.0078   tau(    2) = (    0.50000    0.53989   -0.03306  )
        3     H    1.0078   tau(    3) = (    0.50000    0.46011   -0.03306  )

     Computing dynamical matrix for 
                    q = (   0.0000000   0.0000000   0.0000000 )

      2 Sym.Ops. (with q -> -q+G )


     G cutoff =17367.5767  ( 639197 G-vectors)     FFT grid: (270,270,270)
     G cutoff = 8683.7884  ( 225950 G-vectors)  smooth grid: (192,192,192)

     number of k points=    20  Methfessel-Paxton smearing, width (Ry)=  0.0100
                       cart. coord. in units 2pi/alat
        k(    1) = (   0.0000000   0.0000000   0.0000000), wk =   0.0625000
        k(    2) = (   0.0000000   0.2500000   0.0000000), wk =   0.1250000
        k(    3) = (   0.0000000  -0.5000000   0.0000000), wk =   0.0625000
        k(    4) = (   0.2500000   0.0000000   0.0000000), wk =   0.1250000
        k(    5) = (   0.2500000   0.2500000   0.0000000), wk =   0.1250000
        k(    6) = (   0.2500000  -0.5000000   0.0000000), wk =   0.1250000
        k(    7) = (   0.2500000  -0.2500000   0.0000000), wk =   0.1250000
        k(    8) = (  -0.5000000   0.0000000   0.0000000), wk =   0.0625000
        k(    9) = (  -0.5000000   0.2500000   0.0000000), wk =   0.1250000
        k(   10) = (  -0.5000000  -0.5000000   0.0000000), wk =   0.0625000
        k(   11) = (   0.0000000   0.0000000   0.0000000), wk =   0.0625000
        k(   12) = (   0.0000000   0.2500000   0.0000000), wk =   0.1250000
        k(   13) = (   0.0000000  -0.5000000   0.0000000), wk =   0.0625000
        k(   14) = (   0.2500000   0.0000000   0.0000000), wk =   0.1250000
        k(   15) = (   0.2500000   0.2500000   0.0000000), wk =   0.1250000
        k(   16) = (   0.2500000  -0.5000000   0.0000000), wk =   0.1250000
        k(   17) = (   0.2500000  -0.2500000   0.0000000), wk =   0.1250000
        k(   18) = (  -0.5000000   0.0000000   0.0000000), wk =   0.0625000
        k(   19) = (  -0.5000000   0.2500000   0.0000000), wk =   0.1250000
        k(   20) = (  -0.5000000  -0.5000000   0.0000000), wk =   0.0625000

     PseudoPot. # 1 for N  read from file:
     ../../SSSP/N.pbe-n-radius_5.UPF
     MD5 check sum: 16739722b17309cd8fe442a2ace49922
     Pseudo is Ultrasoft + core correction, Zval =  5.0
     Generated using "atomic" code by A. Dal Corso  v.5.1
     Using radial grid of 1085 points,  4 beta functions with: 
                l(1) =   0
                l(2) =   0
                l(3) =   1
                l(4) =   1
     Q(r) pseudized with 0 coefficients 


     PseudoPot. # 2 for H  read from file:
     ../../SSSP/H.pbe-rrkjus_psl.1.0.0.UPF
     MD5 check sum: f52b6d4d1c606e5624b1dc7b2218f220
     Pseudo is Ultrasoft, Zval =  1.0
     Generated using "atomic" code by A. Dal Corso  v.5.1
     Using radial grid of  929 points,  2 beta functions with: 
                l(1) =   0
                l(2) =   0
     Q(r) pseudized with 0 coefficients 


     Mode symmetry, C_1 (1)     point group:


     Atomic displacements:
     There are    9 irreducible representations

     Representation     1      1 modes -  To be done

     Representation     2      1 modes -  To be done

     Representation     3      1 modes -  To be done

     Representation     4      1 modes -  To be done

     Representation     5      1 modes -  To be done

     Representation     6      1 modes -  To be done

     Representation     7      1 modes -  To be done

     Representation     8      1 modes -  To be done

     Representation     9      1 modes -  To be done



     Alpha used in Ewald sum =   2.8000

     -------------------------------------------------
     Parameters for Dispersion (Grimme-D2) Correction:
     -------------------------------------------------
       atom      VdW radius       C_6     

        N          2.640         42.670
        H          1.892          4.857

     Calculating the D2 contribution to the dynamical matrix.
     D2 energy =       -0.00008663 Ry
     Done.


     negative rho (up, down):  2.441E-04 1.722E-04
     PHONON       :   2m57.19s CPU   3m 6.14s WALL



     Representation #   1 mode #   1

     Self-consistent Calculation

     Pert. #  1: Fermi energy shift (Ry) =     3.9886E-11     0.0000E+00

      iter #   1 total cpu time :   228.8 secs   av.it.:   6.5
      thresh= 1.000E-02 alpha_mix =  0.700 |ddv_scf|^2 =  1.711E-09

     Pert. #  1: Fermi energy shift (Ry) =    -9.6894E-10     0.0000E+00

      iter #   2 total cpu time :   275.0 secs   av.it.:  14.2
      thresh= 4.136E-06 alpha_mix =  0.700 |ddv_scf|^2 =  3.671E-10

     Pert. #  1: Fermi energy shift (Ry) =     3.9288E-09     0.0000E+00

      iter #   3 total cpu time :   320.2 secs   av.it.:  13.6
      thresh= 1.916E-06 alpha_mix =  0.700 |ddv_scf|^2 =  7.143E-12

     Pert. #  1: Fermi energy shift (Ry) =    -7.2969E-09     0.0000E+00

      iter #   4 total cpu time :   367.1 secs   av.it.:  14.9
      thresh= 2.673E-07 alpha_mix =  0.700 |ddv_scf|^2 =  1.127E-13

     End of self-consistent calculation

     Convergence has been achieved 


     Representation #   2 mode #   2

     Self-consistent Calculation

     Pert. #  1: Fermi energy shift (Ry) =     1.9931E-10     0.0000E+00

      iter #   1 total cpu time :   425.2 secs   av.it.:   6.5
      thresh= 1.000E-02 alpha_mix =  0.700 |ddv_scf|^2 =  3.808E-09

     Pert. #  1: Fermi energy shift (Ry) =     1.0880E-09     0.0000E+00

      iter #   2 total cpu time :   467.0 secs   av.it.:  14.0
      thresh= 6.171E-06 alpha_mix =  0.700 |ddv_scf|^2 =  6.845E-10

     Pert. #  1: Fermi energy shift (Ry) =    -1.2565E-09     0.0000E+00

      iter #   3 total cpu time :   509.8 secs   av.it.:  13.8
      thresh= 2.616E-06 alpha_mix =  0.700 |ddv_scf|^2 =  1.588E-11

     Pert. #  1: Fermi energy shift (Ry) =     3.2291E-09     0.0000E+00

      iter #   4 total cpu time :   555.2 secs   av.it.:  14.8
      thresh= 3.985E-07 alpha_mix =  0.700 |ddv_scf|^2 =  9.989E-14

     End of self-consistent calculation

     Convergence has been achieved 


     Representation #   3 mode #   3

     Self-consistent Calculation

     Pert. #  1: Fermi energy shift (Ry) =     1.8513E-01     0.0000E+00

      iter #   1 total cpu time :   615.0 secs   av.it.:   8.0
      thresh= 1.000E-02 alpha_mix =  0.700 |ddv_scf|^2 =  3.007E-09

     Pert. #  1: Fermi energy shift (Ry) =     8.5859E-02     0.0000E+00

      iter #   2 total cpu time :   658.1 secs   av.it.:  17.2
      thresh= 5.484E-06 alpha_mix =  0.700 |ddv_scf|^2 =  4.828E-10

     Pert. #  1: Fermi energy shift (Ry) =    -2.3621E-01     0.0000E+00

      iter #   3 total cpu time :   702.4 secs   av.it.:  17.8
      thresh= 2.197E-06 alpha_mix =  0.700 |ddv_scf|^2 =  2.155E-10

     Pert. #  1: Fermi energy shift (Ry) =    -8.1640E-04     0.0000E+00

      iter #   4 total cpu time :   748.4 secs   av.it.:  17.6
      thresh= 1.468E-06 alpha_mix =  0.700 |ddv_scf|^2 =  1.769E-12

     Pert. #  1: Fermi energy shift (Ry) =    -2.7058E-03     0.0000E+00

      iter #   5 total cpu time :   797.2 secs   av.it.:  16.9
      thresh= 1.330E-07 alpha_mix =  0.700 |ddv_scf|^2 =  7.069E-13

     End of self-consistent calculation

     Convergence has been achieved 


     Representation #   4 mode #   4

     Self-consistent Calculation

     Pert. #  1: Fermi energy shift (Ry) =    -6.6539E-11     0.0000E+00

      iter #   1 total cpu time :   852.8 secs   av.it.:   4.0
      thresh= 1.000E-02 alpha_mix =  0.700 |ddv_scf|^2 =  5.734E-11

     Pert. #  1: Fermi energy shift (Ry) =     3.5494E-11     0.0000E+00

      iter #   2 total cpu time :   894.8 secs   av.it.:  13.6
      thresh= 7.572E-07 alpha_mix =  0.700 |ddv_scf|^2 =  6.043E-12

     Pert. #  1: Fermi energy shift (Ry) =     1.5614E-09     0.0000E+00

      iter #   3 total cpu time :   935.5 secs   av.it.:  13.8
      thresh= 2.458E-07 alpha_mix =  0.700 |ddv_scf|^2 =  3.803E-13

     End of self-consistent calculation

     Convergence has been achieved 


     Representation #   5 mode #   5

     Self-consistent Calculation

     Pert. #  1: Fermi energy shift (Ry) =     2.3277E-01     0.0000E+00

      iter #   1 total cpu time :   994.4 secs   av.it.:   6.5
      thresh= 1.000E-02 alpha_mix =  0.700 |ddv_scf|^2 =  3.368E-10

     Pert. #  1: Fermi energy shift (Ry) =    -1.2329E-01     0.0000E+00

      iter #   2 total cpu time :  1038.8 secs   av.it.:  18.1
      thresh= 1.835E-06 alpha_mix =  0.700 |ddv_scf|^2 =  1.159E-10

     Pert. #  1: Fermi energy shift (Ry) =     5.7293E-02     0.0000E+00

      iter #   3 total cpu time :  1083.4 secs   av.it.:  18.1
      thresh= 1.077E-06 alpha_mix =  0.700 |ddv_scf|^2 =  8.193E-12

     Pert. #  1: Fermi energy shift (Ry) =     1.5448E-02     0.0000E+00

      iter #   4 total cpu time :  1131.2 secs   av.it.:  18.0
      thresh= 2.862E-07 alpha_mix =  0.700 |ddv_scf|^2 =  4.662E-13

     End of self-consistent calculation

     Convergence has been achieved 


     Representation #   6 mode #   6

     Self-consistent Calculation

     Pert. #  1: Fermi energy shift (Ry) =    -1.8511E-01     0.0000E+00

      iter #   1 total cpu time :  1188.0 secs   av.it.:   6.5
      thresh= 1.000E-02 alpha_mix =  0.700 |ddv_scf|^2 =  2.290E-10

     Pert. #  1: Fermi energy shift (Ry) =     1.3088E-01     0.0000E+00

      iter #   2 total cpu time :  1233.7 secs   av.it.:  18.1
      thresh= 1.513E-06 alpha_mix =  0.700 |ddv_scf|^2 =  1.140E-10

     Pert. #  1: Fermi energy shift (Ry) =    -3.8076E-02     0.0000E+00

      iter #   3 total cpu time :  1277.9 secs   av.it.:  18.1
      thresh= 1.068E-06 alpha_mix =  0.700 |ddv_scf|^2 =  5.705E-12

     Pert. #  1: Fermi energy shift (Ry) =    -1.4637E-02     0.0000E+00

      iter #   4 total cpu time :  1327.0 secs   av.it.:  17.8
      thresh= 2.388E-07 alpha_mix =  0.700 |ddv_scf|^2 =  6.360E-14

     End of self-consistent calculation

     Convergence has been achieved 


     Representation #   7 mode #   7

     Self-consistent Calculation

     Pert. #  1: Fermi energy shift (Ry) =    -2.2086E-10     0.0000E+00

      iter #   1 total cpu time :  1382.3 secs   av.it.:   4.0
      thresh= 1.000E-02 alpha_mix =  0.700 |ddv_scf|^2 =  5.734E-11

     Pert. #  1: Fermi energy shift (Ry) =     1.4668E-10     0.0000E+00

      iter #   2 total cpu time :  1425.7 secs   av.it.:  13.6
      thresh= 7.572E-07 alpha_mix =  0.700 |ddv_scf|^2 =  6.043E-12

     Pert. #  1: Fermi energy shift (Ry) =     5.2437E-09     0.0000E+00

      iter #   3 total cpu time :  1466.4 secs   av.it.:  13.8
      thresh= 2.458E-07 alpha_mix =  0.700 |ddv_scf|^2 =  3.803E-13

     End of self-consistent calculation

     Convergence has been achieved 


     Representation #   8 mode #   8

     Self-consistent Calculation

     Pert. #  1: Fermi energy shift (Ry) =    -2.3277E-01     0.0000E+00

      iter #   1 total cpu time :  1524.0 secs   av.it.:   6.5
      thresh= 1.000E-02 alpha_mix =  0.700 |ddv_scf|^2 =  3.368E-10

     Pert. #  1: Fermi energy shift (Ry) =     1.2329E-01     0.0000E+00

      iter #   2 total cpu time :  1570.0 secs   av.it.:  18.1
      thresh= 1.835E-06 alpha_mix =  0.700 |ddv_scf|^2 =  1.159E-10

     Pert. #  1: Fermi energy shift (Ry) =    -5.7293E-02     0.0000E+00

      iter #   3 total cpu time :  1614.5 secs   av.it.:  18.1
      thresh= 1.077E-06 alpha_mix =  0.700 |ddv_scf|^2 =  8.193E-12

     Pert. #  1: Fermi energy shift (Ry) =    -1.5448E-02     0.0000E+00

      iter #   4 total cpu time :  1659.5 secs   av.it.:  18.0
      thresh= 2.862E-07 alpha_mix =  0.700 |ddv_scf|^2 =  4.662E-13

     End of self-consistent calculation

     Convergence has been achieved 


     Representation #   9 mode #   9

     Self-consistent Calculation

     Pert. #  1: Fermi energy shift (Ry) =    -1.8511E-01     0.0000E+00

      iter #   1 total cpu time :  1717.3 secs   av.it.:   6.5
      thresh= 1.000E-02 alpha_mix =  0.700 |ddv_scf|^2 =  2.290E-10

     Pert. #  1: Fermi energy shift (Ry) =     1.3088E-01     0.0000E+00

      iter #   2 total cpu time :  1761.6 secs   av.it.:  18.1
      thresh= 1.513E-06 alpha_mix =  0.700 |ddv_scf|^2 =  1.140E-10

     Pert. #  1: Fermi energy shift (Ry) =    -3.8075E-02     0.0000E+00

      iter #   3 total cpu time :  1806.3 secs   av.it.:  18.1
      thresh= 1.068E-06 alpha_mix =  0.700 |ddv_scf|^2 =  5.705E-12

     Pert. #  1: Fermi energy shift (Ry) =    -1.4637E-02     0.0000E+00

      iter #   4 total cpu time :  1854.4 secs   av.it.:  17.8
      thresh= 2.388E-07 alpha_mix =  0.700 |ddv_scf|^2 =  6.361E-14

     End of self-consistent calculation

     Convergence has been achieved 

     Number of q in the star =    1
     List of q in the star:
          1   0.000000000   0.000000000   0.000000000

     Diagonalizing the dynamical matrix

     q = (    0.000000000   0.000000000   0.000000000 ) 

 **************************************************************************
     freq (    1) =     -22.827373 [THz] =    -761.439207 [cm-1]
     freq (    2) =      -8.869415 [THz] =    -295.851834 [cm-1]
     freq (    3) =       4.266341 [THz] =     142.309833 [cm-1]
     freq (    4) =       8.254138 [THz] =     275.328402 [cm-1]
     freq (    5) =       8.261692 [THz] =     275.580365 [cm-1]
     freq (    6) =      21.436662 [THz] =     715.050065 [cm-1]
     freq (    7) =      45.614517 [THz] =    1521.536495 [cm-1]
     freq (    8) =      99.552992 [THz] =    3320.730358 [cm-1]
     freq (    9) =     100.715363 [THz] =    3359.502901 [cm-1]
 **************************************************************************

     Mode symmetry, C_1 (1)     point group:

     freq (   1-   1) =       -761.4  [cm-1]   --> A               I+R
     freq (   2-   2) =       -295.9  [cm-1]   --> A               I+R
     freq (   3-   3) =        142.3  [cm-1]   --> A               I+R
     freq (   4-   4) =        275.3  [cm-1]   --> A               I+R
     freq (   5-   5) =        275.6  [cm-1]   --> A               I+R
     freq (   6-   6) =        715.1  [cm-1]   --> A               I+R
     freq (   7-   7) =       1521.5  [cm-1]   --> A               I+R
     freq (   8-   8) =       3320.7  [cm-1]   --> A               I+R
     freq (   9-   9) =       3359.5  [cm-1]   --> A               I+R

     PHONON       :  27m29.35s CPU  31m18.96s WALL

     INITIALIZATION: 
     phq_setup    :     12.30s CPU     14.57s WALL (       1 calls)
     phq_init     :    147.06s CPU    151.27s WALL (       1 calls)

     phq_init     :    147.06s CPU    151.27s WALL (       1 calls)
     set_drhoc    :     23.73s CPU     23.83s WALL (       3 calls)
     init_vloc    :      0.32s CPU      0.32s WALL (       1 calls)
     init_us_1    :      0.04s CPU      0.04s WALL (       1 calls)
     newd         :      0.65s CPU      0.69s WALL (       1 calls)
     dvanqq       :     57.51s CPU     58.22s WALL (       1 calls)
     drho         :     43.52s CPU     46.11s WALL (       1 calls)

     DYNAMICAL MATRIX:
     dynmat0      :     23.88s CPU     24.66s WALL (       1 calls)
     phqscf       :   1470.92s CPU   1684.41s WALL (       1 calls)
     dynmatrix    :      0.88s CPU      0.97s WALL (       1 calls)

     phqscf       :   1470.92s CPU   1684.41s WALL (       1 calls)
     solve_linter :   1459.73s CPU   1660.01s WALL (       9 calls)
     drhodv       :     11.18s CPU     11.62s WALL (       9 calls)

     dynmat0      :     23.88s CPU     24.66s WALL (       1 calls)
     dynmat_us    :      1.72s CPU      1.80s WALL (       1 calls)
     d2ionq       :      0.50s CPU      0.50s WALL (       1 calls)
     dynmatcc     :     21.26s CPU     21.94s WALL (       1 calls)

     dynmat_us    :      1.72s CPU      1.80s WALL (       1 calls)
     addusdynmat  :      0.00s CPU      0.00s WALL (       1 calls)

     phqscf       :   1470.92s CPU   1684.41s WALL (       1 calls)
     solve_linter :   1459.73s CPU   1660.01s WALL (       9 calls)

     solve_linter :   1459.73s CPU   1660.01s WALL (       9 calls)
     dvqpsi_us    :     18.17s CPU     18.58s WALL (      27 calls)
     ortho        :      2.92s CPU      2.98s WALL (     105 calls)
     cgsolve      :    483.84s CPU    489.59s WALL (     105 calls)
     incdrhoscf   :     30.29s CPU     30.76s WALL (     105 calls)
     addusddens   :     84.72s CPU     92.07s WALL (      44 calls)
     vpsifft      :     22.08s CPU     22.47s WALL (      78 calls)
     dv_of_drho   :    227.07s CPU    241.58s WALL (      35 calls)
     mix_pot      :     10.26s CPU     34.17s WALL (      35 calls)
     ef_shift     :     36.22s CPU     36.94s WALL (      44 calls)
     localdos     :     52.54s CPU     54.71s WALL (       9 calls)
     psymdvscf    :    163.91s CPU    250.63s WALL (      35 calls)
     newdq        :    107.15s CPU    112.54s WALL (      35 calls)
     adddvscf     :      0.75s CPU      0.76s WALL (      78 calls)
     drhodvus     :     13.44s CPU     36.08s WALL (       9 calls)

     dvqpsi_us    :     18.17s CPU     18.58s WALL (      27 calls)
     dvqpsi_us_on :      0.29s CPU      0.30s WALL (      27 calls)

     cgsolve      :    483.84s CPU    489.59s WALL (     105 calls)
     ch_psi       :    468.10s CPU    473.65s WALL (    1864 calls)

     ch_psi       :    468.10s CPU    473.65s WALL (    1864 calls)
     h_psi        :    423.45s CPU    428.52s WALL (    1864 calls)
     last         :     31.14s CPU     31.48s WALL (    1864 calls)

     h_psi        :    423.45s CPU    428.52s WALL (    1864 calls)
     add_vuspsi   :      8.92s CPU      9.01s WALL (    1864 calls)

     incdrhoscf   :     30.29s CPU     30.76s WALL (     105 calls)
     addusdbec    :      0.78s CPU      0.79s WALL (     132 calls)

     drhodvus     :     13.44s CPU     36.08s WALL (       9 calls)

      General routines
     calbec       :     25.49s CPU     25.88s WALL (    4130 calls)
     fft          :    399.01s CPU    407.91s WALL (    1543 calls)
     ffts         :     29.19s CPU     29.86s WALL (     403 calls)
     fftw         :    391.21s CPU    395.87s WALL (   14058 calls)
     davcio       :      0.22s CPU     45.77s WALL (     803 calls)
     write_rec    :      0.27s CPU     25.80s WALL (      44 calls)


     PHONON       :  27m29.35s CPU  31m18.97s WALL


   This run was terminated on:   1:22:49  29Sep2022            

=------------------------------------------------------------------------------=
   JOB DONE.
=------------------------------------------------------------------------------=
