
     Program PWSCF v.6.7MaX starts on 16Jun2022 at 19:29:31 

     This program is part of the open-source Quantum ESPRESSO suite
     for quantum simulation of materials; please cite
         "P. Giannozzi et al., J. Phys.:Condens. Matter 21 395502 (2009);
         "P. Giannozzi et al., J. Phys.:Condens. Matter 29 465901 (2017);
          URL http://www.quantum-espresso.org", 
     in publications or presentations arising from this work. More details at
     http://www.quantum-espresso.org/quote

     Parallel version (MPI), running on   256 processors

     MPI processes distributed on     2 nodes
     K-points division:     npool     =       8
     R & G space division:  proc/nbgrp/npool/nimage =      32
     Waiting for input...
     Reading input from standard input
Warning: card &CELL ignored
Warning: card / ignored

     Current dimensions of program PWSCF are:
     Max number of different atomic species (ntypx) = 10
     Max number of k-points (npk) =  40000
     Max angular momentum in pseudopotentials (lmaxx) =  3
     file Fe.pbe-spn-kjpaw_psl.0.2.1.UPF: wavefunction(s)  3D renormalized

     IMPORTANT: XC functional enforced from input :
     Exchange-correlation= PBE
                           (   1   4   3   4   0   0   0)
     Any further DFT definition will be discarded
     Please, verify this is what you really want


     -------------------------------------------------
     Parameters for Dispersion (Grimme-D2) Correction:
     -------------------------------------------------
       atom      VdW radius       C_6     

        Fe         2.952        374.666
        N          2.640         42.670
        H          1.892          4.857

     Subspace diagonalization in iterative solution of the eigenvalue problem:
     one sub-group per band group will be used
     scalapack distributed-memory algorithm (size of sub-group:  5*  5 procs)


     Parallelization info
     --------------------
     sticks:   dense  smooth     PW     G-vecs:    dense   smooth      PW
     Min         396     198     52                90796    32100    4368
     Max         397     199     53                90807    32109    4377
     Sum       12685    6351   1677              2905599  1027285  139897



     bravais-lattice index     =            0
     lattice parameter (alat)  =      18.7640  a.u.
     unit-cell volume          =   16360.3161 (a.u.)^3
     number of atoms/cell      =           67
     number of atomic types    =            3
     number of electrons       =      1031.00
     number of Kohn-Sham states=          619
     kinetic-energy cutoff     =      60.0000  Ry
     charge density cutoff     =     480.0000  Ry
     scf convergence threshold =      1.0E-08
     mixing beta               =       0.2000
     number of iterations used =           10  local-TF  mixing
     energy convergence thresh.=      7.3E-07
     force convergence thresh. =      3.9E-04
     Exchange-correlation= PBE
                           (   1   4   3   4   0   0   0)
     nstep                     =           50


     Effective Screening Medium Method
     =================================
     Boundary Conditions: Metal-Slab-Metal
     field strength                   =     0.02 Ry/a.u.
     grid points for fit at edges     =        4 


     celldm(1)=  18.764036  celldm(2)=   0.000000  celldm(3)=   0.000000
     celldm(4)=   0.000000  celldm(5)=   0.000000  celldm(6)=   0.000000

     crystal axes: (cart. coord. in units of alat)
               a(1) = (   1.000000   0.000000   0.000000 )  
               a(2) = (   0.333330   0.942807   0.000000 )  
               a(3) = (   0.000000   0.000000   2.626577 )  

     reciprocal axes: (cart. coord. in units 2 pi/alat)
               b(1) = (  1.000000 -0.353551  0.000000 )  
               b(2) = (  0.000000  1.060663  0.000000 )  
               b(3) = (  0.000000  0.000000  0.380724 )  


     PseudoPot. # 1 for Fe read from file:
     ../../SSSP/Fe.pbe-spn-kjpaw_psl.0.2.1.UPF
     MD5 check sum: e86618425769142926afa95317d90200
     Pseudo is Projector augmented-wave + core cor, Zval = 16.0
     Generated using "atomic" code by A. Dal Corso  v.5.0.99 svn rev. 10869
     Shape of augmentation charge: PSQ
     Using radial grid of 1191 points,  6 beta functions with: 
                l(1) =   0
                l(2) =   0
                l(3) =   1
                l(4) =   1
                l(5) =   2
                l(6) =   2
     Q(r) pseudized with 0 coefficients 


     PseudoPot. # 2 for N  read from file:
     ../../SSSP/N.pbe-n-radius_5.UPF
     MD5 check sum: 16739722b17309cd8fe442a2ace49922
     Pseudo is Ultrasoft + core correction, Zval =  5.0
     Generated using "atomic" code by A. Dal Corso  v.5.1
     Using radial grid of 1085 points,  4 beta functions with: 
                l(1) =   0
                l(2) =   0
                l(3) =   1
                l(4) =   1
     Q(r) pseudized with 0 coefficients 


     PseudoPot. # 3 for H  read from file:
     ../../SSSP/H.pbe-rrkjus_psl.1.0.0.UPF
     MD5 check sum: f52b6d4d1c606e5624b1dc7b2218f220
     Pseudo is Ultrasoft, Zval =  1.0
     Generated using "atomic" code by A. Dal Corso  v.5.1
     Using radial grid of  929 points,  2 beta functions with: 
                l(1) =   0
                l(2) =   0
     Q(r) pseudized with 0 coefficients 


     atomic species   valence    mass     pseudopotential
        Fe            16.00    55.84500     Fe( 1.00)
        N              5.00    14.00700     N ( 1.00)
        H              1.00     1.00800     H ( 1.00)

     Starting magnetic structure 
     atomic species   magnetization
        Fe           0.100
        N            0.100
        H            0.100

     No symmetry found



   Cartesian axes

     site n.     atom                  positions (alat units)
         1           Fe  tau(   1) = (   0.1666663   0.1178509   0.0000000  )
         2           Fe  tau(   2) = (   0.0000000   0.0000000   0.2041376  )
         3           Fe  tau(   3) = (   0.4999989   0.3535526   0.0000000  )
         4           Fe  tau(   4) = (   0.3333326   0.2357017   0.2041376  )
         5           Fe  tau(   5) = (   0.1689086   0.1177626   0.4054037  )
         6           Fe  tau(   6) = (   0.3344565   0.9421522   0.6046720  )
         7           Fe  tau(   7) = (   0.5011260   0.3549683   0.4071487  )
         8           Fe  tau(   8) = (   0.3394787   0.2351497   0.6056054  )
         9           Fe  tau(   9) = (   0.2499989   0.3535526   0.0000000  )
        10           Fe  tau(  10) = (   0.4166663   0.1178509   0.0000000  )
        11           Fe  tau(  11) = (   0.0833326   0.2357017   0.2041376  )
        12           Fe  tau(  12) = (   0.2500000   0.0000000   0.2041376  )
        13           Fe  tau(  13) = (   0.2500496   0.3534643   0.4070637  )
        14           Fe  tau(  14) = (   0.4191073   0.1195952   0.4062615  )
        15           Fe  tau(  15) = (   0.0873507   0.2338674   0.6043404  )
        16           Fe  tau(  16) = (   0.2516474   0.0011873   0.6057163  )
        17           Fe  tau(  17) = (   0.6666663   0.1178509   0.0000000  )
        18           Fe  tau(  18) = (   0.5000000   0.0000000   0.2041376  )
        19           Fe  tau(  19) = (   0.9999989   0.3535526   0.0000000  )
        20           Fe  tau(  20) = (   0.8333326   0.2357017   0.2041376  )
        21           Fe  tau(  21) = (   0.6683672   0.1184493   0.4071322  )
        22           Fe  tau(  22) = (   0.5015274   0.0059756   0.6056280  )
        23           Fe  tau(  23) = (   0.9987945   0.3520318   0.4069418  )
        24           Fe  tau(  24) = (   0.8425606   0.2225683   0.6029475  )
        25           Fe  tau(  25) = (   0.7499989   0.3535526   0.0000000  )
        26           Fe  tau(  26) = (   0.9166663   0.1178509   0.0000000  )
        27           Fe  tau(  27) = (   0.5833326   0.2357017   0.2041376  )
        28           Fe  tau(  28) = (   0.7500000   0.0000000   0.2041376  )
        29           Fe  tau(  29) = (   0.7499443   0.3534982   0.4029636  )
        30           Fe  tau(  30) = (   0.9185492   0.1149907   0.4042807  )
        31           Fe  tau(  31) = (   0.5927334   0.2423230   0.6094155  )
        32           Fe  tau(  32) = (   1.0845558   0.9385582   0.6044802  )
        33           Fe  tau(  33) = (   0.3333315   0.5892543   0.0000000  )
        34           Fe  tau(  34) = (   0.1666652   0.4714034   0.2041376  )
        35           Fe  tau(  35) = (   0.6666640   0.8249560   0.0000000  )
        36           Fe  tau(  36) = (   0.4999978   0.7071052   0.2041376  )
        37           Fe  tau(  37) = (   0.3311979   0.5893155   0.4056474  )
        38           Fe  tau(  38) = (   1.1606984   0.4711726   0.6052460  )
        39           Fe  tau(  39) = (   0.6673353   0.8271056   0.4054098  )
        40           Fe  tau(  40) = (   0.4997522   0.7084210   0.6046393  )
        41           Fe  tau(  41) = (   0.4166640   0.8249560   0.0000000  )
        42           Fe  tau(  42) = (   0.5833315   0.5892543   0.0000000  )
        43           Fe  tau(  43) = (   1.2499978   0.7071052   0.2041376  )
        44           Fe  tau(  44) = (   0.4166652   0.4714034   0.2041376  )
        45           Fe  tau(  45) = (   0.4165505   0.8248981   0.4045796  )
        46           Fe  tau(  46) = (   0.5812668   0.5919779   0.4042850  )
        47           Fe  tau(  47) = (   1.2472480   0.7051693   0.6057119  )
        48           Fe  tau(  48) = (   0.4130609   0.4740042   0.6045132  )
        49           Fe  tau(  49) = (   0.8333315   0.5892543   0.0000000  )
        50           Fe  tau(  50) = (   0.6666652   0.4714034   0.2041376  )
        51           Fe  tau(  51) = (   1.1666640   0.8249560   0.0000000  )
        52           Fe  tau(  52) = (   0.9999978   0.7071052   0.2041376  )
        53           Fe  tau(  53) = (   0.8314976   0.5886325   0.4069528  )
        54           Fe  tau(  54) = (   0.6573683   0.4844832   0.6029447  )
        55           Fe  tau(  55) = (   1.1660118   0.8229263   0.4056423  )
        56           Fe  tau(  56) = (   0.9978077   0.7015416   0.6052246  )
        57           Fe  tau(  57) = (   0.9166640   0.8249560   0.0000000  )
        58           Fe  tau(  58) = (   1.0833315   0.5892543   0.0000000  )
        59           Fe  tau(  59) = (   0.7499978   0.7071052   0.2041376  )
        60           Fe  tau(  60) = (   0.9166652   0.4714034   0.2041376  )
        61           Fe  tau(  61) = (   0.9166071   0.8250596   0.4070638  )
        62           Fe  tau(  62) = (   1.0808337   0.5874989   0.4060401  )
        63           Fe  tau(  63) = (   0.7496100   0.7115242   0.6043569  )
        64           Fe  tau(  64) = (   0.9074742   0.4648749   0.6093827  )
        65           N   tau(  65) = (   0.7501474   0.3536613   0.7048691  )
        66           H   tau(  66) = (   0.7502862   0.3537825   0.8083333  )
        67           H   tau(  67) = (   0.4595445   0.8553106   0.6995069  )

     number of k points=    10  Methfessel-Paxton smearing, width (Ry)=  0.0100
                       cart. coord. in units 2pi/alat
        k(    1) = (   0.0000000   0.0000000   0.0000000), wk =   0.0625000
        k(    2) = (   0.0000000   0.2651656   0.0000000), wk =   0.1250000
        k(    3) = (   0.0000000  -0.5303313   0.0000000), wk =   0.0625000
        k(    4) = (   0.2500000  -0.0883878   0.0000000), wk =   0.1250000
        k(    5) = (   0.2500000   0.1767779   0.0000000), wk =   0.1250000
        k(    6) = (   0.2500000  -0.6187190   0.0000000), wk =   0.1250000
        k(    7) = (   0.2500000  -0.3535534   0.0000000), wk =   0.1250000
        k(    8) = (  -0.5000000   0.1767755   0.0000000), wk =   0.0625000
        k(    9) = (  -0.5000000   0.4419412   0.0000000), wk =   0.1250000
        k(   10) = (  -0.5000000  -0.3535558   0.0000000), wk =   0.0625000

     Dense  grid:  2905599 G-vectors     FFT dimensions: ( 135, 135, 360)

     Smooth grid:  1027285 G-vectors     FFT dimensions: (  96,  96, 243)

     Estimated max dynamical RAM per process >     640.95 MB

     Estimated total dynamical RAM >     160.24 GB

     Check: negative core charge=   -0.000039
     Generating pointlists ...
     new r_m :   0.0740 (alat units)  1.3885 (a.u.) for type    1
     new r_m :   0.0427 (alat units)  0.8008 (a.u.) for type    2
     new r_m :   0.0427 (alat units)  0.8008 (a.u.) for type    3

     Initial potential from superposition of free atoms

     starting charge 1030.97192, renormalised to 1031.00000

     negative rho (up, down):  1.345E-02 1.100E-02
     Starting wfcs are  838 randomized atomic wfcs
     Checking if some PAW data can be deallocated... 

     total cpu time spent up to now is       32.2 secs

     Self-consistent Calculation

     iteration #  1     ecut=    60.00 Ry     beta= 0.20
     Davidson diagonalization with overlap
     ethr =  1.00E-04,  avg # of iterations = 17.8

     negative rho (up, down):  7.696E-03 6.221E-03

     total cpu time spent up to now is      340.0 secs

     total energy              =  -21078.57739066 Ry
     estimated scf accuracy    <    1279.02995876 Ry

     total magnetization       =    67.64 Bohr mag/cell
     absolute magnetization    =    69.51 Bohr mag/cell

     iteration #  2     ecut=    60.00 Ry     beta= 0.20
     Davidson diagonalization with overlap
     ethr =  1.00E-02,  avg # of iterations =  1.0

     negative rho (up, down):  6.128E-03 7.485E-03

     total cpu time spent up to now is      387.0 secs

     total energy              =  -21092.11447568 Ry
     estimated scf accuracy    <     353.34219021 Ry

     total magnetization       =    79.12 Bohr mag/cell
     absolute magnetization    =    81.37 Bohr mag/cell

     iteration #  3     ecut=    60.00 Ry     beta= 0.20
     Davidson diagonalization with overlap
     ethr =  1.00E-02,  avg # of iterations =  1.0

     negative rho (up, down):  7.086E-03 9.139E-03

     total cpu time spent up to now is      433.6 secs

     total energy              =  -21094.98232247 Ry
     estimated scf accuracy    <      16.08651394 Ry

     total magnetization       =   121.34 Bohr mag/cell
     absolute magnetization    =   121.94 Bohr mag/cell

     iteration #  4     ecut=    60.00 Ry     beta= 0.20
     Davidson diagonalization with overlap
     ethr =  1.56E-03,  avg # of iterations =  1.0

     negative rho (up, down):  5.407E-03 6.726E-03

     total cpu time spent up to now is      479.7 secs

     total energy              =  -21095.01472614 Ry
     estimated scf accuracy    <      20.19510054 Ry

     total magnetization       =   127.40 Bohr mag/cell
     absolute magnetization    =   127.99 Bohr mag/cell

     iteration #  5     ecut=    60.00 Ry     beta= 0.20
     Davidson diagonalization with overlap
     ethr =  1.56E-03,  avg # of iterations =  1.0

     negative rho (up, down):  1.884E-02 4.967E-02

     total cpu time spent up to now is      526.3 secs

     total energy              =  -21093.90324594 Ry
     estimated scf accuracy    <      25.07277630 Ry

     total magnetization       =   132.02 Bohr mag/cell
     absolute magnetization    =   132.65 Bohr mag/cell

     iteration #  6     ecut=    60.00 Ry     beta= 0.20
     Davidson diagonalization with overlap
     ethr =  1.56E-03,  avg # of iterations =  1.0

     negative rho (up, down):  2.176E-02 6.722E-02

     total cpu time spent up to now is      574.1 secs

     total energy              =  -21093.88650319 Ry
     estimated scf accuracy    <       9.04406915 Ry

     total magnetization       =   147.77 Bohr mag/cell
     absolute magnetization    =   148.94 Bohr mag/cell

     iteration #  7     ecut=    60.00 Ry     beta= 0.20
     Davidson diagonalization with overlap
     ethr =  8.77E-04,  avg # of iterations =  6.0

     negative rho (up, down):  4.317E-04 2.141E-02

     total cpu time spent up to now is      638.0 secs

     total energy              =  -21094.09833286 Ry
     estimated scf accuracy    <       3.35470690 Ry

     total magnetization       =   152.31 Bohr mag/cell
     absolute magnetization    =   154.36 Bohr mag/cell

     iteration #  8     ecut=    60.00 Ry     beta= 0.20
     Davidson diagonalization with overlap
     ethr =  3.25E-04,  avg # of iterations = 14.9

     negative rho (up, down):  1.596E-04 5.006E-03

     total cpu time spent up to now is      760.6 secs

     total energy              =  -21094.79550958 Ry
     estimated scf accuracy    <       4.80250387 Ry

     total magnetization       =   149.74 Bohr mag/cell
     absolute magnetization    =   153.61 Bohr mag/cell

     iteration #  9     ecut=    60.00 Ry     beta= 0.20
     Davidson diagonalization with overlap
     ethr =  3.25E-04,  avg # of iterations =  1.5

     negative rho (up, down):  5.956E-05 1.512E-03

     total cpu time spent up to now is      809.9 secs

     total energy              =  -21094.93119279 Ry
     estimated scf accuracy    <       0.46993287 Ry

     total magnetization       =   148.27 Bohr mag/cell
     absolute magnetization    =   151.77 Bohr mag/cell

     iteration # 10     ecut=    60.00 Ry     beta= 0.20
     Davidson diagonalization with overlap
     ethr =  4.56E-05,  avg # of iterations = 10.5

     negative rho (up, down):  1.254E-04 1.043E-03

     total cpu time spent up to now is      936.6 secs

     total energy              =  -21095.05901577 Ry
     estimated scf accuracy    <       0.54409317 Ry

     total magnetization       =   148.72 Bohr mag/cell
     absolute magnetization    =   152.66 Bohr mag/cell

     iteration # 11     ecut=    60.00 Ry     beta= 0.20
     Davidson diagonalization with overlap
     ethr =  4.56E-05,  avg # of iterations =  1.1

     negative rho (up, down):  5.913E-04 2.282E-03

     total cpu time spent up to now is      985.5 secs

     total energy              =  -21095.01471605 Ry
     estimated scf accuracy    <       0.42570530 Ry

     total magnetization       =   150.69 Bohr mag/cell
     absolute magnetization    =   154.69 Bohr mag/cell

     iteration # 12     ecut=    60.00 Ry     beta= 0.20
     Davidson diagonalization with overlap
     ethr =  4.13E-05,  avg # of iterations =  4.5

     negative rho (up, down):  2.045E-04 2.012E-03

     total cpu time spent up to now is     1050.5 secs

     total energy              =  -21095.06717481 Ry
     estimated scf accuracy    <       0.24353193 Ry

     total magnetization       =   157.12 Bohr mag/cell
     absolute magnetization    =   161.68 Bohr mag/cell

     iteration # 13     ecut=    60.00 Ry     beta= 0.20
     Davidson diagonalization with overlap
     ethr =  2.36E-05,  avg # of iterations =  5.2

     negative rho (up, down):  2.511E-03 2.871E-03

     total cpu time spent up to now is     1114.3 secs

     total energy              =  -21095.06369992 Ry
     estimated scf accuracy    <       0.51402125 Ry

     total magnetization       =   158.16 Bohr mag/cell
     absolute magnetization    =   162.90 Bohr mag/cell

     iteration # 14     ecut=    60.00 Ry     beta= 0.20
     Davidson diagonalization with overlap
     ethr =  2.36E-05,  avg # of iterations =  5.5

     negative rho (up, down):  9.635E-03 1.053E-02

     total cpu time spent up to now is     1181.6 secs

     total energy              =  -21095.07849563 Ry
     estimated scf accuracy    <       0.65592559 Ry

     total magnetization       =   160.41 Bohr mag/cell
     absolute magnetization    =   165.50 Bohr mag/cell

     iteration # 15     ecut=    60.00 Ry     beta= 0.20
     Davidson diagonalization with overlap
     ethr =  2.36E-05,  avg # of iterations =  1.0

     negative rho (up, down):  1.614E-02 1.689E-02

     total cpu time spent up to now is     1227.9 secs

     total energy              =  -21095.05008730 Ry
     estimated scf accuracy    <       0.57061233 Ry

     total magnetization       =   161.17 Bohr mag/cell
     absolute magnetization    =   166.29 Bohr mag/cell

     iteration # 16     ecut=    60.00 Ry     beta= 0.20
     Davidson diagonalization with overlap
     ethr =  2.36E-05,  avg # of iterations =  1.0

     negative rho (up, down):  2.535E-02 2.581E-02

     total cpu time spent up to now is     1274.4 secs

     total energy              =  -21095.02173657 Ry
     estimated scf accuracy    <       0.29150388 Ry

     total magnetization       =   161.09 Bohr mag/cell
     absolute magnetization    =   166.25 Bohr mag/cell

     iteration # 17     ecut=    60.00 Ry     beta= 0.20
     Davidson diagonalization with overlap
     ethr =  2.36E-05,  avg # of iterations =  6.9

     negative rho (up, down):  2.312E-02 2.269E-02

     total cpu time spent up to now is     1390.1 secs

     total energy              =  -21095.03518100 Ry
     estimated scf accuracy    <       0.09313434 Ry

     total magnetization       =   161.08 Bohr mag/cell
     absolute magnetization    =   166.38 Bohr mag/cell

     iteration # 18     ecut=    60.00 Ry     beta= 0.20
     Davidson diagonalization with overlap
     ethr =  9.03E-06,  avg # of iterations = 19.0

     negative rho (up, down):  5.682E-03 6.306E-03

     total cpu time spent up to now is     1559.9 secs

     total energy              =  -21095.05018977 Ry
     estimated scf accuracy    <       0.05821091 Ry

     total magnetization       =   160.74 Bohr mag/cell
     absolute magnetization    =   166.43 Bohr mag/cell

     iteration # 19     ecut=    60.00 Ry     beta= 0.20
     Davidson diagonalization with overlap
     ethr =  5.65E-06,  avg # of iterations = 11.6

     negative rho (up, down):  6.889E-02 6.796E-02

     total cpu time spent up to now is     1655.0 secs

     total energy              =  -21095.03455158 Ry
     estimated scf accuracy    <       0.06616534 Ry

     total magnetization       =   160.22 Bohr mag/cell
     absolute magnetization    =   166.08 Bohr mag/cell

     iteration # 20     ecut=    60.00 Ry     beta= 0.20
     Davidson diagonalization with overlap
     ethr =  5.65E-06,  avg # of iterations =  8.6

     negative rho (up, down):  8.483E-02 8.405E-02

     total cpu time spent up to now is     1741.5 secs

     total energy              =  -21095.03613834 Ry
     estimated scf accuracy    <       0.03052511 Ry

     total magnetization       =   160.38 Bohr mag/cell
     absolute magnetization    =   166.42 Bohr mag/cell

     iteration # 21     ecut=    60.00 Ry     beta= 0.20
     Davidson diagonalization with overlap
     ethr =  2.96E-06,  avg # of iterations = 15.3

     negative rho (up, down):  7.215E-02 7.217E-02

     total cpu time spent up to now is     1928.2 secs

     total energy              =  -21095.04127214 Ry
     estimated scf accuracy    <       0.02362606 Ry

     total magnetization       =   160.18 Bohr mag/cell
     absolute magnetization    =   166.58 Bohr mag/cell

     iteration # 22     ecut=    60.00 Ry     beta= 0.20
     Davidson diagonalization with overlap
     ethr =  2.29E-06,  avg # of iterations =  9.3

     negative rho (up, down):  6.279E-02 6.352E-02

     total cpu time spent up to now is     2023.4 secs

     total energy              =  -21095.03623920 Ry
     estimated scf accuracy    <       0.01789144 Ry

     total magnetization       =   160.16 Bohr mag/cell
     absolute magnetization    =   166.60 Bohr mag/cell

     iteration # 23     ecut=    60.00 Ry     beta= 0.20
     Davidson diagonalization with overlap
     ethr =  1.74E-06,  avg # of iterations = 15.2

     negative rho (up, down):  7.122E-02 7.278E-02

     total cpu time spent up to now is     2148.0 secs

     total energy              =  -21095.03517080 Ry
     estimated scf accuracy    <       0.01056251 Ry

     total magnetization       =   159.83 Bohr mag/cell
     absolute magnetization    =   166.30 Bohr mag/cell

     iteration # 24     ecut=    60.00 Ry     beta= 0.20
     Davidson diagonalization with overlap
     c_bands:  1 eigenvalues not converged
     c_bands:  2 eigenvalues not converged
     ethr =  1.02E-06,  avg # of iterations = 19.6

     negative rho (up, down):  4.307E-02 4.531E-02

     total cpu time spent up to now is     2344.4 secs

     total energy              =  -21095.03719320 Ry
     estimated scf accuracy    <       0.00546729 Ry

     total magnetization       =   159.88 Bohr mag/cell
     absolute magnetization    =   166.49 Bohr mag/cell

     iteration # 25     ecut=    60.00 Ry     beta= 0.20
     Davidson diagonalization with overlap
     ethr =  5.30E-07,  avg # of iterations = 12.3

     negative rho (up, down):  3.767E-02 4.004E-02

     total cpu time spent up to now is     2495.6 secs

     total energy              =  -21095.03864148 Ry
     estimated scf accuracy    <       0.00315837 Ry

     total magnetization       =   160.17 Bohr mag/cell
     absolute magnetization    =   166.82 Bohr mag/cell

     iteration # 26     ecut=    60.00 Ry     beta= 0.20
     Davidson diagonalization with overlap
     ethr =  3.06E-07,  avg # of iterations = 10.6

     negative rho (up, down):  1.974E-02 2.306E-02

     total cpu time spent up to now is     2581.7 secs

     total energy              =  -21095.03855909 Ry
     estimated scf accuracy    <       0.00247156 Ry

     total magnetization       =   160.30 Bohr mag/cell
     absolute magnetization    =   166.97 Bohr mag/cell

     iteration # 27     ecut=    60.00 Ry     beta= 0.20
     Davidson diagonalization with overlap
     ethr =  2.40E-07,  avg # of iterations = 10.2

     negative rho (up, down):  1.781E-02 2.112E-02

     total cpu time spent up to now is     2669.3 secs

     total energy              =  -21095.03803438 Ry
     estimated scf accuracy    <       0.00096455 Ry

     total magnetization       =   160.59 Bohr mag/cell
     absolute magnetization    =   167.31 Bohr mag/cell

     iteration # 28     ecut=    60.00 Ry     beta= 0.20
     Davidson diagonalization with overlap
     ethr =  9.36E-08,  avg # of iterations = 13.9

     negative rho (up, down):  1.664E-02 1.998E-02

     total cpu time spent up to now is     2844.7 secs

     total energy              =  -21095.03761006 Ry
     estimated scf accuracy    <       0.00060451 Ry

     total magnetization       =   160.52 Bohr mag/cell
     absolute magnetization    =   167.29 Bohr mag/cell

     iteration # 29     ecut=    60.00 Ry     beta= 0.20
     Davidson diagonalization with overlap
     ethr =  5.86E-08,  avg # of iterations =  5.9

     negative rho (up, down):  1.312E-02 1.683E-02

     total cpu time spent up to now is     2922.8 secs

     total energy              =  -21095.03582331 Ry
     estimated scf accuracy    <       0.00042934 Ry

     total magnetization       =   160.49 Bohr mag/cell
     absolute magnetization    =   167.27 Bohr mag/cell

     iteration # 30     ecut=    60.00 Ry     beta= 0.20
     Davidson diagonalization with overlap
     ethr =  4.16E-08,  avg # of iterations =  6.0

     negative rho (up, down):  1.367E-02 1.729E-02

     total cpu time spent up to now is     3014.1 secs

     total energy              =  -21095.03565475 Ry
     estimated scf accuracy    <       0.00024889 Ry

     total magnetization       =   160.57 Bohr mag/cell
     absolute magnetization    =   167.41 Bohr mag/cell

     iteration # 31     ecut=    60.00 Ry     beta= 0.20
     Davidson diagonalization with overlap
     ethr =  2.41E-08,  avg # of iterations =  6.3

     negative rho (up, down):  1.267E-02 1.640E-02

     total cpu time spent up to now is     3100.5 secs

     total energy              =  -21095.03458380 Ry
     estimated scf accuracy    <       0.00023474 Ry

     total magnetization       =   160.64 Bohr mag/cell
     absolute magnetization    =   167.48 Bohr mag/cell

     iteration # 32     ecut=    60.00 Ry     beta= 0.20
     Davidson diagonalization with overlap
     ethr =  2.28E-08,  avg # of iterations =  5.7

     negative rho (up, down):  1.192E-02 1.580E-02

     total cpu time spent up to now is     3157.6 secs

     total energy              =  -21095.03212612 Ry
     estimated scf accuracy    <       0.00017646 Ry

     total magnetization       =   160.65 Bohr mag/cell
     absolute magnetization    =   167.49 Bohr mag/cell

     iteration # 33     ecut=    60.00 Ry     beta= 0.20
     Davidson diagonalization with overlap
     c_bands:  1 eigenvalues not converged
     ethr =  1.71E-08,  avg # of iterations =  8.5

     negative rho (up, down):  1.244E-02 1.638E-02

     total cpu time spent up to now is     3232.3 secs

     total energy              =  -21095.03155230 Ry
     estimated scf accuracy    <       0.00005535 Ry

     total magnetization       =   160.67 Bohr mag/cell
     absolute magnetization    =   167.52 Bohr mag/cell

     iteration # 34     ecut=    60.00 Ry     beta= 0.20
     Davidson diagonalization with overlap
     ethr =  5.37E-09,  avg # of iterations = 15.2

     negative rho (up, down):  1.243E-02 1.638E-02

     total cpu time spent up to now is     3451.1 secs

     total energy              =  -21095.03141347 Ry
     estimated scf accuracy    <       0.00003756 Ry

     total magnetization       =   160.68 Bohr mag/cell
     absolute magnetization    =   167.55 Bohr mag/cell

     iteration # 35     ecut=    60.00 Ry     beta= 0.20
     Davidson diagonalization with overlap
     ethr =  3.64E-09,  avg # of iterations =  1.8

     negative rho (up, down):  1.274E-02 1.669E-02

     total cpu time spent up to now is     3504.1 secs

     total energy              =  -21095.03020470 Ry
     estimated scf accuracy    <       0.00002782 Ry

     total magnetization       =   160.69 Bohr mag/cell
     absolute magnetization    =   167.56 Bohr mag/cell

     iteration # 36     ecut=    60.00 Ry     beta= 0.20
     Davidson diagonalization with overlap
     ethr =  2.70E-09,  avg # of iterations =  7.5

     negative rho (up, down):  1.293E-02 1.685E-02

     total cpu time spent up to now is     3582.1 secs

     total energy              =  -21095.02930593 Ry
     estimated scf accuracy    <       0.00001623 Ry

     total magnetization       =   160.69 Bohr mag/cell
     absolute magnetization    =   167.55 Bohr mag/cell

     iteration # 37     ecut=    60.00 Ry     beta= 0.20
     Davidson diagonalization with overlap
     ethr =  1.57E-09,  avg # of iterations =  8.1

     negative rho (up, down):  1.257E-02 1.647E-02

     total cpu time spent up to now is     3693.4 secs

     total energy              =  -21095.02909525 Ry
     estimated scf accuracy    <       0.00001047 Ry

     total magnetization       =   160.67 Bohr mag/cell
     absolute magnetization    =   167.54 Bohr mag/cell

     iteration # 38     ecut=    60.00 Ry     beta= 0.20
     Davidson diagonalization with overlap
     ethr =  1.02E-09,  avg # of iterations =  6.3

     negative rho (up, down):  1.145E-02 1.531E-02

     total cpu time spent up to now is     3769.6 secs

     total energy              =  -21095.02880563 Ry
     estimated scf accuracy    <       0.00000686 Ry

     total magnetization       =   160.67 Bohr mag/cell
     absolute magnetization    =   167.54 Bohr mag/cell

     iteration # 39     ecut=    60.00 Ry     beta= 0.20
     Davidson diagonalization with overlap
     ethr =  6.66E-10,  avg # of iterations =  7.6

     negative rho (up, down):  1.142E-02 1.528E-02

     total cpu time spent up to now is     3895.2 secs

     total energy              =  -21095.02889108 Ry
     estimated scf accuracy    <       0.00000177 Ry

     total magnetization       =   160.68 Bohr mag/cell
     absolute magnetization    =   167.55 Bohr mag/cell

     iteration # 40     ecut=    60.00 Ry     beta= 0.20
     Davidson diagonalization with overlap
     ethr =  1.72E-10,  avg # of iterations =  9.2

     negative rho (up, down):  1.141E-02 1.527E-02

     total cpu time spent up to now is     4047.7 secs

     total energy              =  -21095.02887799 Ry
     estimated scf accuracy    <       0.00000074 Ry

     total magnetization       =   160.68 Bohr mag/cell
     absolute magnetization    =   167.55 Bohr mag/cell

     iteration # 41     ecut=    60.00 Ry     beta= 0.20
     Davidson diagonalization with overlap
     ethr =  7.17E-11,  avg # of iterations =  6.5

     negative rho (up, down):  1.144E-02 1.530E-02

     total cpu time spent up to now is     4136.6 secs

     total energy              =  -21095.02886144 Ry
     estimated scf accuracy    <       0.00000039 Ry

     total magnetization       =   160.69 Bohr mag/cell
     absolute magnetization    =   167.56 Bohr mag/cell

     iteration # 42     ecut=    60.00 Ry     beta= 0.20
     Davidson diagonalization with overlap
     ethr =  3.79E-11,  avg # of iterations =  8.2

     negative rho (up, down):  1.145E-02 1.530E-02

     total cpu time spent up to now is     4221.2 secs

     total energy              =  -21095.02885794 Ry
     estimated scf accuracy    <       0.00000016 Ry

     total magnetization       =   160.69 Bohr mag/cell
     absolute magnetization    =   167.56 Bohr mag/cell

     iteration # 43     ecut=    60.00 Ry     beta= 0.20
     Davidson diagonalization with overlap
     ethr =  1.53E-11,  avg # of iterations =  9.4

     negative rho (up, down):  1.144E-02 1.529E-02

     total cpu time spent up to now is     4373.5 secs

     total energy              =  -21095.02883002 Ry
     estimated scf accuracy    <       0.00000011 Ry

     total magnetization       =   160.69 Bohr mag/cell
     absolute magnetization    =   167.56 Bohr mag/cell

     iteration # 44     ecut=    60.00 Ry     beta= 0.20
     Davidson diagonalization with overlap
     ethr =  1.05E-11,  avg # of iterations =  7.3

     negative rho (up, down):  1.143E-02 1.528E-02

     total cpu time spent up to now is     4454.5 secs

     total energy              =  -21095.02883324 Ry
     estimated scf accuracy    <       0.00000008 Ry

     total magnetization       =   160.69 Bohr mag/cell
     absolute magnetization    =   167.56 Bohr mag/cell

     iteration # 45     ecut=    60.00 Ry     beta= 0.20
     Davidson diagonalization with overlap
     ethr =  7.89E-12,  avg # of iterations =  7.2

     negative rho (up, down):  1.143E-02 1.528E-02

     total cpu time spent up to now is     4530.2 secs

     total energy              =  -21095.02881849 Ry
     estimated scf accuracy    <       0.00000002 Ry

     total magnetization       =   160.69 Bohr mag/cell
     absolute magnetization    =   167.56 Bohr mag/cell

     iteration # 46     ecut=    60.00 Ry     beta= 0.20
     Davidson diagonalization with overlap
     ethr =  1.90E-12,  avg # of iterations = 11.2

     negative rho (up, down):  1.143E-02 1.528E-02

     total cpu time spent up to now is     4741.4 secs

     total energy              =  -21095.02881417 Ry
     estimated scf accuracy    <       0.00000001 Ry

     total magnetization       =   160.69 Bohr mag/cell
     absolute magnetization    =   167.56 Bohr mag/cell

     iteration # 47     ecut=    60.00 Ry     beta= 0.20
     Davidson diagonalization with overlap
     ethr =  1.38E-12,  avg # of iterations =  1.6

     negative rho (up, down):  1.143E-02 1.528E-02

     total cpu time spent up to now is     4794.5 secs

     total energy              =  -21095.02881273 Ry
     estimated scf accuracy    <       0.00000001 Ry

     total magnetization       =   160.69 Bohr mag/cell
     absolute magnetization    =   167.56 Bohr mag/cell

     iteration # 48     ecut=    60.00 Ry     beta= 0.20
     Davidson diagonalization with overlap
     ethr =  1.06E-12,  avg # of iterations =  6.0

     negative rho (up, down):  1.142E-02 1.527E-02

     Magnetic moment per site:
     atom:    1    charge:   12.6140    magn:    2.3624    constr:    0.0000
     atom:    2    charge:   12.6031    magn:    2.1952    constr:    0.0000
     atom:    3    charge:   12.6141    magn:    2.3655    constr:    0.0000
     atom:    4    charge:   12.6009    magn:    2.1951    constr:    0.0000
     atom:    5    charge:   12.6036    magn:    2.1957    constr:    0.0000
     atom:    6    charge:   12.6109    magn:    2.2016    constr:    0.0000
     atom:    7    charge:   12.6003    magn:    2.1824    constr:    0.0000
     atom:    8    charge:   12.6067    magn:    2.3759    constr:    0.0000
     atom:    9    charge:   12.6146    magn:    2.3555    constr:    0.0000
     atom:   10    charge:   12.6138    magn:    2.3672    constr:    0.0000
     atom:   11    charge:   12.6011    magn:    2.2062    constr:    0.0000
     atom:   12    charge:   12.6023    magn:    2.1946    constr:    0.0000
     atom:   13    charge:   12.6004    magn:    2.1957    constr:    0.0000
     atom:   14    charge:   12.6038    magn:    2.1342    constr:    0.0000
     atom:   15    charge:   12.6128    magn:    2.3290    constr:    0.0000
     atom:   16    charge:   12.6097    magn:    2.2479    constr:    0.0000
     atom:   17    charge:   12.6139    magn:    2.3654    constr:    0.0000
     atom:   18    charge:   12.6008    magn:    2.1951    constr:    0.0000
     atom:   19    charge:   12.6140    magn:    2.3662    constr:    0.0000
     atom:   20    charge:   12.6021    magn:    2.1994    constr:    0.0000
     atom:   21    charge:   12.6003    magn:    2.1821    constr:    0.0000
     atom:   22    charge:   12.6065    magn:    2.3759    constr:    0.0000
     atom:   23    charge:   12.6005    magn:    2.1801    constr:    0.0000
     atom:   24    charge:   12.6075    magn:    1.8795    constr:    0.0000
     atom:   25    charge:   12.6142    magn:    2.3796    constr:    0.0000
     atom:   26    charge:   12.6140    magn:    2.3579    constr:    0.0000
     atom:   27    charge:   12.6001    magn:    2.1949    constr:    0.0000
     atom:   28    charge:   12.6010    magn:    2.2037    constr:    0.0000
     atom:   29    charge:   12.6054    magn:    2.2286    constr:    0.0000
     atom:   30    charge:   12.6031    magn:    2.1113    constr:    0.0000
     atom:   31    charge:   12.6044    magn:    2.2381    constr:    0.0000
     atom:   32    charge:   12.6121    magn:    2.3300    constr:    0.0000
     atom:   33    charge:   12.6140    magn:    2.3631    constr:    0.0000
     atom:   34    charge:   12.6008    magn:    2.1898    constr:    0.0000
     atom:   35    charge:   12.6139    magn:    2.3624    constr:    0.0000
     atom:   36    charge:   12.6035    magn:    2.1954    constr:    0.0000
     atom:   37    charge:   12.6037    magn:    2.1824    constr:    0.0000
     atom:   38    charge:   12.6081    magn:    2.3582    constr:    0.0000
     atom:   39    charge:   12.6034    magn:    2.1959    constr:    0.0000
     atom:   40    charge:   12.6111    magn:    2.2017    constr:    0.0000
     atom:   41    charge:   12.6137    magn:    2.3720    constr:    0.0000
     atom:   42    charge:   12.6145    magn:    2.3580    constr:    0.0000
     atom:   43    charge:   12.6020    magn:    2.1974    constr:    0.0000
     atom:   44    charge:   12.6010    magn:    2.2037    constr:    0.0000
     atom:   45    charge:   12.6039    magn:    2.1883    constr:    0.0000
     atom:   46    charge:   12.6030    magn:    2.1111    constr:    0.0000
     atom:   47    charge:   12.6117    magn:    2.3784    constr:    0.0000
     atom:   48    charge:   12.6119    magn:    2.3302    constr:    0.0000
     atom:   49    charge:   12.6142    magn:    2.3663    constr:    0.0000
     atom:   50    charge:   12.6027    magn:    2.1996    constr:    0.0000
     atom:   51    charge:   12.6140    magn:    2.3631    constr:    0.0000
     atom:   52    charge:   12.6008    magn:    2.1898    constr:    0.0000
     atom:   53    charge:   12.6006    magn:    2.1804    constr:    0.0000
     atom:   54    charge:   12.6070    magn:    1.8797    constr:    0.0000
     atom:   55    charge:   12.6040    magn:    2.1822    constr:    0.0000
     atom:   56    charge:   12.6082    magn:    2.3582    constr:    0.0000
     atom:   57    charge:   12.6146    magn:    2.3555    constr:    0.0000
     atom:   58    charge:   12.6137    magn:    2.3673    constr:    0.0000
     atom:   59    charge:   12.6011    magn:    2.2062    constr:    0.0000
     atom:   60    charge:   12.6001    magn:    2.1959    constr:    0.0000
     atom:   61    charge:   12.6004    magn:    2.1958    constr:    0.0000
     atom:   62    charge:   12.6037    magn:    2.1443    constr:    0.0000
     atom:   63    charge:   12.6127    magn:    2.3290    constr:    0.0000
     atom:   64    charge:   12.6039    magn:    2.2435    constr:    0.0000
     atom:   65    charge:    1.3267    magn:   -0.0312    constr:    0.0000
     atom:   66    charge:    0.4413    magn:    0.0064    constr:    0.0000
     atom:   67    charge:    0.3536    magn:   -0.0201    constr:    0.0000

     total cpu time spent up to now is     4852.8 secs

     End of self-consistent calculation

 ------ SPIN UP ------------


          k = 0.0000 0.0000 0.0000 (128403 PWs)   bands (ev):

   -88.8662 -88.8596 -88.8277 -88.8264 -88.8242 -88.8228 -88.8125 -88.8111
   -88.8062 -88.8029 -88.7998 -88.7979 -88.7963 -88.7960 -88.7907 -88.7906
   -88.7901 -88.7823 -88.7813 -88.7806 -88.7759 -88.7757 -88.7721 -88.7694
   -88.7682 -88.7635 -88.7630 -88.7459 -88.7323 -88.7266 -88.7264 -88.7245
   -88.7090 -88.6876 -88.6766 -88.6730 -88.6718 -88.6680 -88.6630 -88.6607
   -88.6541 -88.6533 -88.6532 -88.6500 -88.6481 -88.6463 -88.6459 -88.6439
   -88.6430 -88.6402 -88.6400 -88.6389 -88.6382 -88.6359 -88.6334 -88.6315
   -88.6274 -88.6258 -88.6228 -88.6207 -88.6169 -88.6155 -88.6047 -88.5980
   -55.0534 -55.0418 -55.0238 -55.0139 -55.0097 -55.0063 -55.0045 -55.0038
   -55.0021 -54.9994 -54.9968 -54.9937 -54.9930 -54.9906 -54.9874 -54.9833
   -54.9814 -54.9795 -54.9790 -54.9760 -54.9733 -54.9731 -54.9714 -54.9703
   -54.9650 -54.9626 -54.9625 -54.9556 -54.9530 -54.9500 -54.9454 -54.9374
   -54.9357 -54.9312 -54.9311 -54.9243 -54.9187 -54.9181 -54.9113 -54.9103
   -54.9091 -54.9086 -54.9084 -54.9048 -54.8991 -54.8931 -54.8747 -54.8657
   -54.8540 -54.8534 -54.8510 -54.8455 -54.8423 -54.8379 -54.8376 -54.8346
   -54.8321 -54.8312 -54.8298 -54.8277 -54.8275 -54.8246 -54.8238 -54.8197
   -54.8194 -54.8153 -54.8131 -54.8098 -54.8087 -54.8078 -54.8052 -54.8039
   -54.7998 -54.7943 -54.7929 -54.7884 -54.7874 -54.7857 -54.7809 -54.7788
   -54.7762 -54.7721 -54.7705 -54.7662 -54.7649 -54.7642 -54.7640 -54.7634
   -54.7615 -54.7594 -54.7571 -54.7550 -54.7527 -54.7526 -54.7505 -54.7474
   -54.7463 -54.7449 -54.7435 -54.7370 -54.7353 -54.7304 -54.7260 -54.7258
   -54.7228 -54.7209 -54.7184 -54.7143 -54.7130 -54.7115 -54.7114 -54.7080
   -54.7074 -54.7052 -54.7020 -54.6991 -54.6987 -54.6976 -54.6930 -54.6910
   -54.6894 -54.6894 -54.6867 -54.6863 -54.6855 -54.6839 -54.6833 -54.6825
   -54.6822 -54.6801 -54.6768 -54.6696 -54.6673 -54.6668 -54.6660 -54.6642
   -54.6604 -54.6577 -54.6575 -54.6525 -54.6510 -54.6509 -54.6491 -54.6475
   -54.6467 -54.6461 -54.6305 -54.6299 -54.6298 -54.6241 -54.6230 -54.6215
   -54.6189 -54.6154 -54.6083 -54.6080 -54.6061 -54.6047 -54.6031 -54.6018
   -54.6013 -54.5997 -54.5953 -54.5937 -54.5930 -54.5923 -54.5885 -54.5883
   -54.5837 -54.5820 -54.5809 -54.5767 -54.5729 -54.5681 -54.5663 -54.5659
   -54.5642 -54.5633 -54.5563 -54.5548 -54.5532 -54.5499 -54.5464 -54.5455
   -54.5449 -54.5447 -54.5430 -54.5427 -54.5414 -54.5390 -54.5381 -54.5356
   -16.9772  -8.8340  -8.4531  -7.5796  -6.9910  -6.9872  -6.9235  -6.8963
    -6.6914  -6.4818  -6.3712  -6.2515  -6.2458  -5.9182  -5.8224  -5.7759
    -5.6371  -5.6322  -5.4959  -5.4559  -5.3475  -5.2880  -5.2869  -5.2472
    -5.2439  -5.2271  -5.1682  -5.1532  -5.1031  -5.0849  -4.8564  -4.8245
    -4.8159  -4.7934  -4.7335  -4.7329  -4.7256  -4.7149  -4.7127  -4.7042
    -4.6933  -4.6923  -4.6914  -4.6889  -4.6876  -4.6775  -4.6597  -4.6534
    -4.6416  -4.6363  -4.6337  -4.6234  -4.6107  -4.6059  -4.5994  -4.5789
    -4.5302  -4.5232  -4.4990  -4.4453  -4.4368  -4.4341  -4.4253  -4.4160
    -4.3477  -4.3387  -4.3218  -4.1481  -4.1431  -4.1142  -4.1130  -4.1102
    -4.0852  -4.0280  -3.9617  -3.9544  -3.9507  -3.9456  -3.9394  -3.9389
    -3.9327  -3.9183  -3.9068  -3.8995  -3.8981  -3.8933  -3.8899  -3.8853
    -3.8814  -3.8749  -3.8714  -3.8673  -3.8603  -3.8535  -3.8519  -3.8349
    -3.8328  -3.8086  -3.8053  -3.8035  -3.7948  -3.7879  -3.7812  -3.7763
    -3.7680  -3.7652  -3.7463  -3.7429  -3.7349  -3.7344  -3.7313  -3.7225
    -3.6644  -3.6073  -3.5823  -3.5637  -3.5613  -3.5567  -3.5529  -3.4963
    -3.4741  -3.4461  -3.4374  -3.3700  -3.3685  -3.3602  -3.3547  -3.3484
    -3.3431  -3.3271  -3.3194  -3.3086  -3.2868  -3.2845  -3.2651  -3.2560
    -3.2497  -3.2358  -3.2318  -3.2243  -3.2169  -3.2156  -3.2130  -3.2081
    -3.2027  -3.1916  -3.1559  -3.1461  -3.1224  -3.0649  -3.0621  -3.0610
    -3.0607  -3.0370  -3.0280  -3.0114  -3.0066  -2.9994  -2.9954  -2.9861
    -2.9727  -2.9383  -2.9335  -2.9277  -2.9166  -2.9109  -2.9084  -2.9082
    -2.8907  -2.8741  -2.8685  -2.8486  -2.8357  -2.8293  -2.8159  -2.8143
    -2.7962  -2.7912  -2.7863  -2.7846  -2.7829  -2.7746  -2.7608  -2.7571
    -2.7231  -2.7192  -2.6629  -2.6561  -2.6492  -2.5340  -2.5314  -2.3989
    -2.3918  -2.3725  -2.2699  -2.2644  -2.2549  -2.2520  -2.2436  -2.2435
    -2.2377  -2.2279  -2.2179  -2.1951  -2.1871  -2.1838  -2.1804  -2.1607
    -2.1179  -2.1122  -2.1110  -2.1030  -2.0922  -2.0797  -2.0628  -2.0587
    -2.0584  -2.0535  -2.0406  -2.0397  -2.0341  -2.0336  -2.0052  -1.9930
    -1.9899  -1.9832  -1.9649  -1.9618  -1.9497  -1.9440  -1.9340  -1.9328
    -1.9280  -1.9128  -1.9089  -1.9079  -1.9028  -1.8933  -1.8850  -1.8832
    -1.8818  -1.8590  -1.8442  -1.8436  -1.8377  -1.8345  -1.8275  -1.8260
    -1.8259  -1.8247  -1.8195  -1.8179  -1.8124  -1.8109  -1.8066  -1.8042
    -1.7982  -1.7951  -1.7892  -1.7876  -1.7855  -1.7787  -1.7694  -1.7646
    -1.7533  -1.7513  -1.7441  -1.7376  -1.7266  -1.7236  -1.7174  -1.7073
    -1.7010  -1.7007  -1.6991  -1.6935  -1.6894  -1.6861  -1.6817  -1.6694
    -1.6534  -1.6529  -1.6218  -1.6189  -1.6063  -1.5950  -1.5917  -1.5827
    -1.5723  -1.5706  -1.5577  -1.5490  -1.4854  -1.4778  -1.4772  -1.4488
    -1.4464  -1.4385  -1.4349  -1.4247  -1.4131  -1.4129  -1.4087  -1.4044
    -1.4000  -1.3893  -1.3853  -1.3820  -1.3766  -1.3650  -1.3444  -1.3440
    -1.3421  -1.3405  -1.2854  -1.2578  -1.1522  -1.1011  -0.9567  -0.9456
    -0.9409  -0.9259  -0.8836  -0.8601  -0.8546  -0.8210  -0.8141  -0.7861
    -0.7772  -0.7663  -0.7396  -0.6906  -0.6799  -0.6780  -0.6569  -0.6167
    -0.6111  -0.5975  -0.5931  -0.5618  -0.4914  -0.4661  -0.4371  -0.3627
    -0.3617  -0.2817  -0.1046  -0.0706  -0.0437   0.3515   0.3735   0.3917
     0.3923   0.5707   0.6022   0.7564   1.0123   1.1836   1.2152   1.2838
     1.2859   1.2874   1.3131

          k = 0.0000 0.2652 0.0000 (128375 PWs)   bands (ev):

   -88.8661 -88.8596 -88.8274 -88.8252 -88.8249 -88.8224 -88.8162 -88.8096
   -88.8051 -88.8029 -88.7996 -88.7981 -88.7962 -88.7960 -88.7936 -88.7906
   -88.7859 -88.7844 -88.7812 -88.7794 -88.7767 -88.7755 -88.7729 -88.7684
   -88.7670 -88.7643 -88.7635 -88.7458 -88.7322 -88.7268 -88.7264 -88.7244
   -88.7088 -88.6872 -88.6795 -88.6734 -88.6698 -88.6674 -88.6621 -88.6590
   -88.6554 -88.6549 -88.6526 -88.6512 -88.6486 -88.6468 -88.6451 -88.6442
   -88.6424 -88.6414 -88.6397 -88.6387 -88.6372 -88.6344 -88.6327 -88.6320
   -88.6281 -88.6257 -88.6243 -88.6221 -88.6162 -88.6139 -88.6041 -88.5988
   -55.0524 -55.0420 -55.0225 -55.0146 -55.0104 -55.0082 -55.0054 -55.0039
   -55.0020 -54.9991 -54.9964 -54.9943 -54.9904 -54.9882 -54.9868 -54.9850
   -54.9814 -54.9804 -54.9781 -54.9776 -54.9729 -54.9724 -54.9702 -54.9692
   -54.9656 -54.9614 -54.9604 -54.9562 -54.9539 -54.9445 -54.9404 -54.9362
   -54.9325 -54.9288 -54.9252 -54.9214 -54.9200 -54.9176 -54.9147 -54.9118
   -54.9110 -54.9057 -54.9036 -54.8998 -54.8963 -54.8878 -54.8713 -54.8694
   -54.8645 -54.8564 -54.8540 -54.8515 -54.8505 -54.8467 -54.8429 -54.8389
   -54.8371 -54.8318 -54.8289 -54.8270 -54.8267 -54.8246 -54.8229 -54.8204
   -54.8192 -54.8178 -54.8163 -54.8140 -54.8130 -54.8081 -54.8073 -54.8036
   -54.8014 -54.8001 -54.7986 -54.7964 -54.7942 -54.7889 -54.7837 -54.7820
   -54.7796 -54.7768 -54.7740 -54.7724 -54.7717 -54.7682 -54.7628 -54.7601
   -54.7582 -54.7545 -54.7532 -54.7514 -54.7496 -54.7473 -54.7465 -54.7447
   -54.7412 -54.7400 -54.7362 -54.7352 -54.7331 -54.7326 -54.7274 -54.7246
   -54.7235 -54.7218 -54.7201 -54.7179 -54.7151 -54.7150 -54.7112 -54.7093
   -54.7077 -54.7059 -54.7051 -54.7029 -54.7003 -54.6974 -54.6939 -54.6919
   -54.6907 -54.6882 -54.6868 -54.6843 -54.6824 -54.6793 -54.6785 -54.6753
   -54.6743 -54.6714 -54.6706 -54.6692 -54.6664 -54.6638 -54.6625 -54.6600
   -54.6576 -54.6558 -54.6541 -54.6518 -54.6494 -54.6482 -54.6464 -54.6433
   -54.6384 -54.6372 -54.6348 -54.6307 -54.6288 -54.6260 -54.6220 -54.6169
   -54.6162 -54.6140 -54.6132 -54.6110 -54.6085 -54.6046 -54.6024 -54.6013
   -54.5993 -54.5983 -54.5970 -54.5939 -54.5896 -54.5884 -54.5854 -54.5837
   -54.5819 -54.5797 -54.5767 -54.5751 -54.5733 -54.5690 -54.5676 -54.5667
   -54.5658 -54.5641 -54.5600 -54.5597 -54.5547 -54.5536 -54.5526 -54.5500
   -54.5494 -54.5473 -54.5470 -54.5444 -54.5443 -54.5436 -54.5399 -54.5373
   -16.9772  -8.7923  -8.3906  -7.6849  -7.4024  -7.0558  -6.8965  -6.7005
    -6.6171  -6.4401  -6.2469  -6.1877  -6.0331  -5.9375  -5.8362  -5.7593
    -5.6178  -5.5692  -5.5299  -5.4230  -5.3521  -5.3261  -5.2534  -5.2261
    -5.1982  -5.1844  -5.1662  -5.1272  -5.1008  -5.0548  -4.9800  -4.9104
    -4.8750  -4.8491  -4.8355  -4.8247  -4.8177  -4.8047  -4.7990  -4.7856
    -4.7605  -4.7446  -4.7379  -4.7250  -4.7064  -4.6864  -4.6695  -4.6636
    -4.6387  -4.6331  -4.6292  -4.6095  -4.6051  -4.5531  -4.5466  -4.5407
    -4.5300  -4.5219  -4.5086  -4.4668  -4.4422  -4.3873  -4.3695  -4.3588
    -4.3287  -4.3173  -4.2814  -4.2308  -4.2218  -4.1725  -4.1258  -4.0893
    -4.0626  -4.0482  -4.0398  -4.0113  -3.9622  -3.9514  -3.9392  -3.9354
    -3.9263  -3.9159  -3.9091  -3.9003  -3.8936  -3.8869  -3.8772  -3.8740
    -3.8660  -3.8539  -3.8479  -3.8434  -3.8406  -3.8265  -3.8154  -3.8103
    -3.8032  -3.7981  -3.7945  -3.7884  -3.7796  -3.7730  -3.7615  -3.7526
    -3.7289  -3.7117  -3.7012  -3.6974  -3.6878  -3.6818  -3.6686  -3.6466
    -3.6426  -3.6334  -3.6274  -3.6007  -3.5767  -3.5317  -3.5172  -3.4906
    -3.4718  -3.4545  -3.4451  -3.4370  -3.4274  -3.3936  -3.3671  -3.3466
    -3.3398  -3.3309  -3.3242  -3.3131  -3.3104  -3.2975  -3.2937  -3.2878
    -3.2752  -3.2590  -3.2481  -3.2430  -3.2374  -3.2313  -3.2104  -3.1898
    -3.1847  -3.1778  -3.1415  -3.1163  -3.0937  -3.0877  -3.0800  -3.0707
    -3.0610  -3.0482  -3.0434  -3.0386  -3.0369  -3.0304  -3.0204  -3.0136
    -3.0035  -2.9974  -2.9847  -2.9748  -2.9636  -2.9466  -2.9378  -2.9104
    -2.8916  -2.8814  -2.8599  -2.8470  -2.8377  -2.8264  -2.8145  -2.7892
    -2.7843  -2.7696  -2.7537  -2.7446  -2.7126  -2.6968  -2.6727  -2.6562
    -2.6388  -2.6152  -2.5952  -2.5781  -2.5655  -2.5164  -2.4278  -2.3875
    -2.3750  -2.3705  -2.3388  -2.3240  -2.3073  -2.2932  -2.2829  -2.2607
    -2.2396  -2.2301  -2.2236  -2.2178  -2.2083  -2.1927  -2.1903  -2.1809
    -2.1692  -2.1450  -2.1383  -2.1321  -2.1140  -2.1033  -2.0724  -2.0629
    -2.0553  -2.0479  -2.0427  -2.0326  -2.0290  -2.0169  -2.0140  -2.0026
    -1.9987  -1.9940  -1.9814  -1.9761  -1.9482  -1.9342  -1.9306  -1.9254
    -1.9202  -1.9130  -1.9043  -1.8991  -1.8955  -1.8877  -1.8810  -1.8776
    -1.8697  -1.8679  -1.8595  -1.8516  -1.8492  -1.8448  -1.8339  -1.8244
    -1.8197  -1.8124  -1.8038  -1.7995  -1.7943  -1.7873  -1.7787  -1.7775
    -1.7719  -1.7696  -1.7672  -1.7539  -1.7518  -1.7465  -1.7453  -1.7329
    -1.7262  -1.7222  -1.7109  -1.7100  -1.7075  -1.7038  -1.7007  -1.6984
    -1.6896  -1.6855  -1.6659  -1.6617  -1.6571  -1.6487  -1.6367  -1.6346
    -1.6262  -1.6157  -1.5907  -1.5693  -1.5645  -1.5624  -1.5532  -1.5482
    -1.5374  -1.5319  -1.5192  -1.5096  -1.5036  -1.5010  -1.4956  -1.4856
    -1.4675  -1.4561  -1.4333  -1.4317  -1.4296  -1.4225  -1.4067  -1.4027
    -1.3903  -1.3868  -1.3818  -1.3697  -1.3576  -1.3347  -1.2945  -1.2851
    -1.2496  -1.2375  -1.2020  -1.1593  -1.1006  -1.0142  -1.0048  -0.9833
    -0.9652  -0.9634  -0.9282  -0.9241  -0.9163  -0.8808  -0.8504  -0.8392
    -0.8307  -0.8231  -0.8134  -0.7965  -0.7915  -0.7693  -0.7571  -0.7251
    -0.7135  -0.7037  -0.6633  -0.6315  -0.5969  -0.5717  -0.5621  -0.4287
    -0.3841  -0.1755  -0.0679   0.0142   0.0354   0.2123   0.2921   0.3775
     0.4454   0.5560   0.5793   0.6825   0.7494   0.8306   0.9470   0.9806
     1.1609   1.1744   1.2364

          k = 0.0000-0.5303 0.0000 (128388 PWs)   bands (ev):

   -88.8661 -88.8596 -88.8269 -88.8257 -88.8225 -88.8221 -88.8204 -88.8074
   -88.8067 -88.8012 -88.8012 -88.7983 -88.7960 -88.7958 -88.7940 -88.7887
   -88.7882 -88.7819 -88.7815 -88.7793 -88.7780 -88.7748 -88.7739 -88.7664
   -88.7660 -88.7651 -88.7650 -88.7458 -88.7322 -88.7269 -88.7264 -88.7243
   -88.7086 -88.6866 -88.6815 -88.6742 -88.6691 -88.6653 -88.6612 -88.6583
   -88.6567 -88.6559 -88.6534 -88.6501 -88.6493 -88.6474 -88.6454 -88.6438
   -88.6425 -88.6415 -88.6401 -88.6389 -88.6358 -88.6335 -88.6329 -88.6302
   -88.6289 -88.6270 -88.6250 -88.6229 -88.6159 -88.6127 -88.6030 -88.6002
   -55.0513 -55.0421 -55.0196 -55.0171 -55.0123 -55.0090 -55.0045 -55.0039
   -55.0020 -55.0000 -54.9966 -54.9913 -54.9897 -54.9884 -54.9860 -54.9841
   -54.9837 -54.9803 -54.9795 -54.9750 -54.9739 -54.9714 -54.9697 -54.9675
   -54.9669 -54.9589 -54.9587 -54.9565 -54.9561 -54.9368 -54.9335 -54.9305
   -54.9268 -54.9264 -54.9255 -54.9244 -54.9230 -54.9163 -54.9157 -54.9116
   -54.9101 -54.9025 -54.8974 -54.8934 -54.8837 -54.8825 -54.8802 -54.8728
   -54.8677 -54.8667 -54.8661 -54.8620 -54.8568 -54.8528 -54.8520 -54.8489
   -54.8444 -54.8341 -54.8303 -54.8273 -54.8251 -54.8232 -54.8219 -54.8190
   -54.8166 -54.8151 -54.8117 -54.8100 -54.8091 -54.8074 -54.8062 -54.8041
   -54.8011 -54.8007 -54.7986 -54.7974 -54.7931 -54.7920 -54.7894 -54.7878
   -54.7841 -54.7829 -54.7811 -54.7787 -54.7776 -54.7763 -54.7748 -54.7716
   -54.7669 -54.7620 -54.7569 -54.7496 -54.7464 -54.7447 -54.7438 -54.7422
   -54.7394 -54.7349 -54.7344 -54.7304 -54.7293 -54.7287 -54.7273 -54.7238
   -54.7172 -54.7144 -54.7133 -54.7106 -54.7096 -54.7082 -54.7074 -54.7069
   -54.7061 -54.7039 -54.7035 -54.7028 -54.6983 -54.6963 -54.6959 -54.6941
   -54.6929 -54.6909 -54.6878 -54.6864 -54.6827 -54.6813 -54.6804 -54.6752
   -54.6747 -54.6723 -54.6705 -54.6649 -54.6616 -54.6609 -54.6585 -54.6579
   -54.6555 -54.6523 -54.6478 -54.6469 -54.6447 -54.6436 -54.6424 -54.6401
   -54.6364 -54.6358 -54.6346 -54.6334 -54.6296 -54.6278 -54.6228 -54.6203
   -54.6200 -54.6181 -54.6098 -54.6080 -54.6041 -54.6029 -54.6025 -54.6013
   -54.5975 -54.5940 -54.5866 -54.5853 -54.5835 -54.5830 -54.5812 -54.5790
   -54.5769 -54.5758 -54.5752 -54.5737 -54.5720 -54.5713 -54.5694 -54.5688
   -54.5682 -54.5660 -54.5648 -54.5643 -54.5642 -54.5618 -54.5604 -54.5590
   -54.5586 -54.5551 -54.5519 -54.5474 -54.5446 -54.5437 -54.5399 -54.5381
   -16.9772  -8.7515  -8.2193  -8.0204  -7.4160  -7.0257  -6.9982  -6.7802
    -6.5506  -6.3321  -6.1792  -6.1069  -5.9860  -5.9062  -5.7341  -5.6052
    -5.5780  -5.4982  -5.4844  -5.4375  -5.3761  -5.3265  -5.2835  -5.2608
    -5.1976  -5.1371  -5.1145  -5.0720  -5.0570  -5.0503  -5.0398  -5.0276
    -5.0169  -5.0127  -4.9907  -4.9749  -4.9634  -4.9010  -4.8919  -4.8418
    -4.7861  -4.7426  -4.6975  -4.6897  -4.6823  -4.6771  -4.6715  -4.6094
    -4.5946  -4.5883  -4.5876  -4.5826  -4.5702  -4.5626  -4.5585  -4.5502
    -4.5233  -4.4925  -4.4610  -4.4355  -4.4240  -4.4155  -4.4030  -4.3826
    -4.3284  -4.3174  -4.2827  -4.2771  -4.2382  -4.2120  -4.2100  -4.1969
    -4.1519  -4.0867  -4.0559  -3.9703  -3.9673  -3.9477  -3.9426  -3.9244
    -3.9173  -3.9096  -3.8947  -3.8830  -3.8805  -3.8723  -3.8671  -3.8658
    -3.8572  -3.8490  -3.8357  -3.8289  -3.8264  -3.8247  -3.8129  -3.8018
    -3.7996  -3.7890  -3.7807  -3.7274  -3.7233  -3.7065  -3.6964  -3.6831
    -3.6787  -3.6671  -3.6549  -3.6531  -3.6423  -3.6390  -3.6331  -3.6307
    -3.6227  -3.6125  -3.6072  -3.5948  -3.5802  -3.5719  -3.5661  -3.5448
    -3.5334  -3.5171  -3.4396  -3.4224  -3.4073  -3.3535  -3.3448  -3.3360
    -3.3158  -3.3148  -3.3130  -3.3043  -3.2979  -3.2954  -3.2855  -3.2845
    -3.2750  -3.2732  -3.2690  -3.2658  -3.2527  -3.2455  -3.2373  -3.2314
    -3.2218  -3.2147  -3.2018  -3.1998  -3.1907  -3.1553  -3.1477  -3.1352
    -3.1178  -3.1072  -3.1041  -3.0868  -3.0844  -3.0728  -3.0622  -3.0471
    -3.0261  -3.0180  -3.0080  -2.9830  -2.9458  -2.9392  -2.9319  -2.8984
    -2.8675  -2.8381  -2.8186  -2.8128  -2.8015  -2.7996  -2.7848  -2.7743
    -2.7632  -2.7540  -2.7103  -2.6693  -2.6056  -2.5351  -2.5176  -2.5138
    -2.5044  -2.4944  -2.4770  -2.4539  -2.4507  -2.4385  -2.4216  -2.3981
    -2.3838  -2.3621  -2.3562  -2.3464  -2.3443  -2.3356  -2.3129  -2.3052
    -2.2991  -2.2907  -2.2852  -2.2831  -2.2609  -2.2309  -2.1963  -2.1752
    -2.1676  -2.1607  -2.1510  -2.1498  -2.1255  -2.1215  -2.1190  -2.1086
    -2.0749  -2.0712  -2.0562  -2.0286  -2.0157  -2.0126  -2.0092  -2.0067
    -2.0059  -2.0000  -1.9957  -1.9895  -1.9863  -1.9737  -1.9718  -1.9677
    -1.9663  -1.9626  -1.9601  -1.9439  -1.9403  -1.9296  -1.8744  -1.8706
    -1.8619  -1.8528  -1.8425  -1.8410  -1.8338  -1.8316  -1.8280  -1.8144
    -1.8132  -1.7993  -1.7937  -1.7929  -1.7910  -1.7837  -1.7798  -1.7738
    -1.7702  -1.7548  -1.7528  -1.7519  -1.7423  -1.7365  -1.7214  -1.7190
    -1.7122  -1.7052  -1.6850  -1.6825  -1.6662  -1.6603  -1.6500  -1.6459
    -1.6415  -1.6370  -1.6199  -1.6157  -1.6059  -1.6010  -1.5917  -1.5643
    -1.5609  -1.5588  -1.5578  -1.5523  -1.5493  -1.5437  -1.5426  -1.5355
    -1.5336  -1.5288  -1.5221  -1.5214  -1.5134  -1.5101  -1.5021  -1.4994
    -1.4981  -1.4612  -1.4415  -1.4340  -1.4218  -1.3584  -1.3487  -1.3250
    -1.3128  -1.2809  -1.2771  -1.2593  -1.2479  -1.2338  -1.1520  -1.1494
    -1.1335  -1.1261  -1.1229  -1.1054  -1.0866  -1.0811  -1.0710  -1.0464
    -1.0297  -1.0254  -1.0075  -0.9921  -0.9850  -0.9739  -0.9551  -0.8996
    -0.8834  -0.8788  -0.8447  -0.8370  -0.8295  -0.8069  -0.8030  -0.7883
    -0.7765  -0.7660  -0.7459  -0.7340  -0.7310  -0.7151  -0.7114  -0.5882
    -0.4574  -0.4239  -0.2522  -0.2007  -0.1011  -0.0196   0.2688   0.3444
     0.3644   0.5951   0.9021   0.9577   1.0069   1.0548   1.0725   1.0910
     1.1130   1.1768   1.1862

          k = 0.2500-0.0884 0.0000 (128371 PWs)   bands (ev):

   -88.8661 -88.8596 -88.8274 -88.8252 -88.8249 -88.8224 -88.8162 -88.8096
   -88.8051 -88.8029 -88.7996 -88.7981 -88.7962 -88.7960 -88.7936 -88.7906
   -88.7859 -88.7844 -88.7812 -88.7794 -88.7767 -88.7755 -88.7730 -88.7684
   -88.7670 -88.7643 -88.7635 -88.7458 -88.7322 -88.7268 -88.7264 -88.7244
   -88.7088 -88.6872 -88.6795 -88.6734 -88.6698 -88.6673 -88.6621 -88.6590
   -88.6555 -88.6549 -88.6526 -88.6512 -88.6486 -88.6468 -88.6452 -88.6442
   -88.6424 -88.6413 -88.6397 -88.6387 -88.6372 -88.6345 -88.6327 -88.6320
   -88.6281 -88.6257 -88.6243 -88.6221 -88.6162 -88.6139 -88.6041 -88.5988
   -55.0524 -55.0420 -55.0225 -55.0146 -55.0104 -55.0082 -55.0054 -55.0039
   -55.0020 -54.9992 -54.9964 -54.9943 -54.9904 -54.9882 -54.9868 -54.9850
   -54.9814 -54.9804 -54.9781 -54.9776 -54.9729 -54.9724 -54.9702 -54.9692
   -54.9656 -54.9614 -54.9604 -54.9562 -54.9539 -54.9445 -54.9404 -54.9362
   -54.9325 -54.9288 -54.9252 -54.9215 -54.9200 -54.9176 -54.9147 -54.9118
   -54.9110 -54.9057 -54.9036 -54.8998 -54.8963 -54.8878 -54.8713 -54.8694
   -54.8645 -54.8564 -54.8540 -54.8515 -54.8505 -54.8467 -54.8429 -54.8389
   -54.8371 -54.8318 -54.8289 -54.8270 -54.8267 -54.8246 -54.8230 -54.8204
   -54.8192 -54.8178 -54.8163 -54.8140 -54.8130 -54.8081 -54.8074 -54.8036
   -54.8013 -54.8001 -54.7986 -54.7964 -54.7942 -54.7889 -54.7837 -54.7820
   -54.7796 -54.7768 -54.7740 -54.7724 -54.7717 -54.7682 -54.7628 -54.7601
   -54.7582 -54.7545 -54.7532 -54.7514 -54.7496 -54.7473 -54.7465 -54.7447
   -54.7413 -54.7400 -54.7362 -54.7352 -54.7331 -54.7326 -54.7274 -54.7246
   -54.7235 -54.7218 -54.7201 -54.7179 -54.7151 -54.7150 -54.7112 -54.7093
   -54.7077 -54.7059 -54.7051 -54.7028 -54.7003 -54.6973 -54.6939 -54.6919
   -54.6907 -54.6882 -54.6868 -54.6843 -54.6824 -54.6793 -54.6785 -54.6753
   -54.6743 -54.6714 -54.6706 -54.6692 -54.6664 -54.6638 -54.6624 -54.6600
   -54.6576 -54.6558 -54.6541 -54.6518 -54.6495 -54.6482 -54.6464 -54.6433
   -54.6384 -54.6372 -54.6348 -54.6307 -54.6288 -54.6260 -54.6220 -54.6169
   -54.6162 -54.6141 -54.6132 -54.6110 -54.6085 -54.6046 -54.6024 -54.6013
   -54.5993 -54.5983 -54.5971 -54.5939 -54.5896 -54.5884 -54.5854 -54.5837
   -54.5819 -54.5797 -54.5767 -54.5751 -54.5732 -54.5690 -54.5676 -54.5667
   -54.5658 -54.5641 -54.5600 -54.5597 -54.5547 -54.5536 -54.5526 -54.5500
   -54.5494 -54.5473 -54.5470 -54.5444 -54.5443 -54.5435 -54.5399 -54.5373
   -16.9772  -8.7923  -8.3906  -7.6849  -7.4024  -7.0558  -6.8965  -6.7005
    -6.6171  -6.4401  -6.2470  -6.1877  -6.0331  -5.9375  -5.8362  -5.7593
    -5.6178  -5.5692  -5.5299  -5.4230  -5.3521  -5.3261  -5.2534  -5.2261
    -5.1982  -5.1844  -5.1662  -5.1272  -5.1008  -5.0548  -4.9801  -4.9104
    -4.8750  -4.8491  -4.8355  -4.8247  -4.8177  -4.8046  -4.7990  -4.7856
    -4.7605  -4.7446  -4.7379  -4.7250  -4.7064  -4.6864  -4.6695  -4.6636
    -4.6387  -4.6331  -4.6292  -4.6095  -4.6051  -4.5531  -4.5466  -4.5407
    -4.5300  -4.5219  -4.5086  -4.4668  -4.4422  -4.3873  -4.3696  -4.3588
    -4.3287  -4.3173  -4.2814  -4.2308  -4.2218  -4.1725  -4.1258  -4.0893
    -4.0626  -4.0482  -4.0398  -4.0113  -3.9621  -3.9514  -3.9392  -3.9354
    -3.9263  -3.9159  -3.9091  -3.9003  -3.8936  -3.8869  -3.8772  -3.8740
    -3.8660  -3.8539  -3.8479  -3.8434  -3.8406  -3.8265  -3.8154  -3.8103
    -3.8032  -3.7981  -3.7944  -3.7884  -3.7796  -3.7730  -3.7615  -3.7526
    -3.7289  -3.7117  -3.7012  -3.6974  -3.6878  -3.6817  -3.6686  -3.6466
    -3.6426  -3.6334  -3.6274  -3.6007  -3.5767  -3.5317  -3.5172  -3.4906
    -3.4717  -3.4545  -3.4451  -3.4371  -3.4274  -3.3936  -3.3671  -3.3466
    -3.3398  -3.3309  -3.3242  -3.3131  -3.3104  -3.2975  -3.2937  -3.2878
    -3.2752  -3.2590  -3.2481  -3.2430  -3.2374  -3.2313  -3.2104  -3.1899
    -3.1847  -3.1777  -3.1415  -3.1162  -3.0937  -3.0878  -3.0800  -3.0707
    -3.0610  -3.0482  -3.0434  -3.0386  -3.0369  -3.0304  -3.0204  -3.0136
    -3.0035  -2.9973  -2.9847  -2.9748  -2.9636  -2.9466  -2.9378  -2.9104
    -2.8916  -2.8814  -2.8600  -2.8470  -2.8378  -2.8265  -2.8146  -2.7892
    -2.7843  -2.7696  -2.7537  -2.7446  -2.7126  -2.6967  -2.6727  -2.6562
    -2.6388  -2.6152  -2.5952  -2.5781  -2.5655  -2.5163  -2.4278  -2.3875
    -2.3750  -2.3705  -2.3388  -2.3240  -2.3073  -2.2932  -2.2829  -2.2607
    -2.2396  -2.2301  -2.2236  -2.2178  -2.2083  -2.1927  -2.1903  -2.1809
    -2.1691  -2.1450  -2.1383  -2.1321  -2.1140  -2.1033  -2.0724  -2.0630
    -2.0553  -2.0480  -2.0427  -2.0327  -2.0290  -2.0168  -2.0140  -2.0025
    -1.9988  -1.9940  -1.9814  -1.9761  -1.9482  -1.9342  -1.9307  -1.9254
    -1.9202  -1.9130  -1.9043  -1.8991  -1.8955  -1.8877  -1.8810  -1.8775
    -1.8697  -1.8680  -1.8595  -1.8516  -1.8492  -1.8448  -1.8339  -1.8244
    -1.8197  -1.8124  -1.8038  -1.7994  -1.7943  -1.7873  -1.7787  -1.7775
    -1.7719  -1.7696  -1.7672  -1.7539  -1.7518  -1.7465  -1.7453  -1.7329
    -1.7263  -1.7222  -1.7109  -1.7100  -1.7076  -1.7038  -1.7007  -1.6985
    -1.6895  -1.6856  -1.6659  -1.6617  -1.6571  -1.6487  -1.6367  -1.6346
    -1.6262  -1.6157  -1.5907  -1.5693  -1.5645  -1.5624  -1.5532  -1.5482
    -1.5374  -1.5319  -1.5192  -1.5096  -1.5036  -1.5010  -1.4956  -1.4856
    -1.4675  -1.4561  -1.4333  -1.4317  -1.4296  -1.4225  -1.4067  -1.4027
    -1.3903  -1.3868  -1.3818  -1.3697  -1.3576  -1.3347  -1.2945  -1.2851
    -1.2496  -1.2375  -1.2021  -1.1593  -1.1006  -1.0142  -1.0048  -0.9833
    -0.9652  -0.9634  -0.9282  -0.9241  -0.9163  -0.8808  -0.8504  -0.8392
    -0.8306  -0.8231  -0.8134  -0.7965  -0.7915  -0.7693  -0.7571  -0.7251
    -0.7135  -0.7037  -0.6632  -0.6316  -0.5969  -0.5717  -0.5621  -0.4286
    -0.3841  -0.1756  -0.0678   0.0142   0.0354   0.2122   0.2921   0.3775
     0.4454   0.5560   0.5794   0.6825   0.7494   0.8306   0.9471   0.9806
     1.1610   1.1745   1.2367

          k = 0.2500 0.1768 0.0000 (128340 PWs)   bands (ev):

   -88.8661 -88.8596 -88.8274 -88.8244 -88.8243 -88.8229 -88.8163 -88.8092
   -88.8083 -88.8050 -88.7982 -88.7980 -88.7961 -88.7924 -88.7907 -88.7901
   -88.7891 -88.7874 -88.7797 -88.7796 -88.7764 -88.7747 -88.7740 -88.7672
   -88.7655 -88.7653 -88.7647 -88.7458 -88.7322 -88.7270 -88.7263 -88.7244
   -88.7086 -88.6867 -88.6797 -88.6746 -88.6705 -88.6681 -88.6621 -88.6567
   -88.6556 -88.6535 -88.6520 -88.6511 -88.6497 -88.6454 -88.6451 -88.6442
   -88.6425 -88.6411 -88.6404 -88.6390 -88.6385 -88.6346 -88.6342 -88.6327
   -88.6286 -88.6243 -88.6236 -88.6226 -88.6149 -88.6134 -88.6045 -88.5993
   -55.0518 -55.0421 -55.0219 -55.0142 -55.0109 -55.0074 -55.0045 -55.0040
   -55.0008 -54.9997 -54.9974 -54.9973 -54.9896 -54.9868 -54.9859 -54.9823
   -54.9810 -54.9799 -54.9797 -54.9789 -54.9733 -54.9731 -54.9702 -54.9677
   -54.9657 -54.9617 -54.9601 -54.9546 -54.9541 -54.9400 -54.9362 -54.9345
   -54.9310 -54.9242 -54.9227 -54.9207 -54.9191 -54.9154 -54.9105 -54.9055
   -54.9028 -54.9022 -54.9017 -54.8982 -54.8980 -54.8871 -54.8716 -54.8687
   -54.8658 -54.8626 -54.8594 -54.8573 -54.8566 -54.8510 -54.8506 -54.8477
   -54.8431 -54.8427 -54.8361 -54.8353 -54.8319 -54.8281 -54.8222 -54.8216
   -54.8176 -54.8175 -54.8161 -54.8157 -54.8146 -54.8120 -54.8092 -54.8056
   -54.8049 -54.8022 -54.7969 -54.7968 -54.7889 -54.7881 -54.7843 -54.7840
   -54.7816 -54.7790 -54.7761 -54.7757 -54.7697 -54.7680 -54.7651 -54.7608
   -54.7575 -54.7562 -54.7537 -54.7517 -54.7481 -54.7463 -54.7460 -54.7420
   -54.7404 -54.7395 -54.7359 -54.7328 -54.7317 -54.7283 -54.7259 -54.7256
   -54.7246 -54.7226 -54.7225 -54.7217 -54.7177 -54.7161 -54.7134 -54.7115
   -54.7092 -54.7075 -54.7009 -54.6991 -54.6943 -54.6926 -54.6908 -54.6906
   -54.6903 -54.6854 -54.6843 -54.6835 -54.6801 -54.6786 -54.6771 -54.6768
   -54.6734 -54.6696 -54.6681 -54.6649 -54.6635 -54.6610 -54.6576 -54.6574
   -54.6560 -54.6556 -54.6532 -54.6463 -54.6461 -54.6421 -54.6411 -54.6363
   -54.6357 -54.6353 -54.6347 -54.6329 -54.6316 -54.6293 -54.6248 -54.6160
   -54.6155 -54.6105 -54.6095 -54.6076 -54.6024 -54.6017 -54.6001 -54.5975
   -54.5967 -54.5949 -54.5942 -54.5920 -54.5911 -54.5867 -54.5863 -54.5839
   -54.5837 -54.5817 -54.5768 -54.5751 -54.5748 -54.5707 -54.5676 -54.5669
   -54.5666 -54.5647 -54.5632 -54.5588 -54.5586 -54.5552 -54.5541 -54.5527
   -54.5522 -54.5515 -54.5508 -54.5496 -54.5489 -54.5480 -54.5462 -54.5404
   -16.9772  -8.7846  -8.3564  -7.5796  -7.3081  -7.2723  -7.1528  -6.7689
    -6.4607  -6.4250  -6.2614  -6.2215  -5.9936  -5.9026  -5.8798  -5.7218
    -5.6070  -5.4788  -5.4494  -5.3396  -5.2506  -5.2449  -5.2369  -5.1985
    -5.1851  -5.1307  -5.1169  -5.1168  -5.0964  -5.0207  -5.0064  -4.9934
    -4.9150  -4.8898  -4.8865  -4.8738  -4.8148  -4.7985  -4.7976  -4.7808
    -4.7632  -4.7532  -4.7486  -4.7338  -4.7271  -4.7245  -4.7174  -4.7142
    -4.6797  -4.6780  -4.6470  -4.6347  -4.6222  -4.6167  -4.5741  -4.5495
    -4.5438  -4.4933  -4.4787  -4.4653  -4.3841  -4.3831  -4.3474  -4.3403
    -4.3168  -4.2626  -4.2484  -4.2443  -4.2109  -4.2101  -4.1716  -4.1394
    -4.0738  -4.0604  -4.0425  -3.9818  -3.9752  -3.9671  -3.9637  -3.9479
    -3.9426  -3.9412  -3.9377  -3.9356  -3.9277  -3.9256  -3.9169  -3.9112
    -3.9091  -3.8904  -3.8775  -3.8640  -3.8361  -3.8215  -3.8079  -3.7953
    -3.7868  -3.7600  -3.7569  -3.7384  -3.7375  -3.7320  -3.7267  -3.7177
    -3.7051  -3.6905  -3.6831  -3.6761  -3.6526  -3.6381  -3.6105  -3.6002
    -3.5931  -3.5801  -3.5676  -3.5392  -3.5320  -3.5290  -3.5285  -3.5227
    -3.5181  -3.5061  -3.5007  -3.4876  -3.4795  -3.4622  -3.4295  -3.4250
    -3.4114  -3.3799  -3.3521  -3.3312  -3.3228  -3.3171  -3.3133  -3.3031
    -3.2916  -3.2758  -3.2607  -3.2408  -3.2315  -3.2304  -3.2235  -3.2060
    -3.1885  -3.1829  -3.1644  -3.1551  -3.1504  -3.1296  -3.1184  -3.0809
    -3.0777  -3.0572  -3.0540  -3.0394  -3.0274  -3.0246  -3.0217  -3.0038
    -2.9959  -2.9729  -2.9540  -2.9381  -2.9290  -2.9210  -2.9137  -2.9098
    -2.9046  -2.8999  -2.8881  -2.8870  -2.8752  -2.8697  -2.8687  -2.8529
    -2.8383  -2.8274  -2.7932  -2.7826  -2.7528  -2.6623  -2.6122  -2.5936
    -2.5841  -2.5514  -2.5469  -2.4826  -2.4574  -2.4542  -2.4176  -2.4014
    -2.3796  -2.3592  -2.3410  -2.3288  -2.3256  -2.2961  -2.2918  -2.2542
    -2.2459  -2.2322  -2.2234  -2.2116  -2.2086  -2.1946  -2.1891  -2.1653
    -2.1533  -2.1494  -2.1359  -2.1344  -2.1271  -2.1048  -2.1019  -2.0972
    -2.0967  -2.0808  -2.0527  -2.0467  -2.0149  -2.0059  -1.9970  -1.9864
    -1.9832  -1.9781  -1.9769  -1.9706  -1.9569  -1.9508  -1.9481  -1.9418
    -1.9232  -1.9229  -1.9023  -1.8989  -1.8898  -1.8862  -1.8807  -1.8735
    -1.8720  -1.8614  -1.8550  -1.8513  -1.8430  -1.8322  -1.8165  -1.8052
    -1.8003  -1.7934  -1.7908  -1.7808  -1.7804  -1.7657  -1.7569  -1.7473
    -1.7337  -1.7300  -1.7239  -1.7224  -1.7181  -1.7106  -1.7000  -1.6939
    -1.6806  -1.6756  -1.6629  -1.6615  -1.6537  -1.6500  -1.6479  -1.6419
    -1.6382  -1.6371  -1.6344  -1.6330  -1.6227  -1.6201  -1.6073  -1.6072
    -1.6003  -1.5757  -1.5754  -1.5665  -1.5639  -1.5593  -1.5553  -1.5534
    -1.5368  -1.5337  -1.5245  -1.5222  -1.5095  -1.5035  -1.4853  -1.4839
    -1.4751  -1.4556  -1.4549  -1.4463  -1.4037  -1.4015  -1.3830  -1.3769
    -1.3580  -1.3486  -1.3443  -1.3381  -1.3297  -1.2722  -1.2535  -1.2370
    -1.2143  -1.2133  -1.2011  -1.1885  -1.0654  -1.0443  -1.0420  -0.9811
    -0.9744  -0.9658  -0.9413  -0.8807  -0.8704  -0.8559  -0.8382  -0.8195
    -0.8125  -0.8087  -0.7938  -0.7782  -0.7702  -0.7658  -0.7484  -0.7021
    -0.6861  -0.6286  -0.6262  -0.5921  -0.5312  -0.4832  -0.4772  -0.3874
    -0.3779  -0.2622  -0.1557  -0.0012   0.1003   0.1846   0.1953   0.2187
     0.2442   0.3208   0.3238   0.3757   0.3989   0.5218   0.5339   0.7289
     0.8642   0.9376   0.9856

          k = 0.2500-0.6187 0.0000 (128424 PWs)   bands (ev):

   -88.8661 -88.8596 -88.8270 -88.8253 -88.8225 -88.8216 -88.8192 -88.8127
   -88.8072 -88.8020 -88.7983 -88.7961 -88.7956 -88.7950 -88.7927 -88.7912
   -88.7879 -88.7852 -88.7827 -88.7773 -88.7758 -88.7757 -88.7723 -88.7678
   -88.7666 -88.7658 -88.7639 -88.7458 -88.7321 -88.7272 -88.7263 -88.7243
   -88.7085 -88.6856 -88.6820 -88.6765 -88.6689 -88.6660 -88.6601 -88.6576
   -88.6560 -88.6548 -88.6528 -88.6513 -88.6496 -88.6466 -88.6456 -88.6440
   -88.6433 -88.6415 -88.6391 -88.6382 -88.6363 -88.6343 -88.6329 -88.6325
   -88.6304 -88.6254 -88.6247 -88.6228 -88.6147 -88.6116 -88.6037 -88.6005
   -55.0507 -55.0424 -55.0194 -55.0153 -55.0131 -55.0092 -55.0053 -55.0039
   -55.0021 -54.9983 -54.9963 -54.9947 -54.9880 -54.9868 -54.9853 -54.9839
   -54.9828 -54.9804 -54.9797 -54.9773 -54.9750 -54.9705 -54.9686 -54.9668
   -54.9662 -54.9613 -54.9580 -54.9562 -54.9542 -54.9361 -54.9313 -54.9289
   -54.9250 -54.9194 -54.9185 -54.9180 -54.9147 -54.9144 -54.9113 -54.9092
   -54.9045 -54.8997 -54.8982 -54.8904 -54.8884 -54.8834 -54.8796 -54.8781
   -54.8739 -54.8716 -54.8701 -54.8665 -54.8622 -54.8585 -54.8545 -54.8486
   -54.8462 -54.8450 -54.8395 -54.8345 -54.8313 -54.8300 -54.8255 -54.8237
   -54.8199 -54.8178 -54.8170 -54.8115 -54.8089 -54.8073 -54.8046 -54.8021
   -54.8013 -54.7996 -54.7978 -54.7972 -54.7954 -54.7946 -54.7923 -54.7886
   -54.7858 -54.7832 -54.7811 -54.7783 -54.7749 -54.7717 -54.7703 -54.7680
   -54.7637 -54.7634 -54.7604 -54.7579 -54.7533 -54.7477 -54.7449 -54.7428
   -54.7407 -54.7381 -54.7344 -54.7322 -54.7270 -54.7251 -54.7235 -54.7226
   -54.7170 -54.7162 -54.7137 -54.7124 -54.7103 -54.7090 -54.7079 -54.7062
   -54.7042 -54.7026 -54.7010 -54.6984 -54.6969 -54.6944 -54.6913 -54.6901
   -54.6884 -54.6869 -54.6853 -54.6836 -54.6827 -54.6795 -54.6783 -54.6773
   -54.6745 -54.6690 -54.6675 -54.6644 -54.6607 -54.6589 -54.6547 -54.6537
   -54.6509 -54.6500 -54.6491 -54.6475 -54.6443 -54.6433 -54.6417 -54.6391
   -54.6380 -54.6348 -54.6319 -54.6280 -54.6249 -54.6235 -54.6216 -54.6174
   -54.6155 -54.6115 -54.6098 -54.6074 -54.6050 -54.5990 -54.5960 -54.5952
   -54.5930 -54.5906 -54.5867 -54.5863 -54.5846 -54.5828 -54.5819 -54.5793
   -54.5780 -54.5766 -54.5755 -54.5739 -54.5733 -54.5721 -54.5713 -54.5702
   -54.5693 -54.5675 -54.5670 -54.5653 -54.5634 -54.5624 -54.5621 -54.5604
   -54.5596 -54.5584 -54.5572 -54.5525 -54.5511 -54.5499 -54.5484 -54.5430
   -16.9772  -8.7488  -8.1699  -7.8848  -7.5966  -7.2951  -6.8242  -6.7828
    -6.5366  -6.3628  -6.2731  -6.1375  -6.0352  -5.6737  -5.6033  -5.5409
    -5.5162  -5.4848  -5.4276  -5.4198  -5.3846  -5.2908  -5.2193  -5.2170
    -5.1957  -5.1807  -5.1490  -5.0996  -5.0812  -5.0608  -5.0474  -5.0268
    -5.0096  -5.0061  -4.9793  -4.9382  -4.9093  -4.8951  -4.8863  -4.8755
    -4.8551  -4.8381  -4.8004  -4.7874  -4.7738  -4.7537  -4.6987  -4.6715
    -4.6627  -4.6399  -4.5970  -4.5817  -4.5570  -4.5223  -4.5127  -4.4912
    -4.4581  -4.4395  -4.4244  -4.4151  -4.4015  -4.3789  -4.3624  -4.3489
    -4.3196  -4.3007  -4.2851  -4.2674  -4.2465  -4.2390  -4.2030  -4.1594
    -4.1410  -4.1325  -4.1261  -4.0506  -4.0117  -3.9888  -3.9738  -3.9599
    -3.9560  -3.9484  -3.9364  -3.9293  -3.9213  -3.9071  -3.8719  -3.8511
    -3.8325  -3.8153  -3.8088  -3.8005  -3.7931  -3.7742  -3.7679  -3.7551
    -3.7479  -3.7392  -3.7320  -3.7239  -3.7170  -3.7111  -3.7063  -3.6940
    -3.6849  -3.6668  -3.6592  -3.6490  -3.6303  -3.6169  -3.6123  -3.6019
    -3.5944  -3.5924  -3.5743  -3.5516  -3.5442  -3.5412  -3.5145  -3.5092
    -3.4948  -3.4906  -3.4824  -3.4752  -3.4660  -3.4544  -3.4537  -3.4361
    -3.4297  -3.4251  -3.4195  -3.4097  -3.4008  -3.3915  -3.3712  -3.3567
    -3.3428  -3.3357  -3.3040  -3.2945  -3.2577  -3.2111  -3.1967  -3.1866
    -3.1724  -3.1699  -3.1591  -3.1530  -3.1371  -3.1305  -3.1239  -3.1202
    -3.1060  -3.0939  -3.0869  -3.0827  -3.0807  -3.0660  -3.0585  -3.0433
    -3.0208  -3.0151  -3.0111  -3.0064  -2.9674  -2.9553  -2.9210  -2.8959
    -2.8822  -2.8641  -2.8488  -2.8182  -2.7918  -2.7838  -2.7707  -2.7311
    -2.7169  -2.6881  -2.6659  -2.6435  -2.6045  -2.5901  -2.5828  -2.5418
    -2.5297  -2.5049  -2.4829  -2.4539  -2.4354  -2.4265  -2.4203  -2.4105
    -2.3864  -2.3741  -2.3711  -2.3648  -2.3573  -2.3390  -2.3059  -2.2898
    -2.2815  -2.2710  -2.2567  -2.2379  -2.2254  -2.2126  -2.1985  -2.1838
    -2.1759  -2.1575  -2.1508  -2.1400  -2.1281  -2.1182  -2.1140  -2.1061
    -2.0947  -2.0746  -2.0638  -2.0585  -2.0453  -2.0238  -2.0163  -2.0104
    -2.0021  -1.9998  -1.9942  -1.9819  -1.9750  -1.9685  -1.9618  -1.9548
    -1.9447  -1.9419  -1.9273  -1.9151  -1.8995  -1.8955  -1.8890  -1.8807
    -1.8627  -1.8587  -1.8490  -1.8412  -1.8336  -1.8266  -1.8211  -1.8057
    -1.8000  -1.7902  -1.7831  -1.7753  -1.7661  -1.7594  -1.7578  -1.7532
    -1.7414  -1.7290  -1.7186  -1.7126  -1.7066  -1.7009  -1.6912  -1.6853
    -1.6784  -1.6722  -1.6691  -1.6637  -1.6584  -1.6496  -1.6450  -1.6290
    -1.6188  -1.6169  -1.6101  -1.6050  -1.6021  -1.5928  -1.5880  -1.5792
    -1.5751  -1.5718  -1.5636  -1.5623  -1.5529  -1.5506  -1.5412  -1.5324
    -1.5176  -1.4991  -1.4903  -1.4798  -1.4651  -1.4552  -1.4490  -1.4466
    -1.4336  -1.4078  -1.3885  -1.3584  -1.3535  -1.3398  -1.3317  -1.2944
    -1.2809  -1.2572  -1.2428  -1.2104  -1.2029  -1.1879  -1.1584  -1.1430
    -1.1393  -1.1331  -1.1235  -1.0848  -1.0692  -1.0484  -1.0434  -1.0243
    -1.0150  -0.9837  -0.9744  -0.9417  -0.9290  -0.9259  -0.9156  -0.9038
    -0.8886  -0.8637  -0.8439  -0.8326  -0.8267  -0.8175  -0.8075  -0.7797
    -0.7644  -0.7522  -0.7262  -0.7208  -0.6965  -0.6398  -0.6066  -0.5912
    -0.5395  -0.4335  -0.3193  -0.1784  -0.1027  -0.0307   0.0331   0.1258
     0.1664   0.2987   0.3157   0.4502   0.6317   0.6870   0.8604   0.8743
     0.9665   1.0140   1.1342

          k = 0.2500-0.3536 0.0000 (128397 PWs)   bands (ev):

   -88.8661 -88.8596 -88.8269 -88.8257 -88.8237 -88.8221 -88.8164 -88.8145
   -88.8020 -88.8007 -88.7987 -88.7983 -88.7974 -88.7960 -88.7954 -88.7912
   -88.7845 -88.7841 -88.7828 -88.7791 -88.7760 -88.7749 -88.7715 -88.7693
   -88.7680 -88.7645 -88.7632 -88.7458 -88.7322 -88.7270 -88.7263 -88.7243
   -88.7086 -88.6862 -88.6817 -88.6756 -88.6675 -88.6649 -88.6606 -88.6588
   -88.6581 -88.6552 -88.6530 -88.6510 -88.6505 -88.6459 -88.6456 -88.6448
   -88.6425 -88.6418 -88.6391 -88.6378 -88.6358 -88.6338 -88.6319 -88.6307
   -88.6294 -88.6271 -88.6252 -88.6234 -88.6155 -88.6123 -88.6036 -88.5999
   -55.0514 -55.0421 -55.0203 -55.0157 -55.0124 -55.0088 -55.0064 -55.0042
   -55.0028 -54.9992 -54.9939 -54.9906 -54.9891 -54.9887 -54.9883 -54.9857
   -54.9815 -54.9804 -54.9791 -54.9764 -54.9756 -54.9701 -54.9682 -54.9675
   -54.9661 -54.9600 -54.9587 -54.9583 -54.9541 -54.9400 -54.9350 -54.9336
   -54.9283 -54.9239 -54.9225 -54.9200 -54.9161 -54.9144 -54.9114 -54.9098
   -54.9081 -54.9070 -54.9034 -54.9030 -54.9012 -54.8855 -54.8730 -54.8722
   -54.8642 -54.8632 -54.8572 -54.8543 -54.8511 -54.8461 -54.8429 -54.8418
   -54.8398 -54.8379 -54.8353 -54.8342 -54.8302 -54.8286 -54.8265 -54.8260
   -54.8250 -54.8202 -54.8168 -54.8156 -54.8151 -54.8121 -54.8102 -54.8067
   -54.8049 -54.8022 -54.7996 -54.7929 -54.7903 -54.7888 -54.7854 -54.7828
   -54.7807 -54.7768 -54.7763 -54.7744 -54.7716 -54.7687 -54.7659 -54.7637
   -54.7610 -54.7580 -54.7549 -54.7529 -54.7491 -54.7473 -54.7446 -54.7419
   -54.7410 -54.7400 -54.7393 -54.7381 -54.7351 -54.7310 -54.7282 -54.7216
   -54.7205 -54.7186 -54.7176 -54.7132 -54.7105 -54.7091 -54.7074 -54.7065
   -54.7060 -54.7050 -54.7040 -54.7028 -54.7009 -54.6981 -54.6948 -54.6917
   -54.6900 -54.6886 -54.6877 -54.6836 -54.6828 -54.6816 -54.6799 -54.6781
   -54.6751 -54.6727 -54.6664 -54.6636 -54.6612 -54.6604 -54.6575 -54.6559
   -54.6510 -54.6503 -54.6493 -54.6468 -54.6434 -54.6422 -54.6402 -54.6394
   -54.6376 -54.6345 -54.6329 -54.6299 -54.6292 -54.6247 -54.6232 -54.6219
   -54.6189 -54.6165 -54.6151 -54.6113 -54.6054 -54.6029 -54.6019 -54.5994
   -54.5984 -54.5968 -54.5903 -54.5894 -54.5890 -54.5876 -54.5853 -54.5833
   -54.5787 -54.5779 -54.5755 -54.5746 -54.5717 -54.5698 -54.5690 -54.5674
   -54.5664 -54.5659 -54.5638 -54.5607 -54.5602 -54.5555 -54.5541 -54.5530
   -54.5522 -54.5511 -54.5495 -54.5493 -54.5492 -54.5480 -54.5453 -54.5424
   -16.9772  -8.7551  -8.2688  -7.7512  -7.6868  -7.2994  -6.7674  -6.6087
    -6.3816  -6.2701  -6.2179  -6.1242  -6.0771  -6.0156  -5.8564  -5.8284
    -5.5562  -5.3518  -5.3357  -5.3219  -5.3138  -5.2972  -5.2858  -5.2484
    -5.2425  -5.1683  -5.1631  -5.1594  -5.1258  -5.1045  -5.0708  -5.0531
    -5.0417  -4.9808  -4.9092  -4.8865  -4.8766  -4.8620  -4.8406  -4.8346
    -4.8132  -4.8064  -4.7997  -4.7856  -4.7515  -4.7268  -4.6932  -4.6624
    -4.6520  -4.6349  -4.6189  -4.6017  -4.5690  -4.5599  -4.4901  -4.4795
    -4.4290  -4.4238  -4.4235  -4.3975  -4.3864  -4.3791  -4.3757  -4.3652
    -4.3153  -4.3141  -4.2872  -4.2573  -4.2528  -4.2300  -4.1762  -4.1607
    -4.0817  -4.0716  -4.0471  -4.0152  -4.0042  -3.9653  -3.9628  -3.9483
    -3.9479  -3.9174  -3.9035  -3.8952  -3.8931  -3.8901  -3.8662  -3.8643
    -3.8623  -3.8479  -3.8407  -3.8379  -3.8319  -3.8285  -3.8119  -3.7933
    -3.7792  -3.7729  -3.7468  -3.7427  -3.7398  -3.7265  -3.7222  -3.7096
    -3.6941  -3.6867  -3.6852  -3.6745  -3.6662  -3.6545  -3.6144  -3.5843
    -3.5788  -3.5687  -3.5663  -3.5595  -3.5489  -3.5441  -3.5409  -3.5313
    -3.5182  -3.5160  -3.5054  -3.4703  -3.4522  -3.4410  -3.4253  -3.4209
[...]
     1.9855   2.0454   2.1658   2.1938   2.2338   2.2534   2.3778   2.4226
     2.4835   2.5140   2.5655

          k =-0.5000-0.3536 0.0000 (128560 PWs)   bands (ev):

   -86.2691 -86.2675 -85.9291 -85.9282 -85.8810 -85.8777 -85.8577 -85.8519
   -85.8323 -85.8263 -85.8110 -85.8075 -85.8000 -85.7999 -85.7986 -85.7959
   -85.7890 -85.7862 -85.7840 -85.7806 -85.7779 -85.7770 -85.7764 -85.7737
   -85.7703 -85.7668 -85.7658 -85.7616 -85.7585 -85.7582 -85.7580 -85.7567
   -85.7565 -85.7544 -85.7543 -85.7383 -85.7367 -85.7347 -85.7343 -85.7294
   -85.7272 -85.7225 -85.7224 -85.7218 -85.7209 -85.7166 -85.7164 -85.7135
   -85.7097 -85.7026 -85.7009 -85.7004 -85.7003 -85.7002 -85.6990 -85.6985
   -85.6983 -85.6967 -85.6964 -85.6920 -85.6778 -85.6777 -85.6773 -85.6751
   -52.6993 -52.6845 -52.3601 -52.3551 -52.2145 -52.1982 -52.1588 -52.1580
   -52.1479 -52.1242 -52.0961 -52.0887 -52.0886 -52.0824 -52.0810 -52.0780
   -52.0776 -52.0762 -52.0694 -52.0685 -52.0646 -52.0639 -52.0618 -52.0589
   -52.0577 -52.0538 -52.0520 -52.0479 -52.0479 -52.0419 -52.0374 -52.0370
   -52.0344 -52.0336 -52.0311 -52.0280 -52.0237 -52.0206 -52.0196 -52.0180
   -52.0161 -52.0136 -52.0110 -52.0064 -52.0038 -51.9993 -51.9983 -51.9971
   -51.9911 -51.9852 -51.9832 -51.9786 -51.9782 -51.9762 -51.9762 -51.9731
   -51.9727 -51.9721 -51.9720 -51.9706 -51.9676 -51.9675 -51.9653 -51.9637
   -51.9619 -51.9602 -51.9531 -51.9520 -51.9474 -51.9431 -51.9404 -51.9383
   -51.9335 -51.9254 -51.9206 -51.9193 -51.9169 -51.9113 -51.9045 -51.9024
   -51.9021 -51.9005 -51.8934 -51.8924 -51.8886 -51.8815 -51.8807 -51.8804
   -51.8747 -51.8738 -51.8712 -51.8685 -51.8684 -51.8643 -51.8619 -51.8608
   -51.8604 -51.8579 -51.8546 -51.8528 -51.8512 -51.8503 -51.8428 -51.8427
   -51.8368 -51.8347 -51.8347 -51.8302 -51.8260 -51.8252 -51.8248 -51.8245
   -51.8219 -51.8219 -51.8191 -51.8165 -51.8149 -51.8146 -51.8124 -51.8096
   -51.8074 -51.8061 -51.8038 -51.8012 -51.7953 -51.7951 -51.7938 -51.7935
   -51.7894 -51.7876 -51.7868 -51.7832 -51.7817 -51.7810 -51.7787 -51.7744
   -51.7731 -51.7726 -51.7694 -51.7675 -51.7661 -51.7655 -51.7638 -51.7632
   -51.7626 -51.7611 -51.7590 -51.7583 -51.7572 -51.7566 -51.7556 -51.7551
   -51.7532 -51.7501 -51.7473 -51.7465 -51.7430 -51.7410 -51.7406 -51.7377
   -51.7375 -51.7368 -51.7347 -51.7338 -51.7336 -51.7332 -51.7331 -51.7324
   -51.7321 -51.7305 -51.7296 -51.7287 -51.7283 -51.7256 -51.7219 -51.7212
   -51.7197 -51.7181 -51.7167 -51.7167 -51.7162 -51.7109 -51.7105 -51.7100
   -51.7080 -51.7061 -51.7058 -51.7048 -51.7022 -51.7006 -51.6983 -51.6976
   -17.0292  -8.5430  -7.7934  -7.7595  -7.2493  -7.2141  -6.8320  -6.5282
    -6.1155  -6.0223  -5.7308  -5.5941  -5.5756  -5.1838  -5.1411  -5.1090
    -5.0777  -4.7242  -4.5183  -4.3473  -4.3341  -4.3265  -4.3030  -4.2969
    -4.2543  -4.2205  -4.1986  -4.1954  -4.1591  -4.1545  -3.9336  -3.7997
    -3.7763  -3.7698  -3.7659  -3.7282  -3.6710  -3.5758  -3.4814  -3.3187
    -3.3003  -3.2954  -3.2653  -3.2607  -3.2297  -3.2103  -3.1706  -3.1533
    -3.1503  -3.0937  -3.0562  -3.0216  -3.0155  -2.9929  -2.9707  -2.9412
    -2.9027  -2.7534  -2.7459  -2.7313  -2.7179  -2.7087  -2.6695  -2.5017
    -2.4678  -2.4458  -2.4288  -2.4153  -2.4024  -2.3198  -2.2935  -2.2815
    -2.2530  -2.2315  -2.2158  -2.2015  -2.1991  -2.1905  -2.1748  -2.1731
    -2.1566  -2.1436  -2.1372  -2.1008  -2.0965  -2.0876  -2.0814  -2.0733
    -2.0652  -2.0482  -2.0369  -1.9919  -1.9633  -1.9450  -1.8679  -1.8569
    -1.8494  -1.7918  -1.7453  -1.7397  -1.7254  -1.7249  -1.7186  -1.7077
    -1.6951  -1.6911  -1.6797  -1.6784  -1.6549  -1.6520  -1.6452  -1.6442
    -1.6379  -1.6214  -1.6206  -1.6061  -1.6057  -1.6038  -1.5927  -1.5843
    -1.5818  -1.5772  -1.5709  -1.5660  -1.5554  -1.5534  -1.5441  -1.5355
    -1.5228  -1.5024  -1.5020  -1.4927  -1.4888  -1.4799  -1.4724  -1.4622
    -1.4616  -1.4599  -1.4349  -1.4295  -1.4276  -1.3734  -1.3583  -1.2990
    -1.2621  -1.2313  -1.2209  -1.2076  -1.2040  -1.2011  -1.1849  -1.1841
    -1.1741  -1.1522  -1.1203  -1.0854  -1.0537  -1.0442  -1.0271  -1.0149
    -1.0002  -0.9918  -0.9841  -0.9776  -0.9560  -0.9515  -0.9326  -0.9160
    -0.8258  -0.7921  -0.7768  -0.7655  -0.7470  -0.7397  -0.7328  -0.7185
    -0.7043  -0.6883  -0.6879  -0.6325  -0.6079  -0.5869  -0.5789  -0.5738
    -0.5716  -0.5579  -0.5562  -0.5468  -0.5321  -0.3859  -0.3139  -0.3017
    -0.2860  -0.1857  -0.1839  -0.1636  -0.0034   0.0367   0.0731   0.0914
     0.1048   0.1409   0.1530   0.1609   0.1756   0.2052   0.2074   0.2390
     0.2504   0.2544   0.2739   0.3062   0.3275   0.3497   0.3665   0.3830
     0.3855   0.3970   0.4032   0.4481   0.4578   0.4646   0.4939   0.5432
     0.5520   0.5642   0.5717   0.5779   0.5839   0.5885   0.5893   0.5995
     0.6102   0.6109   0.6467   0.6717   0.6748   0.6912   0.7333   0.7347
     0.7482   0.7576   0.7611   0.7747   0.7880   0.8140   0.8673   0.8837
     0.8878   0.8919   0.9247   0.9369   0.9691   0.9826   0.9925   1.0049
     1.0092   1.0093   1.0139   1.0260   1.0390   1.0440   1.0609   1.0663
     1.0669   1.0730   1.0797   1.0871   1.0897   1.0942   1.1055   1.1220
     1.1270   1.1310   1.1361   1.1542   1.1654   1.1705   1.1772   1.1816
     1.1826   1.1853   1.1942   1.1965   1.1980   1.2180   1.2250   1.2291
     1.2370   1.2481   1.2520   1.2566   1.2630   1.2658   1.2742   1.2754
     1.2795   1.2866   1.3011   1.3096   1.3450   1.3680   1.3732   1.3796
     1.3886   1.3982   1.3997   1.4002   1.4128   1.4134   1.4342   1.4439
     1.4462   1.4541   1.4549   1.4607   1.4686   1.4703   1.4726   1.4752
     1.4779   1.4821   1.4866   1.4901   1.4924   1.5106   1.5215   1.5256
     1.5301   1.5384   1.5463   1.5515   1.5555   1.5626   1.5720   1.5732
     1.5873   1.6117   1.6344   1.6426   1.6476   1.6548   1.6564   1.6773
     1.7354   1.7677   1.8659   1.8705   1.9742   1.9998   2.0203   2.0719
     2.0878   2.0955   2.1081   2.1283   2.1330   2.1418   2.1494   2.1516
     2.1693   2.1838   2.1898

     the Fermi energy is    -0.6641 ev

!    total energy              =  -21095.02889810 Ry
     estimated scf accuracy    <          5.5E-11 Ry
     smearing contrib. (-TS)   =       0.00223008 Ry
     internal energy E=F+TS    =  -21095.03112818 Ry

     The total energy is F=E-TS. E is the sum of the following terms:
     one-electron contribution = -743979.57686527 Ry
     hartree contribution      =  371959.94236528 Ry
     xc contribution           =   -2234.98172945 Ry
     ewald contribution        =  358034.42790334 Ry
     Dispersion Correction     =      -1.39847891 Ry
     one-center paw contrib.   =   -4873.44432315 Ry

     total magnetization       =   160.85 Bohr mag/cell
     absolute magnetization    =   167.74 Bohr mag/cell

     convergence has been achieved in  16 iterations

     negative rho (up, down):  1.143E-02 1.529E-02

     Forces acting on atoms (cartesian axes, Ry/au):

     atom    1 type  1   force =     0.00053771   -0.00013711    0.00855232
     atom    2 type  1   force =     0.00153970   -0.00230069   -0.01300087
     atom    3 type  1   force =    -0.00063404   -0.00036893    0.00865503
     atom    4 type  1   force =     0.00079981    0.00084135   -0.00784140
     atom    5 type  1   force =    -0.00000068   -0.00001397   -0.00002282
     atom    6 type  1   force =     0.00002599   -0.00003242    0.00002475
     atom    7 type  1   force =     0.00003710    0.00000439   -0.00005712
     atom    8 type  1   force =    -0.00002459    0.00000977    0.00002361
     atom    9 type  1   force =    -0.00001235   -0.00000119    0.00916735
     atom   10 type  1   force =    -0.00022579   -0.00016585    0.00858125
     atom   11 type  1   force =    -0.00020785    0.00121233   -0.00688373
     atom   12 type  1   force =     0.00071231    0.00057140   -0.01119955
     atom   13 type  1   force =    -0.00000409   -0.00000359   -0.00001252
     atom   14 type  1   force =     0.00000049   -0.00000518   -0.00005146
     atom   15 type  1   force =    -0.00000552   -0.00002170    0.00001395
     atom   16 type  1   force =     0.00000087    0.00000097   -0.00000690
     atom   17 type  1   force =    -0.00054038   -0.00043933    0.00856968
     atom   18 type  1   force =     0.00108941    0.00052457   -0.00786586
     atom   19 type  1   force =     0.00056727    0.00039133    0.00867755
     atom   20 type  1   force =     0.00066582   -0.00115436   -0.01077200
     atom   21 type  1   force =     0.00001734    0.00003338   -0.00005354
     atom   22 type  1   force =     0.00000512   -0.00002251    0.00003560
     atom   23 type  1   force =    -0.00002782    0.00000545   -0.00005870
     atom   24 type  1   force =    -0.00006649    0.00011354    0.00012430
     atom   25 type  1   force =     0.00001854    0.00000951    0.00680501
     atom   26 type  1   force =    -0.00068937    0.00082584    0.00968522
     atom   27 type  1   force =    -0.00004978   -0.00008817   -0.00597082
     atom   28 type  1   force =    -0.00092722    0.00069506   -0.00644663
     atom   29 type  1   force =     0.00000759    0.00000454   -0.00007890
     atom   30 type  1   force =     0.00002239   -0.00002330   -0.00006939
     atom   31 type  1   force =     0.00000800    0.00001244    0.00006266
     atom   32 type  1   force =     0.00003630   -0.00000103    0.00001070
     atom   33 type  1   force =    -0.00037099    0.00008358    0.00847209
     atom   34 type  1   force =    -0.00068363   -0.00079298   -0.00803056
     atom   35 type  1   force =     0.00008819    0.00054198    0.00860587
     atom   36 type  1   force =    -0.00174369    0.00232699   -0.01297522
     atom   37 type  1   force =     0.00000156    0.00001849   -0.00002778
     atom   38 type  1   force =     0.00000820   -0.00003741    0.00003427
     atom   39 type  1   force =    -0.00001170    0.00000085   -0.00002180
     atom   40 type  1   force =    -0.00002089    0.00003261    0.00003069
     atom   41 type  1   force =     0.00015478    0.00005747    0.00790594
     atom   42 type  1   force =     0.00055782   -0.00090522    0.00975125
     atom   43 type  1   force =    -0.00112148   -0.00070953   -0.01093789
     atom   44 type  1   force =     0.00031574   -0.00111142   -0.00640282
     atom   45 type  1   force =     0.00001011    0.00000467   -0.00002875
     atom   46 type  1   force =    -0.00001363    0.00002391   -0.00007225
     atom   47 type  1   force =     0.00003246    0.00002074    0.00001898
     atom   48 type  1   force =     0.00001296    0.00002874    0.00000437
     atom   49 type  1   force =     0.00058974    0.00040688    0.00877253
     atom   50 type  1   force =    -0.00079946    0.00090423   -0.01077997
     atom   51 type  1   force =     0.00000796   -0.00039040    0.00843480
     atom   52 type  1   force =    -0.00095483   -0.00031978   -0.00799699
     atom   53 type  1   force =    -0.00000675   -0.00002623   -0.00006066
     atom   54 type  1   force =     0.00008946   -0.00010292    0.00012919
     atom   55 type  1   force =     0.00001917   -0.00000407   -0.00002914
     atom   56 type  1   force =    -0.00002564    0.00002064    0.00002920
     atom   57 type  1   force =    -0.00004424   -0.00001975    0.00917272
     atom   58 type  1   force =    -0.00001322    0.00000231    0.00878884
     atom   59 type  1   force =     0.00107434   -0.00059379   -0.00685034
     atom   60 type  1   force =     0.00018285    0.00007711   -0.00593433
     atom   61 type  1   force =    -0.00000528   -0.00000229   -0.00001053
     atom   62 type  1   force =    -0.00000704   -0.00000819   -0.00003634
     atom   63 type  1   force =    -0.00001661   -0.00000108    0.00001318
     atom   64 type  1   force =    -0.00000715   -0.00000371    0.00004952
     atom   65 type  2   force =     0.00000512    0.00000088   -0.00019310
     atom   66 type  3   force =     0.00001306   -0.00000379    0.00017585
     atom   67 type  3   force =     0.00000692    0.00000391    0.00017370

     Total force =     0.000486     Total SCF correction =     0.000023
     Energy error            =      4.7E-07
     Gradient error          =      1.9E-04

     bfgs converged in  12 scf cycles and  11 bfgs steps
     (criteria: energy <  7.3E-07 Ry, force <  3.9E-04 Ry/Bohr)

     End of BFGS Geometry Optimization

     Final energy   =  -21095.0288981017 Ry

     File ./Fe_NH_H_paper_480c_ESM_p5.bfgs deleted, as requested
Begin final coordinates

ATOMIC_POSITIONS (angstrom)
Fe            1.6549129530        1.1702001330        0.0000000000    0   0   0
Fe            0.0000000000        0.0000000000        2.0269842320    0   0   0
Fe            4.9647388580        3.5106003990        0.0000000000    0   0   0
Fe            3.3098259060        2.3404002660        2.0269842320    0   0   0
Fe            1.6776033711        1.1692157545        4.0287514825
Fe            3.3209245697        9.3545297516        6.0105092938
Fe            4.9754719326        3.5248624137        4.0454289965
Fe            3.3725962313        2.3350287235        6.0223635807
Fe            2.4823638580        3.5106003990        0.0000000000    0   0   0
Fe            4.1372879530        1.1702001330        0.0000000000    0   0   0
Fe            0.8274509060        2.3404002660        2.0269842320    0   0   0
Fe            2.4823750000        0.0000000000        2.0269842320    0   0   0
Fe            2.4829595445        3.5096299004        4.0459531667
Fe            4.1616423268        1.1874571925        4.0370444820
Fe            0.8695366093        2.3222768593        6.0078398744
Fe            2.5001720664        0.0127132255        6.0211829329
Fe            6.6196629530        1.1702001330        0.0000000000    0   0   0
Fe            4.9647500000        0.0000000000        2.0269842320    0   0   0
Fe            9.9294888580        3.5106003990        0.0000000000    0   0   0
Fe            8.2745759060        2.3404002660        2.0269842320    0   0   0
Fe            6.6367863018        1.1754449066        4.0452799364
Fe            4.9806487902        0.0606626176        6.0225303948
Fe            9.9179225601        3.4950682639        4.0434151624
Fe            8.3671620072        2.2084003894        5.9911916725
Fe            7.4471138580        3.5106003990        0.0000000000    0   0   0
Fe            9.1020379530        1.1702001330        0.0000000000    0   0   0
Fe            5.7922009060        2.3404002660        2.0269842320    0   0   0
Fe            7.4471250000        0.0000000000        2.0269842320    0   0   0
Fe            7.4465081553        3.5099687664        4.0026612237
Fe            9.1210085451        1.1412051313        4.0172090239
Fe            5.8851001558        2.4055277767        6.0557850775
Fe           10.7683945419        9.3175171694        6.0103486645
Fe            3.3098147640        5.8510006640        0.0000000000    0   0   0
Fe            1.6549018110        4.6808005310        2.0269842320    0   0   0
Fe            6.6196406700        8.1914009300        0.0000000000    0   0   0
Fe            4.9647277170        7.0212007970        2.0269842320    0   0   0
Fe            3.2884089586        5.8516361967        4.0311870570
Fe           11.5239774349        4.6786249970        6.0180492515
Fe            6.6263051380        8.2130082961        4.0287193638
Fe            4.9618294428        7.0341566486        6.0101636599
Fe            4.1372656700        8.1914009300        0.0000000000    0   0   0
Fe            5.7921897640        5.8510006640        0.0000000000    0   0   0
Fe           12.4118527170        7.0212007970        2.0269842320    0   0   0
Fe            4.1372768110        4.6808005310        2.0269842320    0   0   0
Fe            4.1360657901        8.1907183812        4.0209367257
Fe            5.7713463372        5.8783530062        4.0173030752
Fe           12.3838650997        7.0014927131        6.0213559692
Fe            4.0997404907        4.7063896288        6.0103758482
Fe            8.2745647640        5.8510006640        0.0000000000    0   0   0
Fe            6.6196518110        4.6808005310        2.0269842320    0   0   0
Fe           11.5843906700        8.1914009300        0.0000000000    0   0   0
Fe            9.9294777170        7.0212007970        2.0269842320    0   0   0
Fe            8.2562231013        5.8451895201        4.0435059845
Fe            6.5263055381        4.8118400179        5.9913424449
Fe           11.5778337371        8.1708838126        4.0311698811
Fe            9.9073720999        6.9645758054        6.0179606259
Fe            9.1020156700        8.1914009300        0.0000000000    0   0   0
Fe           10.7569397640        5.8510006640        0.0000000000    0   0   0
Fe            7.4471027170        7.0212007970        2.0269842320    0   0   0
Fe            9.1020268110        4.6808005310        2.0269842320    0   0   0
Fe            9.1013993286        8.1923831265        4.0459460080
Fe           10.7321641357        5.8335100625        4.0345418803
Fe            7.4439995444        7.0667984850        6.0077770695
Fe            9.0114434746        4.6162091109        6.0552954986
N             7.4488763109        3.5116261747        7.0035401772
H             7.4502963222        3.5127741901        8.0300789047
H             4.5642448069        8.4933231338        6.9521732349
End final coordinates



     Writing output data file ./Fe_NH_H_paper_480c_ESM_p5.save/

     init_run     :     30.57s CPU     31.83s WALL (       1 calls)
     electrons    :  27289.82s CPU  27780.07s WALL (      12 calls)
     update_pot   :     63.56s CPU     63.91s WALL (      11 calls)
     forces       :    216.03s CPU    219.73s WALL (      12 calls)

     Called by init_run:
     wfcinit      :     20.72s CPU     21.67s WALL (       1 calls)
     potinit      :      2.83s CPU      2.91s WALL (       1 calls)
     hinit0       :      5.13s CPU      5.25s WALL (       1 calls)

     Called by electrons:
     c_bands      :  22360.13s CPU  22751.51s WALL (     277 calls)
     sum_band     :   1339.71s CPU   1397.30s WALL (     277 calls)
     v_of_rho     :    234.58s CPU    237.47s WALL (     278 calls)
     newd         :     48.78s CPU     49.27s WALL (     278 calls)
     PAW_pot      :     53.11s CPU     53.56s WALL (     289 calls)
     mix_rho      :    998.99s CPU   1016.89s WALL (     277 calls)

     Called by c_bands:
     init_us_2    :    116.19s CPU    124.62s WALL (    1734 calls)
     cegterg      :  19746.21s CPU  20015.93s WALL (     832 calls)

     Called by *egterg:
     cdiaghg      :   5117.17s CPU   5155.34s WALL (    6002 calls)
     h_psi        :   6226.64s CPU   6322.92s WALL (    6071 calls)
     s_psi        :   1608.59s CPU   1620.03s WALL (    6071 calls)
     g_psi        :     29.95s CPU     30.45s WALL (    5236 calls)

     Called by h_psi:
     h_psi:calbec :   1799.56s CPU   1812.37s WALL (    6071 calls)
     vloc_psi     :   2769.72s CPU   2802.16s WALL (    6071 calls)
     add_vuspsi   :   1609.80s CPU   1621.22s WALL (    6071 calls)

     General routines
     calbec       :   2579.31s CPU   2597.40s WALL (    7079 calls)
     fft          :    156.07s CPU    157.67s WALL (    7139 calls)
     ffts         :    449.17s CPU    453.24s WALL (  170114 calls)
     fftw         :   3023.62s CPU   3059.48s WALL ( 3325177 calls)
     interpolate  :     18.30s CPU     18.50s WALL (     556 calls)
     davcio       :      1.09s CPU    139.91s WALL (    7322 calls)

     Parallel routines
     fft_scatt_xy :    412.46s CPU    417.08s WALL ( 3502430 calls)
     fft_scatt_yz :   1717.27s CPU   1737.76s WALL ( 3502430 calls)

     PWSCF        :      7h41m CPU      7h49m WALL


   This run was terminated on:   3:18:58  17Jun2022            

=------------------------------------------------------------------------------=
   JOB DONE.
=------------------------------------------------------------------------------=
