     Message from routine get_command_line:
     unexpected argument # 4     :-in

     Program PWSCF v.6.7MaX starts on 30Jun2022 at 22:30: 2 

     This program is part of the open-source Quantum ESPRESSO suite
     for quantum simulation of materials; please cite
         "P. Giannozzi et al., J. Phys.:Condens. Matter 21 395502 (2009);
         "P. Giannozzi et al., J. Phys.:Condens. Matter 29 465901 (2017);
          URL http://www.quantum-espresso.org", 
     in publications or presentations arising from this work. More details at
     http://www.quantum-espresso.org/quote

     Parallel version (MPI), running on   120 processors

     MPI processes distributed on     1 nodes
     K-points division:     npool     =       8
     R & G space division:  proc/nbgrp/npool/nimage =      15
     Waiting for input...
     Reading input from standard input
Warning: card &CELL ignored
Warning: card / ignored

     Current dimensions of program PWSCF are:
     Max number of different atomic species (ntypx) = 10
     Max number of k-points (npk) =  40000
     Max angular momentum in pseudopotentials (lmaxx) =  3

     IMPORTANT: XC functional enforced from input :
     Exchange-correlation= PBE
                           (   1   4   3   4   0   0   0)
     Any further DFT definition will be discarded
     Please, verify this is what you really want


     -------------------------------------------------
     Parameters for Dispersion (Grimme-D2) Correction:
     -------------------------------------------------
       atom      VdW radius       C_6     

        H          1.892          4.857

     Subspace diagonalization in iterative solution of the eigenvalue problem:
     one sub-group per band group will be used
     scalapack distributed-memory algorithm (size of sub-group:  3*  3 procs)


     Parallelization info
     --------------------
     sticks:   dense  smooth     PW     G-vecs:    dense   smooth      PW
     Min        3636    1818    468               639190   225950   29545
     Max        3637    1819    470               639197   225953   29547
     Sum       54553   27281   7033              9587919  3389267  443191



     bravais-lattice index     =            0
     lattice parameter (alat)  =      37.7945  a.u.
     unit-cell volume          =   53986.6760 (a.u.)^3
     number of atoms/cell      =            1
     number of atomic types    =            1
     number of electrons       =         1.00
     number of Kohn-Sham states=            5
     kinetic-energy cutoff     =      60.0000  Ry
     charge density cutoff     =     480.0000  Ry
     scf convergence threshold =      1.0E-08
     mixing beta               =       0.7000
     number of iterations used =           10  plain     mixing
     energy convergence thresh.=      7.3E-07
     force convergence thresh. =      3.9E-04
     Exchange-correlation= PBE
                           (   1   4   3   4   0   0   0)
     nstep                     =           50


     Effective Screening Medium Method
     =================================
     Boundary Conditions: Metal-Slab-Metal
     field strength                   =    -0.05 Ry/a.u.
     grid points for fit at edges     =        4 


     celldm(1)=  37.794522  celldm(2)=   0.000000  celldm(3)=   0.000000
     celldm(4)=   0.000000  celldm(5)=   0.000000  celldm(6)=   0.000000

     crystal axes: (cart. coord. in units of alat)
               a(1) = (   1.000000   0.000000   0.000000 )  
               a(2) = (   0.000000   1.000000   0.000000 )  
               a(3) = (   0.000000   0.000000   1.000000 )  

     reciprocal axes: (cart. coord. in units 2 pi/alat)
               b(1) = (  1.000000  0.000000  0.000000 )  
               b(2) = (  0.000000  1.000000  0.000000 )  
               b(3) = (  0.000000  0.000000  1.000000 )  


     PseudoPot. # 1 for H  read from file:
     ../../SSSP/H.pbe-rrkjus_psl.1.0.0.UPF
     MD5 check sum: f52b6d4d1c606e5624b1dc7b2218f220
     Pseudo is Ultrasoft, Zval =  1.0
     Generated using "atomic" code by A. Dal Corso  v.5.1
     Using radial grid of  929 points,  2 beta functions with: 
                l(1) =   0
                l(2) =   0
     Q(r) pseudized with 0 coefficients 


     atomic species   valence    mass     pseudopotential
        H              1.00     1.00800     H ( 1.00)

     Starting magnetic structure 
     atomic species   magnetization
        H            0.100

     No symmetry found



   Cartesian axes

     site n.     atom                  positions (alat units)
         1           H   tau(   1) = (   0.5000000   0.5000000   0.0000000  )

     number of k points=    10  Methfessel-Paxton smearing, width (Ry)=  0.0100
                       cart. coord. in units 2pi/alat
        k(    1) = (   0.0000000   0.0000000   0.0000000), wk =   0.0625000
        k(    2) = (   0.0000000   0.2500000   0.0000000), wk =   0.1250000
        k(    3) = (   0.0000000  -0.5000000   0.0000000), wk =   0.0625000
        k(    4) = (   0.2500000   0.0000000   0.0000000), wk =   0.1250000
        k(    5) = (   0.2500000   0.2500000   0.0000000), wk =   0.1250000
        k(    6) = (   0.2500000  -0.5000000   0.0000000), wk =   0.1250000
        k(    7) = (   0.2500000  -0.2500000   0.0000000), wk =   0.1250000
        k(    8) = (  -0.5000000   0.0000000   0.0000000), wk =   0.0625000
        k(    9) = (  -0.5000000   0.2500000   0.0000000), wk =   0.1250000
        k(   10) = (  -0.5000000  -0.5000000   0.0000000), wk =   0.0625000

     Dense  grid:  9587919 G-vectors     FFT dimensions: ( 270, 270, 270)

     Smooth grid:  3389267 G-vectors     FFT dimensions: ( 192, 192, 192)

     Estimated max dynamical RAM per process >     315.63 MB

     Estimated total dynamical RAM >      36.99 GB
     Generating pointlists ...
     new r_m :   0.4125 (alat units) 15.5902 (a.u.) for type    1

     Initial potential from superposition of free atoms

     starting charge    0.99999, renormalised to    1.00000

     negative rho (up, down):  1.968E-05 1.610E-05
     Starting wfcs are    1 randomized atomic wfcs +    4 random wfcs

     total cpu time spent up to now is       20.3 secs

     Self-consistent Calculation

     iteration #  1     ecut=    60.00 Ry     beta= 0.70
     Davidson diagonalization with overlap
     c_bands:  3 eigenvalues not converged
     c_bands:  4 eigenvalues not converged
     c_bands:  2 eigenvalues not converged
     ethr =  1.00E-04,  avg # of iterations = 20.0

     negative rho (up, down):  2.508E-06 1.989E-06

     total cpu time spent up to now is       53.1 secs

     total energy              =      -0.87512718 Ry
     estimated scf accuracy    <       0.54785484 Ry

     total magnetization       =    -0.01 Bohr mag/cell
     absolute magnetization    =     0.02 Bohr mag/cell

     iteration #  2     ecut=    60.00 Ry     beta= 0.70
     Davidson diagonalization with overlap
     ethr =  1.00E-02,  avg # of iterations =  1.0

     negative rho (up, down):  1.490E-05 1.202E-05

     total cpu time spent up to now is       67.2 secs

     total energy              =      -0.86037927 Ry
     estimated scf accuracy    <       0.05125081 Ry

     total magnetization       =    -0.06 Bohr mag/cell
     absolute magnetization    =     0.06 Bohr mag/cell

     iteration #  3     ecut=    60.00 Ry     beta= 0.70
     Davidson diagonalization with overlap
     ethr =  5.13E-03,  avg # of iterations =  1.0

     negative rho (up, down):  1.724E-02 7.091E-03

     total cpu time spent up to now is       80.7 secs

     total energy              =      -0.86480416 Ry
     estimated scf accuracy    <       0.00412973 Ry

     total magnetization       =    -0.24 Bohr mag/cell
     absolute magnetization    =     0.24 Bohr mag/cell

     iteration #  4     ecut=    60.00 Ry     beta= 0.70
     Davidson diagonalization with overlap
     ethr =  4.13E-04,  avg # of iterations =  6.1

     negative rho (up, down):  2.891E-06 3.028E-06

     total cpu time spent up to now is       97.1 secs

     total energy              =      -0.92253075 Ry
     estimated scf accuracy    <       0.01001429 Ry

     total magnetization       =    -0.80 Bohr mag/cell
     absolute magnetization    =     1.05 Bohr mag/cell

     iteration #  5     ecut=    60.00 Ry     beta= 0.70
     Davidson diagonalization with overlap
     ethr =  4.13E-04,  avg # of iterations =  2.4

     negative rho (up, down):  4.280E-05 2.041E-05

     total cpu time spent up to now is      112.4 secs

     total energy              =      -0.99639868 Ry
     estimated scf accuracy    <       0.04725659 Ry

     total magnetization       =    -0.50 Bohr mag/cell
     absolute magnetization    =     0.75 Bohr mag/cell

     iteration #  6     ecut=    60.00 Ry     beta= 0.70
     Davidson diagonalization with overlap
     ethr =  4.13E-04,  avg # of iterations =  1.0

     negative rho (up, down):  1.344E-01 8.355E-02

     total cpu time spent up to now is      127.0 secs

     total energy              =      -1.21482254 Ry
     estimated scf accuracy    <       0.03422855 Ry

     total magnetization       =    -0.50 Bohr mag/cell
     absolute magnetization    =     0.75 Bohr mag/cell

     iteration #  7     ecut=    60.00 Ry     beta= 0.70
     Davidson diagonalization with overlap
     ethr =  4.13E-04,  avg # of iterations =  4.3

     negative rho (up, down):  1.761E-01 7.890E-02

     total cpu time spent up to now is      143.4 secs

     total energy              =      -1.85709759 Ry
     estimated scf accuracy    <       1.10122350 Ry

     total magnetization       =    -1.00 Bohr mag/cell
     absolute magnetization    =     1.00 Bohr mag/cell

     iteration #  8     ecut=    60.00 Ry     beta= 0.70
     Davidson diagonalization with overlap
     ethr =  4.13E-04,  avg # of iterations =  1.2

     negative rho (up, down):  2.066E-03 2.579E-02

     total cpu time spent up to now is      158.5 secs

     total energy              =      -1.16754178 Ry
     estimated scf accuracy    <       1.17181247 Ry

     total magnetization       =    -1.00 Bohr mag/cell
     absolute magnetization    =     1.00 Bohr mag/cell

     iteration #  9     ecut=    60.00 Ry     beta= 0.70
     Davidson diagonalization with overlap
     ethr =  4.13E-04,  avg # of iterations =  2.0

     negative rho (up, down):  1.246E-01 8.117E-02

     total cpu time spent up to now is      173.9 secs

     total energy              =      -1.70340728 Ry
     estimated scf accuracy    <       0.70352952 Ry

     total magnetization       =     0.25 Bohr mag/cell
     absolute magnetization    =     0.25 Bohr mag/cell

     iteration # 10     ecut=    60.00 Ry     beta= 0.70
     Davidson diagonalization with overlap
     ethr =  4.13E-04,  avg # of iterations =  3.0

     negative rho (up, down):  3.717E-05 5.964E-04

     total cpu time spent up to now is      189.5 secs

     total energy              =      -1.10962357 Ry
     estimated scf accuracy    <       1.08279069 Ry

     total magnetization       =    -1.00 Bohr mag/cell
     absolute magnetization    =     1.00 Bohr mag/cell

     iteration # 11     ecut=    60.00 Ry     beta= 0.70
     Davidson diagonalization with overlap
     ethr =  4.13E-04,  avg # of iterations =  2.2

     negative rho (up, down):  4.196E-04 1.547E-04

     total cpu time spent up to now is      205.1 secs

     total energy              =      -1.24339630 Ry
     estimated scf accuracy    <       0.59254854 Ry

     total magnetization       =     1.00 Bohr mag/cell
     absolute magnetization    =     1.00 Bohr mag/cell

     iteration # 12     ecut=    60.00 Ry     beta= 0.70
     Davidson diagonalization with overlap
     ethr =  4.13E-04,  avg # of iterations =  1.0

     negative rho (up, down):  5.540E-04 3.904E-05

     total cpu time spent up to now is      220.2 secs

     total energy              =      -1.24535966 Ry
     estimated scf accuracy    <       0.59469506 Ry

     total magnetization       =     1.00 Bohr mag/cell
     absolute magnetization    =     1.00 Bohr mag/cell

     iteration # 13     ecut=    60.00 Ry     beta= 0.70
     Davidson diagonalization with overlap
     ethr =  4.13E-04,  avg # of iterations =  1.0

     negative rho (up, down):  5.891E-04 6.522E-06

     total cpu time spent up to now is      234.9 secs

     total energy              =      -1.24491558 Ry
     estimated scf accuracy    <       0.61062123 Ry

     total magnetization       =     1.00 Bohr mag/cell
     absolute magnetization    =     1.00 Bohr mag/cell

     iteration # 14     ecut=    60.00 Ry     beta= 0.70
     Davidson diagonalization with overlap
     ethr =  4.13E-04,  avg # of iterations =  1.0

     negative rho (up, down):  1.333E-02 1.861E-06

     total cpu time spent up to now is      249.3 secs

     total energy              =      -1.24193930 Ry
     estimated scf accuracy    <       0.61192231 Ry

     total magnetization       =     1.00 Bohr mag/cell
     absolute magnetization    =     1.00 Bohr mag/cell

     iteration # 15     ecut=    60.00 Ry     beta= 0.70
     Davidson diagonalization with overlap
     ethr =  4.13E-04,  avg # of iterations =  1.0

     negative rho (up, down):  2.132E-02 2.663E-02

     total cpu time spent up to now is      263.8 secs

     total energy              =      -1.20640441 Ry
     estimated scf accuracy    <       0.57741644 Ry

     total magnetization       =     1.00 Bohr mag/cell
     absolute magnetization    =     1.00 Bohr mag/cell

     iteration # 16     ecut=    60.00 Ry     beta= 0.70
     Davidson diagonalization with overlap
     ethr =  4.13E-04,  avg # of iterations =  1.0

     negative rho (up, down):  1.109E-02 5.660E-02

     total cpu time spent up to now is      278.8 secs

     total energy              =      -1.11026389 Ry
     estimated scf accuracy    <       0.48892055 Ry

     total magnetization       =     1.00 Bohr mag/cell
     absolute magnetization    =     1.00 Bohr mag/cell

     iteration # 17     ecut=    60.00 Ry     beta= 0.70
     Davidson diagonalization with overlap
     ethr =  4.13E-04,  avg # of iterations =  1.5

     negative rho (up, down):  6.068E-03 2.635E-02

     total cpu time spent up to now is      293.8 secs

     total energy              =      -0.92939548 Ry
     estimated scf accuracy    <       0.37197923 Ry

     total magnetization       =     0.91 Bohr mag/cell
     absolute magnetization    =     0.91 Bohr mag/cell

     iteration # 18     ecut=    60.00 Ry     beta= 0.70
     Davidson diagonalization with overlap
     ethr =  4.13E-04,  avg # of iterations =  9.1

     negative rho (up, down):  2.373E-03 2.869E-02

     total cpu time spent up to now is      312.1 secs

     total energy              =      -1.16028795 Ry
     estimated scf accuracy    <       0.69264240 Ry

     total magnetization       =    -0.02 Bohr mag/cell
     absolute magnetization    =     0.22 Bohr mag/cell

     iteration # 19     ecut=    60.00 Ry     beta= 0.70
     Davidson diagonalization with overlap
     ethr =  4.13E-04,  avg # of iterations =  1.9

     negative rho (up, down):  1.872E-03 1.895E-04

     total cpu time spent up to now is      327.3 secs

     total energy              =      -1.12441775 Ry
     estimated scf accuracy    <       0.46672412 Ry

     total magnetization       =    -0.27 Bohr mag/cell
     absolute magnetization    =     0.27 Bohr mag/cell

     iteration # 20     ecut=    60.00 Ry     beta= 0.70
     Davidson diagonalization with overlap
     ethr =  4.13E-04,  avg # of iterations =  1.9

     negative rho (up, down):  1.908E-03 1.707E-04

     total cpu time spent up to now is      342.5 secs

     total energy              =      -1.12119561 Ry
     estimated scf accuracy    <       0.42747077 Ry

     total magnetization       =    -0.05 Bohr mag/cell
     absolute magnetization    =     0.17 Bohr mag/cell

     iteration # 21     ecut=    60.00 Ry     beta= 0.70
     Davidson diagonalization with overlap
     ethr =  4.13E-04,  avg # of iterations =  1.0

     negative rho (up, down):  1.276E-01 3.197E-01

     total cpu time spent up to now is      356.7 secs

     total energy              =      -1.70833978 Ry
     estimated scf accuracy    <       0.41909552 Ry

     total magnetization       =    -0.13 Bohr mag/cell
     absolute magnetization    =     0.15 Bohr mag/cell

     iteration # 22     ecut=    60.00 Ry     beta= 0.70
     Davidson diagonalization with overlap
     ethr =  4.13E-04,  avg # of iterations =  2.4

     negative rho (up, down):  7.624E-02 7.639E-01

     total cpu time spent up to now is      371.5 secs

     total energy              =      -2.38727734 Ry
     estimated scf accuracy    <       1.18385884 Ry

     total magnetization       =     0.41 Bohr mag/cell
     absolute magnetization    =     0.41 Bohr mag/cell

     iteration # 23     ecut=    60.00 Ry     beta= 0.70
     Davidson diagonalization with overlap
     ethr =  4.13E-04,  avg # of iterations =  1.1

     negative rho (up, down):  2.250E-02 3.422E-01

     total cpu time spent up to now is      386.0 secs

     total energy              =      -0.91651618 Ry
     estimated scf accuracy    <       1.92597279 Ry

     total magnetization       =     1.07 Bohr mag/cell
     absolute magnetization    =     1.07 Bohr mag/cell

     iteration # 24     ecut=    60.00 Ry     beta= 0.70
     Davidson diagonalization with overlap
     ethr =  4.13E-04,  avg # of iterations =  4.4

     negative rho (up, down):  3.213E-02 1.886E-01

     total cpu time spent up to now is      402.0 secs

     total energy              =      -0.97171663 Ry
     estimated scf accuracy    <       0.12722525 Ry

     total magnetization       =     1.00 Bohr mag/cell
     absolute magnetization    =     1.00 Bohr mag/cell

     iteration # 25     ecut=    60.00 Ry     beta= 0.70
     Davidson diagonalization with overlap
     ethr =  4.13E-04,  avg # of iterations =  2.0

     negative rho (up, down):  3.094E-02 2.035E-01

     total cpu time spent up to now is      416.8 secs

     total energy              =      -0.96141510 Ry
     estimated scf accuracy    <       0.18354146 Ry

     total magnetization       =     1.00 Bohr mag/cell
     absolute magnetization    =     1.00 Bohr mag/cell

     iteration # 26     ecut=    60.00 Ry     beta= 0.70
     Davidson diagonalization with overlap
     ethr =  4.13E-04,  avg # of iterations =  1.0

     negative rho (up, down):  2.909E-02 1.787E-01

     total cpu time spent up to now is      431.1 secs

     total energy              =      -0.94051259 Ry
     estimated scf accuracy    <       0.16792307 Ry

     total magnetization       =     1.00 Bohr mag/cell
     absolute magnetization    =     1.00 Bohr mag/cell

     iteration # 27     ecut=    60.00 Ry     beta= 0.70
     Davidson diagonalization with overlap
     ethr =  4.13E-04,  avg # of iterations =  3.1

     negative rho (up, down):  2.355E-02 1.460E-01

     total cpu time spent up to now is      447.0 secs

     total energy              =      -0.96986726 Ry
     estimated scf accuracy    <       0.03472398 Ry

     total magnetization       =     1.00 Bohr mag/cell
     absolute magnetization    =     1.00 Bohr mag/cell

     iteration # 28     ecut=    60.00 Ry     beta= 0.70
     Davidson diagonalization with overlap
     ethr =  4.13E-04,  avg # of iterations =  1.1

     negative rho (up, down):  5.392E-03 7.824E-02

     total cpu time spent up to now is      461.4 secs

     total energy              =      -0.96292354 Ry
     estimated scf accuracy    <       0.01889815 Ry

     total magnetization       =     1.00 Bohr mag/cell
     absolute magnetization    =     1.00 Bohr mag/cell

     iteration # 29     ecut=    60.00 Ry     beta= 0.70
     Davidson diagonalization with overlap
     ethr =  4.13E-04,  avg # of iterations =  1.1

     negative rho (up, down):  1.789E-03 6.980E-02

     total cpu time spent up to now is      475.8 secs

     total energy              =      -0.96778179 Ry
     estimated scf accuracy    <       0.00568944 Ry

     total magnetization       =     1.00 Bohr mag/cell
     absolute magnetization    =     1.00 Bohr mag/cell

     iteration # 30     ecut=    60.00 Ry     beta= 0.70
     Davidson diagonalization with overlap
     ethr =  4.13E-04,  avg # of iterations =  1.0

     negative rho (up, down):  4.031E-05 3.615E-02

     total cpu time spent up to now is      490.0 secs

     total energy              =      -0.96928933 Ry
     estimated scf accuracy    <       0.00780083 Ry

     total magnetization       =     1.00 Bohr mag/cell
     absolute magnetization    =     1.00 Bohr mag/cell

     iteration # 31     ecut=    60.00 Ry     beta= 0.70
     Davidson diagonalization with overlap
     ethr =  4.13E-04,  avg # of iterations =  1.2

     negative rho (up, down):  8.997E-04 3.954E-02

     total cpu time spent up to now is      504.5 secs

     total energy              =      -0.98931989 Ry
     estimated scf accuracy    <       0.00185836 Ry

     total magnetization       =     1.00 Bohr mag/cell
     absolute magnetization    =     1.00 Bohr mag/cell

     iteration # 32     ecut=    60.00 Ry     beta= 0.70
     Davidson diagonalization with overlap
     ethr =  1.86E-04,  avg # of iterations =  4.3

     negative rho (up, down):  2.361E-04 2.648E-02

     total cpu time spent up to now is      520.5 secs

     total energy              =      -1.13406940 Ry
     estimated scf accuracy    <       0.18928737 Ry

     total magnetization       =     1.00 Bohr mag/cell
     absolute magnetization    =     1.00 Bohr mag/cell

     iteration # 33     ecut=    60.00 Ry     beta= 0.70
     Davidson diagonalization with overlap
     ethr =  1.86E-04,  avg # of iterations =  2.2

     negative rho (up, down):  1.903E-03 2.484E-02

     total cpu time spent up to now is      535.4 secs

     total energy              =      -1.17370782 Ry
     estimated scf accuracy    <       0.29921506 Ry

     total magnetization       =     1.00 Bohr mag/cell
     absolute magnetization    =     1.00 Bohr mag/cell

     iteration # 34     ecut=    60.00 Ry     beta= 0.70
     Davidson diagonalization with overlap
     ethr =  1.86E-04,  avg # of iterations =  1.1

     negative rho (up, down):  3.680E-04 2.271E-02

     total cpu time spent up to now is      549.8 secs

     total energy              =      -1.15561020 Ry
     estimated scf accuracy    <       0.32773410 Ry

     total magnetization       =     1.00 Bohr mag/cell
     absolute magnetization    =     1.00 Bohr mag/cell

     iteration # 35     ecut=    60.00 Ry     beta= 0.70
     Davidson diagonalization with overlap
     ethr =  1.86E-04,  avg # of iterations =  1.0

     negative rho (up, down):  3.047E-03 1.423E-02

     total cpu time spent up to now is      564.1 secs

     total energy              =      -1.15854747 Ry
     estimated scf accuracy    <       0.27749099 Ry

     total magnetization       =     1.00 Bohr mag/cell
     absolute magnetization    =     1.00 Bohr mag/cell

     iteration # 36     ecut=    60.00 Ry     beta= 0.70
     Davidson diagonalization with overlap
     ethr =  1.86E-04,  avg # of iterations =  1.0

     negative rho (up, down):  9.060E-04 2.341E-02

     total cpu time spent up to now is      578.4 secs

     total energy              =      -1.20061982 Ry
     estimated scf accuracy    <       0.28294564 Ry

     total magnetization       =     1.00 Bohr mag/cell
     absolute magnetization    =     1.00 Bohr mag/cell

     iteration # 37     ecut=    60.00 Ry     beta= 0.70
     Davidson diagonalization with overlap
     ethr =  1.86E-04,  avg # of iterations =  1.5

     negative rho (up, down):  1.350E-03 1.409E-02

     total cpu time spent up to now is      592.7 secs

     total energy              =      -1.18196335 Ry
     estimated scf accuracy    <       0.31835239 Ry

     total magnetization       =     1.00 Bohr mag/cell
     absolute magnetization    =     1.00 Bohr mag/cell

     iteration # 38     ecut=    60.00 Ry     beta= 0.70
     Davidson diagonalization with overlap
     ethr =  1.86E-04,  avg # of iterations =  1.5

     negative rho (up, down):  1.304E-03 1.325E-02

     total cpu time spent up to now is      607.0 secs

     total energy              =      -1.20461108 Ry
     estimated scf accuracy    <       0.31957935 Ry

     total magnetization       =     1.00 Bohr mag/cell
     absolute magnetization    =     1.00 Bohr mag/cell

     iteration # 39     ecut=    60.00 Ry     beta= 0.70
     Davidson diagonalization with overlap
     ethr =  1.86E-04,  avg # of iterations =  1.5

     negative rho (up, down):  1.847E-03 1.197E-02

     total cpu time spent up to now is      621.3 secs

     total energy              =      -1.20668250 Ry
     estimated scf accuracy    <       0.32768511 Ry

     total magnetization       =     1.00 Bohr mag/cell
     absolute magnetization    =     1.00 Bohr mag/cell

     iteration # 40     ecut=    60.00 Ry     beta= 0.70
     Davidson diagonalization with overlap
     ethr =  1.86E-04,  avg # of iterations =  1.0

     negative rho (up, down):  1.667E-03 1.831E-03

     total cpu time spent up to now is      635.6 secs

     total energy              =      -1.17535482 Ry
     estimated scf accuracy    <       0.32948839 Ry

     total magnetization       =     1.00 Bohr mag/cell
     absolute magnetization    =     1.00 Bohr mag/cell

     iteration # 41     ecut=    60.00 Ry     beta= 0.70
     Davidson diagonalization with overlap
     ethr =  1.86E-04,  avg # of iterations =  2.4

     negative rho (up, down):  1.249E-03 1.440E-03

     total cpu time spent up to now is      650.4 secs

     total energy              =      -1.16337632 Ry
     estimated scf accuracy    <       0.28717862 Ry

     total magnetization       =     1.00 Bohr mag/cell
     absolute magnetization    =     1.00 Bohr mag/cell

     iteration # 42     ecut=    60.00 Ry     beta= 0.70
     Davidson diagonalization with overlap
     ethr =  1.86E-04,  avg # of iterations =  2.0

     negative rho (up, down):  8.206E-04 2.276E-02

     total cpu time spent up to now is      665.3 secs

     total energy              =      -1.10058549 Ry
     estimated scf accuracy    <       0.25829820 Ry

     total magnetization       =     1.00 Bohr mag/cell
     absolute magnetization    =     1.00 Bohr mag/cell

     iteration # 43     ecut=    60.00 Ry     beta= 0.70
     Davidson diagonalization with overlap
     ethr =  1.86E-04,  avg # of iterations =  2.4

     negative rho (up, down):  1.061E-02 1.617E-02

     total cpu time spent up to now is      680.1 secs

     total energy              =      -1.02505410 Ry
     estimated scf accuracy    <       0.13270038 Ry

     total magnetization       =     1.00 Bohr mag/cell
     absolute magnetization    =     1.00 Bohr mag/cell

     iteration # 44     ecut=    60.00 Ry     beta= 0.70
     Davidson diagonalization with overlap
     ethr =  1.86E-04,  avg # of iterations =  7.8

     negative rho (up, down):  2.715E-04 3.953E-03

     total cpu time spent up to now is      699.4 secs

     total energy              =      -1.14053740 Ry
     estimated scf accuracy    <       0.64905613 Ry

     total magnetization       =     0.37 Bohr mag/cell
     absolute magnetization    =     0.44 Bohr mag/cell

     iteration # 45     ecut=    60.00 Ry     beta= 0.70
     Davidson diagonalization with overlap
     ethr =  1.86E-04,  avg # of iterations =  4.0

     negative rho (up, down):  3.543E-04 3.331E-03

     total cpu time spent up to now is      714.6 secs

     total energy              =      -1.10373616 Ry
     estimated scf accuracy    <       0.49580777 Ry

     total magnetization       =     0.93 Bohr mag/cell
     absolute magnetization    =     0.94 Bohr mag/cell

     iteration # 46     ecut=    60.00 Ry     beta= 0.70
     Davidson diagonalization with overlap
     ethr =  1.86E-04,  avg # of iterations =  4.0

     negative rho (up, down):  1.195E-03 5.022E-03

     total cpu time spent up to now is      730.5 secs

     total energy              =      -1.11181818 Ry
     estimated scf accuracy    <       0.41067368 Ry

     total magnetization       =     1.00 Bohr mag/cell
     absolute magnetization    =     1.00 Bohr mag/cell

     iteration # 47     ecut=    60.00 Ry     beta= 0.70
     Davidson diagonalization with overlap
     ethr =  1.86E-04,  avg # of iterations =  1.4

     negative rho (up, down):  5.071E-04 4.703E-03

     total cpu time spent up to now is      744.9 secs

     total energy              =      -1.11087087 Ry
     estimated scf accuracy    <       0.41446445 Ry

     total magnetization       =     1.00 Bohr mag/cell
     absolute magnetization    =     1.00 Bohr mag/cell

     iteration # 48     ecut=    60.00 Ry     beta= 0.70
     Davidson diagonalization with overlap
     ethr =  1.86E-04,  avg # of iterations =  1.0

     negative rho (up, down):  4.693E-04 5.958E-03

     total cpu time spent up to now is      759.1 secs

     total energy              =      -1.11440461 Ry
     estimated scf accuracy    <       0.41470089 Ry

     total magnetization       =     1.00 Bohr mag/cell
     absolute magnetization    =     1.00 Bohr mag/cell

     iteration # 49     ecut=    60.00 Ry     beta= 0.70
     Davidson diagonalization with overlap
     ethr =  1.86E-04,  avg # of iterations =  1.0

     negative rho (up, down):  3.712E-04 4.127E-03

     total cpu time spent up to now is      773.3 secs

     total energy              =      -1.09763632 Ry
     estimated scf accuracy    <       0.41855205 Ry

     total magnetization       =     1.00 Bohr mag/cell
     absolute magnetization    =     1.00 Bohr mag/cell

     iteration # 50     ecut=    60.00 Ry     beta= 0.70
     Davidson diagonalization with overlap
     ethr =  1.86E-04,  avg # of iterations =  1.0

     negative rho (up, down):  1.347E-03 2.179E-03

     total cpu time spent up to now is      787.7 secs

     total energy              =      -1.07014728 Ry
     estimated scf accuracy    <       0.39410712 Ry

     total magnetization       =     1.00 Bohr mag/cell
     absolute magnetization    =     1.00 Bohr mag/cell

     iteration # 51     ecut=    60.00 Ry     beta= 0.70
     Davidson diagonalization with overlap
     ethr =  1.86E-04,  avg # of iterations =  2.1

     negative rho (up, down):  3.097E-04 4.070E-04

     total cpu time spent up to now is      802.4 secs

     total energy              =      -1.00738015 Ry
     estimated scf accuracy    <       0.35947746 Ry

     total magnetization       =     1.00 Bohr mag/cell
     absolute magnetization    =     1.00 Bohr mag/cell

     iteration # 52     ecut=    60.00 Ry     beta= 0.70
     Davidson diagonalization with overlap
     ethr =  1.86E-04,  avg # of iterations =  1.5

     negative rho (up, down):  2.773E-04 2.004E-04

     total cpu time spent up to now is      817.1 secs

     total energy              =      -0.98012870 Ry
     estimated scf accuracy    <       0.25636371 Ry

     total magnetization       =     1.00 Bohr mag/cell
     absolute magnetization    =     1.00 Bohr mag/cell

     iteration # 53     ecut=    60.00 Ry     beta= 0.70
     Davidson diagonalization with overlap
     ethr =  1.86E-04,  avg # of iterations =  1.0

     negative rho (up, down):  3.119E-04 1.534E-03

     total cpu time spent up to now is      831.5 secs

     total energy              =      -1.01184791 Ry
     estimated scf accuracy    <       0.21068587 Ry

     total magnetization       =     1.00 Bohr mag/cell
     absolute magnetization    =     1.00 Bohr mag/cell

     iteration # 54     ecut=    60.00 Ry     beta= 0.70
     Davidson diagonalization with overlap
     ethr =  1.86E-04,  avg # of iterations =  1.0

     negative rho (up, down):  3.891E-03 2.231E-05

     total cpu time spent up to now is      846.2 secs

     total energy              =      -0.88080766 Ry
     estimated scf accuracy    <       0.26016577 Ry

     total magnetization       =     1.00 Bohr mag/cell
     absolute magnetization    =     1.00 Bohr mag/cell

     iteration # 55     ecut=    60.00 Ry     beta= 0.70
     Davidson diagonalization with overlap
     ethr =  1.86E-04,  avg # of iterations =  2.0

     negative rho (up, down):  1.749E-03 1.434E-05

     total cpu time spent up to now is      861.0 secs

     total energy              =      -0.88402831 Ry
     estimated scf accuracy    <       0.00133293 Ry

     total magnetization       =     1.00 Bohr mag/cell
     absolute magnetization    =     1.00 Bohr mag/cell

     iteration # 56     ecut=    60.00 Ry     beta= 0.70
     Davidson diagonalization with overlap
     ethr =  1.33E-04,  avg # of iterations =  2.5

     negative rho (up, down):  1.102E-03 3.055E-04

     total cpu time spent up to now is      876.3 secs

     total energy              =      -0.92920555 Ry
     estimated scf accuracy    <       0.01008104 Ry

     total magnetization       =     1.00 Bohr mag/cell
     absolute magnetization    =     1.00 Bohr mag/cell

     iteration # 57     ecut=    60.00 Ry     beta= 0.70
     Davidson diagonalization with overlap
     ethr =  1.33E-04,  avg # of iterations =  4.6

     negative rho (up, down):  9.926E-04 8.767E-04

     total cpu time spent up to now is      892.1 secs

     total energy              =      -1.20244516 Ry
     estimated scf accuracy    <       0.45902597 Ry

     total magnetization       =     1.00 Bohr mag/cell
     absolute magnetization    =     1.00 Bohr mag/cell

     iteration # 58     ecut=    60.00 Ry     beta= 0.70
     Davidson diagonalization with overlap
     ethr =  1.33E-04,  avg # of iterations =  1.0

     negative rho (up, down):  2.748E-04 1.321E-03

     total cpu time spent up to now is      906.5 secs

     total energy              =      -1.12066919 Ry
     estimated scf accuracy    <       0.35312135 Ry

     total magnetization       =     1.00 Bohr mag/cell
     absolute magnetization    =     1.00 Bohr mag/cell

     iteration # 59     ecut=    60.00 Ry     beta= 0.70
     Davidson diagonalization with overlap
     ethr =  1.33E-04,  avg # of iterations =  2.5

     negative rho (up, down):  2.835E-04 1.317E-03

     total cpu time spent up to now is      921.8 secs

     total energy              =      -1.12846363 Ry
     estimated scf accuracy    <       0.16465497 Ry

     total magnetization       =     1.00 Bohr mag/cell
     absolute magnetization    =     1.00 Bohr mag/cell

     iteration # 60     ecut=    60.00 Ry     beta= 0.70
     Davidson diagonalization with overlap
     ethr =  1.33E-04,  avg # of iterations =  1.0

     negative rho (up, down):  4.274E-04 9.287E-04

     total cpu time spent up to now is      935.9 secs

     total energy              =      -1.09191862 Ry
     estimated scf accuracy    <       0.17918213 Ry

     total magnetization       =     1.00 Bohr mag/cell
     absolute magnetization    =     1.00 Bohr mag/cell

     iteration # 61     ecut=    60.00 Ry     beta= 0.70
     Davidson diagonalization with overlap
     ethr =  1.33E-04,  avg # of iterations =  1.7

     negative rho (up, down):  4.182E-04 1.863E-04

     total cpu time spent up to now is      950.3 secs

     total energy              =      -1.05268459 Ry
     estimated scf accuracy    <       0.11238986 Ry

     total magnetization       =     1.00 Bohr mag/cell
     absolute magnetization    =     1.00 Bohr mag/cell

     iteration # 62     ecut=    60.00 Ry     beta= 0.70
     Davidson diagonalization with overlap
     ethr =  1.33E-04,  avg # of iterations =  1.9

     negative rho (up, down):  2.870E-04 2.075E-04

     total cpu time spent up to now is      964.9 secs

     total energy              =      -1.05754723 Ry
     estimated scf accuracy    <       0.04014613 Ry

     total magnetization       =     1.00 Bohr mag/cell
     absolute magnetization    =     1.00 Bohr mag/cell

     iteration # 63     ecut=    60.00 Ry     beta= 0.70
     Davidson diagonalization with overlap
     ethr =  1.33E-04,  avg # of iterations =  1.0

     negative rho (up, down):  1.902E-04 2.949E-04

     total cpu time spent up to now is      979.2 secs

     total energy              =      -1.07349079 Ry
     estimated scf accuracy    <       0.03769682 Ry

     total magnetization       =     1.00 Bohr mag/cell
     absolute magnetization    =     1.00 Bohr mag/cell

     iteration # 64     ecut=    60.00 Ry     beta= 0.70
     Davidson diagonalization with overlap
     ethr =  1.33E-04,  avg # of iterations =  1.4

     negative rho (up, down):  1.220E-04 3.485E-04

     total cpu time spent up to now is      993.6 secs

     total energy              =      -1.07750445 Ry
     estimated scf accuracy    <       0.06059338 Ry

     total magnetization       =     1.00 Bohr mag/cell
     absolute magnetization    =     1.00 Bohr mag/cell

     iteration # 65     ecut=    60.00 Ry     beta= 0.70
     Davidson diagonalization with overlap
     ethr =  1.33E-04,  avg # of iterations =  4.0

     negative rho (up, down):  1.212E-04 1.707E-04

     total cpu time spent up to now is     1009.8 secs

     total energy              =      -1.06644552 Ry
     estimated scf accuracy    <       0.04626701 Ry

     total magnetization       =     1.00 Bohr mag/cell
     absolute magnetization    =     1.00 Bohr mag/cell

     iteration # 66     ecut=    60.00 Ry     beta= 0.70
     Davidson diagonalization with overlap
     ethr =  1.33E-04,  avg # of iterations =  3.0

     negative rho (up, down):  1.133E-04 2.006E-05

     total cpu time spent up to now is     1025.2 secs

     total energy              =      -1.04863684 Ry
     estimated scf accuracy    <       0.03888733 Ry

     total magnetization       =     1.00 Bohr mag/cell
     absolute magnetization    =     1.00 Bohr mag/cell

     iteration # 67     ecut=    60.00 Ry     beta= 0.70
     Davidson diagonalization with overlap
     ethr =  1.33E-04,  avg # of iterations =  2.9

     negative rho (up, down):  1.329E-04 9.413E-05

     total cpu time spent up to now is     1040.4 secs

     total energy              =      -1.07237432 Ry
     estimated scf accuracy    <       0.16560991 Ry

     total magnetization       =     1.00 Bohr mag/cell
     absolute magnetization    =     1.00 Bohr mag/cell

     iteration # 68     ecut=    60.00 Ry     beta= 0.70
     Davidson diagonalization with overlap
     ethr =  1.33E-04,  avg # of iterations =  3.8

     negative rho (up, down):  2.144E-04 6.042E-05

     total cpu time spent up to now is     1055.9 secs

     total energy              =      -1.06994609 Ry
     estimated scf accuracy    <       0.18763823 Ry

     total magnetization       =     1.00 Bohr mag/cell
     absolute magnetization    =     1.00 Bohr mag/cell

     iteration # 69     ecut=    60.00 Ry     beta= 0.70
     Davidson diagonalization with overlap
     ethr =  1.33E-04,  avg # of iterations =  5.5

     negative rho (up, down):  2.067E-04 7.335E-05

     total cpu time spent up to now is     1071.9 secs

     total energy              =      -1.07522431 Ry
     estimated scf accuracy    <       0.12546803 Ry

     total magnetization       =     1.00 Bohr mag/cell
     absolute magnetization    =     1.00 Bohr mag/cell

     iteration # 70     ecut=    60.00 Ry     beta= 0.70
     Davidson diagonalization with overlap
     ethr =  1.33E-04,  avg # of iterations =  3.4

     negative rho (up, down):  3.124E-04 1.005E-04

     total cpu time spent up to now is     1087.2 secs

     total energy              =      -1.08241880 Ry
     estimated scf accuracy    <       0.32509047 Ry

     total magnetization       =     1.00 Bohr mag/cell
     absolute magnetization    =     1.00 Bohr mag/cell

     iteration # 71     ecut=    60.00 Ry     beta= 0.70
     Davidson diagonalization with overlap
     ethr =  1.33E-04,  avg # of iterations =  3.6

     negative rho (up, down):  2.935E-04 3.263E-05

     total cpu time spent up to now is     1102.8 secs

     total energy              =      -1.02694734 Ry
     estimated scf accuracy    <       0.36481633 Ry

     total magnetization       =     1.00 Bohr mag/cell
     absolute magnetization    =     1.00 Bohr mag/cell

     iteration # 72     ecut=    60.00 Ry     beta= 0.70
     Davidson diagonalization with overlap
     ethr =  1.33E-04,  avg # of iterations =  4.0

     negative rho (up, down):  2.675E-05 2.000E-05

     total cpu time spent up to now is     1118.1 secs

     total energy              =      -1.06698973 Ry
     estimated scf accuracy    <       0.04045147 Ry

     total magnetization       =     1.00 Bohr mag/cell
     absolute magnetization    =     1.00 Bohr mag/cell

     iteration # 73     ecut=    60.00 Ry     beta= 0.70
     Davidson diagonalization with overlap
     ethr =  1.33E-04,  avg # of iterations =  1.0

     negative rho (up, down):  7.570E-05 3.261E-06

     total cpu time spent up to now is     1132.5 secs

     total energy              =      -1.06544685 Ry
     estimated scf accuracy    <       0.03504042 Ry

     total magnetization       =     1.00 Bohr mag/cell
     absolute magnetization    =     1.00 Bohr mag/cell

     iteration # 74     ecut=    60.00 Ry     beta= 0.70
     Davidson diagonalization with overlap
     ethr =  1.33E-04,  avg # of iterations =  1.0

     negative rho (up, down):  9.545E-05 3.382E-06

     total cpu time spent up to now is     1146.8 secs

     total energy              =      -1.06590456 Ry
     estimated scf accuracy    <       0.03353148 Ry

     total magnetization       =     1.00 Bohr mag/cell
     absolute magnetization    =     1.00 Bohr mag/cell

     iteration # 75     ecut=    60.00 Ry     beta= 0.70
     Davidson diagonalization with overlap
     ethr =  1.33E-04,  avg # of iterations =  1.0

     negative rho (up, down):  1.077E-04 5.926E-06

     total cpu time spent up to now is     1161.0 secs

     total energy              =      -1.06198245 Ry
     estimated scf accuracy    <       0.03314742 Ry

     total magnetization       =     1.00 Bohr mag/cell
     absolute magnetization    =     1.00 Bohr mag/cell

     iteration # 76     ecut=    60.00 Ry     beta= 0.70
     Davidson diagonalization with overlap
     ethr =  1.33E-04,  avg # of iterations =  1.0

     negative rho (up, down):  1.083E-04 3.791E-06

     total cpu time spent up to now is     1175.3 secs

     total energy              =      -1.05931081 Ry
     estimated scf accuracy    <       0.03517081 Ry

     total magnetization       =     1.00 Bohr mag/cell
     absolute magnetization    =     1.00 Bohr mag/cell

     iteration # 77     ecut=    60.00 Ry     beta= 0.70
     Davidson diagonalization with overlap
     ethr =  1.33E-04,  avg # of iterations =  1.0

     negative rho (up, down):  1.161E-04 1.261E-06

     total cpu time spent up to now is     1189.5 secs

     total energy              =      -1.05131156 Ry
     estimated scf accuracy    <       0.03665601 Ry

     total magnetization       =     1.00 Bohr mag/cell
     absolute magnetization    =     1.00 Bohr mag/cell

     iteration # 78     ecut=    60.00 Ry     beta= 0.70
     Davidson diagonalization with overlap
     ethr =  1.33E-04,  avg # of iterations =  1.0

     negative rho (up, down):  1.409E-04 1.619E-06

     total cpu time spent up to now is     1203.8 secs

     total energy              =      -1.05652583 Ry
     estimated scf accuracy    <       0.04617937 Ry

     total magnetization       =     1.00 Bohr mag/cell
     absolute magnetization    =     1.00 Bohr mag/cell

     iteration # 79     ecut=    60.00 Ry     beta= 0.70
     Davidson diagonalization with overlap
     ethr =  1.33E-04,  avg # of iterations =  3.2

     negative rho (up, down):  1.467E-04 2.009E-06

     total cpu time spent up to now is     1218.7 secs

     total energy              =      -1.05938991 Ry
     estimated scf accuracy    <       0.03886585 Ry

     total magnetization       =     1.00 Bohr mag/cell
     absolute magnetization    =     1.00 Bohr mag/cell

     iteration # 80     ecut=    60.00 Ry     beta= 0.70
     Davidson diagonalization with overlap
     ethr =  1.33E-04,  avg # of iterations =  1.0

     negative rho (up, down):  1.019E-04 8.209E-06

     total cpu time spent up to now is     1232.9 secs

     total energy              =      -1.05526244 Ry
     estimated scf accuracy    <       0.04096087 Ry

     total magnetization       =     1.00 Bohr mag/cell
     absolute magnetization    =     1.00 Bohr mag/cell

     iteration # 81     ecut=    60.00 Ry     beta= 0.70
     Davidson diagonalization with overlap
     ethr =  1.33E-04,  avg # of iterations =  2.9

     negative rho (up, down):  2.438E-03 9.188E-06

     total cpu time spent up to now is     1247.9 secs

     total energy              =      -1.18843660 Ry
     estimated scf accuracy    <       0.47216472 Ry

     total magnetization       =     1.00 Bohr mag/cell
     absolute magnetization    =     1.00 Bohr mag/cell

     iteration # 82     ecut=    60.00 Ry     beta= 0.70
     Davidson diagonalization with overlap
     ethr =  1.33E-04,  avg # of iterations =  6.5

     negative rho (up, down):  3.997E-03 9.345E-06

     total cpu time spent up to now is     1264.6 secs

     total energy              =      -1.19609538 Ry
     estimated scf accuracy    <       0.56861727 Ry

     total magnetization       =     1.00 Bohr mag/cell
     absolute magnetization    =     1.00 Bohr mag/cell

     iteration # 83     ecut=    60.00 Ry     beta= 0.70
     Davidson diagonalization with overlap
     ethr =  1.33E-04,  avg # of iterations =  1.0

     negative rho (up, down):  4.978E-04 6.618E-06

     total cpu time spent up to now is     1278.9 secs

     total energy              =      -1.12908660 Ry
     estimated scf accuracy    <       0.57988712 Ry

     total magnetization       =     1.01 Bohr mag/cell
     absolute magnetization    =     1.01 Bohr mag/cell

     iteration # 84     ecut=    60.00 Ry     beta= 0.70
     Davidson diagonalization with overlap
     ethr =  1.33E-04,  avg # of iterations =  2.1

     negative rho (up, down):  3.514E-04 1.841E-06

     total cpu time spent up to now is     1293.6 secs

     total energy              =      -1.09032705 Ry
     estimated scf accuracy    <       0.46157850 Ry

     total magnetization       =     1.00 Bohr mag/cell
     absolute magnetization    =     1.00 Bohr mag/cell

     iteration # 85     ecut=    60.00 Ry     beta= 0.70
     Davidson diagonalization with overlap
     ethr =  1.33E-04,  avg # of iterations =  2.1

     negative rho (up, down):  3.045E-04 5.233E-06

     total cpu time spent up to now is     1308.3 secs

     total energy              =      -1.04292220 Ry
     estimated scf accuracy    <       0.39204885 Ry

     total magnetization       =     1.00 Bohr mag/cell
     absolute magnetization    =     1.00 Bohr mag/cell

     iteration # 86     ecut=    60.00 Ry     beta= 0.70
     Davidson diagonalization with overlap
     ethr =  1.33E-04,  avg # of iterations =  1.5

     negative rho (up, down):  2.927E-04 1.938E-04

     total cpu time spent up to now is     1322.7 secs

     total energy              =      -1.07880667 Ry
     estimated scf accuracy    <       0.20409313 Ry

     total magnetization       =     1.00 Bohr mag/cell
     absolute magnetization    =     1.00 Bohr mag/cell

     iteration # 87     ecut=    60.00 Ry     beta= 0.70
     Davidson diagonalization with overlap
     ethr =  1.33E-04,  avg # of iterations =  4.2

     negative rho (up, down):  3.210E-04 1.062E-03

     total cpu time spent up to now is     1339.5 secs

     total energy              =      -1.09213770 Ry
     estimated scf accuracy    <       0.36731952 Ry

     total magnetization       =     1.00 Bohr mag/cell
     absolute magnetization    =     1.00 Bohr mag/cell

     iteration # 88     ecut=    60.00 Ry     beta= 0.70
     Davidson diagonalization with overlap
     ethr =  1.33E-04,  avg # of iterations =  3.0

     negative rho (up, down):  3.211E-04 8.857E-04

     total cpu time spent up to now is     1355.7 secs

     total energy              =      -1.07409522 Ry
     estimated scf accuracy    <       0.37305817 Ry

     total magnetization       =     1.00 Bohr mag/cell
     absolute magnetization    =     1.00 Bohr mag/cell

     iteration # 89     ecut=    60.00 Ry     beta= 0.70
     Davidson diagonalization with overlap
     ethr =  1.33E-04,  avg # of iterations =  1.0

     negative rho (up, down):  3.130E-04 1.577E-04

     total cpu time spent up to now is     1369.9 secs

     total energy              =      -1.04937126 Ry
     estimated scf accuracy    <       0.34552302 Ry

     total magnetization       =     1.00 Bohr mag/cell
     absolute magnetization    =     1.00 Bohr mag/cell

     iteration # 90     ecut=    60.00 Ry     beta= 0.70
     Davidson diagonalization with overlap
     ethr =  1.33E-04,  avg # of iterations =  5.2

     negative rho (up, down):  2.625E-04 2.553E-04

     total cpu time spent up to now is     1386.7 secs

     total energy              =      -1.04666573 Ry
     estimated scf accuracy    <       0.20347417 Ry

     total magnetization       =     1.00 Bohr mag/cell
     absolute magnetization    =     1.00 Bohr mag/cell

     iteration # 91     ecut=    60.00 Ry     beta= 0.70
     Davidson diagonalization with overlap
     ethr =  1.33E-04,  avg # of iterations =  2.9

     negative rho (up, down):  3.512E-04 5.322E-04

     total cpu time spent up to now is     1402.7 secs

     total energy              =      -0.98274622 Ry
     estimated scf accuracy    <       0.18907755 Ry

     total magnetization       =     1.00 Bohr mag/cell
     absolute magnetization    =     1.00 Bohr mag/cell

     iteration # 92     ecut=    60.00 Ry     beta= 0.70
     Davidson diagonalization with overlap
     ethr =  1.33E-04,  avg # of iterations =  2.2

     negative rho (up, down):  7.235E-04 2.142E-06

     total cpu time spent up to now is     1417.7 secs

     total energy              =      -0.98957156 Ry
     estimated scf accuracy    <       0.03161105 Ry

     total magnetization       =     1.00 Bohr mag/cell
     absolute magnetization    =     1.00 Bohr mag/cell

     iteration # 93     ecut=    60.00 Ry     beta= 0.70
     Davidson diagonalization with overlap
     ethr =  1.33E-04,  avg # of iterations =  6.0

     negative rho (up, down):  7.116E-04 2.194E-06

     total cpu time spent up to now is     1435.5 secs

     total energy              =      -0.98882979 Ry
     estimated scf accuracy    <       0.01869507 Ry

     total magnetization       =     1.00 Bohr mag/cell
     absolute magnetization    =     1.00 Bohr mag/cell

     iteration # 94     ecut=    60.00 Ry     beta= 0.70
     Davidson diagonalization with overlap
     ethr =  1.33E-04,  avg # of iterations =  1.9

     negative rho (up, down):  8.737E-04 5.707E-06

     total cpu time spent up to now is     1450.3 secs

     total energy              =      -0.98770975 Ry
     estimated scf accuracy    <       0.01632333 Ry

     total magnetization       =     1.00 Bohr mag/cell
     absolute magnetization    =     1.00 Bohr mag/cell

     iteration # 95     ecut=    60.00 Ry     beta= 0.70
     Davidson diagonalization with overlap
     ethr =  1.33E-04,  avg # of iterations =  3.3

     negative rho (up, down):  2.996E-04 6.548E-07

     total cpu time spent up to now is     1465.6 secs

     total energy              =      -0.98375833 Ry
     estimated scf accuracy    <       0.01322261 Ry

     total magnetization       =     1.00 Bohr mag/cell
     absolute magnetization    =     1.00 Bohr mag/cell

     iteration # 96     ecut=    60.00 Ry     beta= 0.70
     Davidson diagonalization with overlap
     ethr =  1.33E-04,  avg # of iterations =  1.4

     negative rho (up, down):  9.565E-05 1.015E-08

     total cpu time spent up to now is     1480.1 secs

     total energy              =      -0.97831432 Ry
     estimated scf accuracy    <       0.00858150 Ry

     total magnetization       =     1.00 Bohr mag/cell
     absolute magnetization    =     1.00 Bohr mag/cell

     iteration # 97     ecut=    60.00 Ry     beta= 0.70
     Davidson diagonalization with overlap
     ethr =  1.33E-04,  avg # of iterations =  1.1

     negative rho (up, down):  2.475E-05 1.203E-08

     total cpu time spent up to now is     1494.4 secs

     total energy              =      -0.97737992 Ry
     estimated scf accuracy    <       0.00315687 Ry

     total magnetization       =     1.00 Bohr mag/cell
     absolute magnetization    =     1.00 Bohr mag/cell

     iteration # 98     ecut=    60.00 Ry     beta= 0.70
     Davidson diagonalization with overlap
     ethr =  1.33E-04,  avg # of iterations =  1.4

     negative rho (up, down):  1.983E-05 3.970E-05

     total cpu time spent up to now is     1509.0 secs

     total energy              =      -0.98688833 Ry
     estimated scf accuracy    <       0.00074895 Ry

     total magnetization       =     1.00 Bohr mag/cell
     absolute magnetization    =     1.00 Bohr mag/cell

     iteration # 99     ecut=    60.00 Ry     beta= 0.70
     Davidson diagonalization with overlap
     ethr =  7.49E-05,  avg # of iterations =  7.3

     negative rho (up, down):  1.939E-05 7.900E-09

     total cpu time spent up to now is     1528.0 secs

     total energy              =      -1.01437377 Ry
     estimated scf accuracy    <       0.00601193 Ry

     total magnetization       =     1.00 Bohr mag/cell
     absolute magnetization    =     1.00 Bohr mag/cell

     iteration #100     ecut=    60.00 Ry     beta= 0.70
     Davidson diagonalization with overlap
     ethr =  7.49E-05,  avg # of iterations =  9.4

     negative rho (up, down):  1.439E-05 1.768E-04

     total cpu time spent up to now is     1548.4 secs

     total energy              =      -1.02862123 Ry
     estimated scf accuracy    <       0.00279377 Ry

     total magnetization       =     1.00 Bohr mag/cell
     absolute magnetization    =     1.00 Bohr mag/cell

     iteration #101     ecut=    60.00 Ry     beta= 0.70
     Davidson diagonalization with overlap
     ethr =  7.49E-05,  avg # of iterations =  7.2

     negative rho (up, down):  1.485E-05 3.019E-05

     total cpu time spent up to now is     1567.7 secs

     total energy              =      -1.02919558 Ry
     estimated scf accuracy    <       0.00008111 Ry

     total magnetization       =     1.00 Bohr mag/cell
     absolute magnetization    =     1.00 Bohr mag/cell

     iteration #102     ecut=    60.00 Ry     beta= 0.70
     Davidson diagonalization with overlap
     ethr =  8.11E-06,  avg # of iterations =  9.2

     negative rho (up, down):  2.477E-04 5.450E-05

     total cpu time spent up to now is     1586.5 secs

     total energy              =      -1.16125149 Ry
     estimated scf accuracy    <       0.28699550 Ry

     total magnetization       =     1.00 Bohr mag/cell
     absolute magnetization    =     1.00 Bohr mag/cell

     iteration #103     ecut=    60.00 Ry     beta= 0.70
     Davidson diagonalization with overlap
     ethr =  8.11E-06,  avg # of iterations =  2.6

     negative rho (up, down):  3.250E-04 2.885E-05

     total cpu time spent up to now is     1601.4 secs

     total energy              =      -1.15644151 Ry
     estimated scf accuracy    <       0.27128372 Ry

     total magnetization       =     1.00 Bohr mag/cell
     absolute magnetization    =     1.00 Bohr mag/cell

     iteration #104     ecut=    60.00 Ry     beta= 0.70
     Davidson diagonalization with overlap
     ethr =  8.11E-06,  avg # of iterations =  1.0

     negative rho (up, down):  3.433E-04 9.428E-08

     total cpu time spent up to now is     1615.8 secs

     total energy              =      -1.14845361 Ry
     estimated scf accuracy    <       0.25983283 Ry

     total magnetization       =     1.00 Bohr mag/cell
     absolute magnetization    =     1.00 Bohr mag/cell

     iteration #105     ecut=    60.00 Ry     beta= 0.70
     Davidson diagonalization with overlap
     ethr =  8.11E-06,  avg # of iterations = 12.6

     negative rho (up, down):  3.440E-04 7.136E-08

     total cpu time spent up to now is     1640.8 secs

     total energy              =      -1.14340037 Ry
     estimated scf accuracy    <       0.24844920 Ry

     total magnetization       =     1.00 Bohr mag/cell
     absolute magnetization    =     1.00 Bohr mag/cell

     iteration #106     ecut=    60.00 Ry     beta= 0.70
     Davidson diagonalization with overlap
     ethr =  8.11E-06,  avg # of iterations =  5.0

     negative rho (up, down):  3.385E-04 6.904E-08

     total cpu time spent up to now is     1656.6 secs

     total energy              =      -1.14203673 Ry
     estimated scf accuracy    <       0.24163690 Ry

     total magnetization       =     1.00 Bohr mag/cell
     absolute magnetization    =     1.00 Bohr mag/cell

     iteration #107     ecut=    60.00 Ry     beta= 0.70
     Davidson diagonalization with overlap
     ethr =  8.11E-06,  avg # of iterations =  1.2

     negative rho (up, down):  3.128E-04 1.093E-07

     total cpu time spent up to now is     1670.9 secs

     total energy              =      -1.14004440 Ry
     estimated scf accuracy    <       0.23510021 Ry

     total magnetization       =     1.00 Bohr mag/cell
     absolute magnetization    =     1.00 Bohr mag/cell

     iteration #108     ecut=    60.00 Ry     beta= 0.70
     Davidson diagonalization with overlap
     ethr =  8.11E-06,  avg # of iterations =  1.6

     negative rho (up, down):  2.841E-04 7.513E-08

     total cpu time spent up to now is     1685.3 secs

     total energy              =      -1.12579183 Ry
     estimated scf accuracy    <       0.20006075 Ry

     total magnetization       =     1.00 Bohr mag/cell
     absolute magnetization    =     1.00 Bohr mag/cell

     iteration #109     ecut=    60.00 Ry     beta= 0.70
     Davidson diagonalization with overlap
     ethr =  8.11E-06,  avg # of iterations =  3.4

     negative rho (up, down):  2.832E-04 9.773E-08

     total cpu time spent up to now is     1700.9 secs

     total energy              =      -1.12751368 Ry
     estimated scf accuracy    <       0.17505589 Ry

     total magnetization       =     1.00 Bohr mag/cell
     absolute magnetization    =     1.00 Bohr mag/cell

     iteration #110     ecut=    60.00 Ry     beta= 0.70
     Davidson diagonalization with overlap
     ethr =  8.11E-06,  avg # of iterations =  1.5

     negative rho (up, down):  2.802E-04 5.161E-08

     total cpu time spent up to now is     1715.3 secs

     total energy              =      -1.11313413 Ry
     estimated scf accuracy    <       0.18299244 Ry

     total magnetization       =     1.00 Bohr mag/cell
     absolute magnetization    =     1.00 Bohr mag/cell

     iteration #111     ecut=    60.00 Ry     beta= 0.70
     Davidson diagonalization with overlap
     ethr =  8.11E-06,  avg # of iterations =  1.5

     negative rho (up, down):  2.958E-04 2.327E-05

     total cpu time spent up to now is     1729.7 secs

     total energy              =      -1.12496087 Ry
     estimated scf accuracy    <       0.17513416 Ry

     total magnetization       =     1.00 Bohr mag/cell
     absolute magnetization    =     1.00 Bohr mag/cell

     iteration #112     ecut=    60.00 Ry     beta= 0.70
     Davidson diagonalization with overlap
     ethr =  8.11E-06,  avg # of iterations = 12.0

     negative rho (up, down):  4.000E-03 2.091E-07

     total cpu time spent up to now is     1753.9 secs

     total energy              =      -1.01192765 Ry
     estimated scf accuracy    <       0.19761537 Ry

     total magnetization       =     1.00 Bohr mag/cell
     absolute magnetization    =     1.00 Bohr mag/cell

     iteration #113     ecut=    60.00 Ry     beta= 0.70
     Davidson diagonalization with overlap
     c_bands:  1 eigenvalues not converged
     c_bands:  1 eigenvalues not converged
     ethr =  8.11E-06,  avg # of iterations = 17.3

     negative rho (up, down):  3.202E-04 1.454E-07

     total cpu time spent up to now is     1781.7 secs

     total energy              =      -1.22985557 Ry
     estimated scf accuracy    <       0.68816440 Ry

     total magnetization       =     0.92 Bohr mag/cell
     absolute magnetization    =     0.92 Bohr mag/cell

     iteration #114     ecut=    60.00 Ry     beta= 0.70
     Davidson diagonalization with overlap
     ethr =  8.11E-06,  avg # of iterations = 11.7

     negative rho (up, down):  4.967E-04 3.642E-07

     total cpu time spent up to now is     1803.0 secs

     total energy              =      -1.22870505 Ry
     estimated scf accuracy    <       0.62644001 Ry

     total magnetization       =     1.04 Bohr mag/cell
     absolute magnetization    =     1.04 Bohr mag/cell

     iteration #115     ecut=    60.00 Ry     beta= 0.70
     Davidson diagonalization with overlap
     ethr =  8.11E-06,  avg # of iterations =  6.8

     negative rho (up, down):  4.215E-04 1.778E-02

     total cpu time spent up to now is     1821.6 secs

     total energy              =      -1.17457866 Ry
     estimated scf accuracy    <       0.62150717 Ry

     total magnetization       =     1.06 Bohr mag/cell
     absolute magnetization    =     1.06 Bohr mag/cell

     iteration #116     ecut=    60.00 Ry     beta= 0.70
     Davidson diagonalization with overlap
     c_bands:  1 eigenvalues not converged
     ethr =  8.11E-06,  avg # of iterations = 13.7

     negative rho (up, down):  1.739E-03 2.056E-03

     total cpu time spent up to now is     1845.7 secs

     total energy              =      -1.15487458 Ry
     estimated scf accuracy    <       0.51767959 Ry

     total magnetization       =     1.04 Bohr mag/cell
     absolute magnetization    =     1.04 Bohr mag/cell

     iteration #117     ecut=    60.00 Ry     beta= 0.70
     Davidson diagonalization with overlap
     ethr =  8.11E-06,  avg # of iterations =  9.5

     negative rho (up, down):  1.943E-03 1.637E-03

     total cpu time spent up to now is     1866.2 secs

     total energy              =      -1.15121898 Ry
     estimated scf accuracy    <       0.48210568 Ry

     total magnetization       =     1.00 Bohr mag/cell
     absolute magnetization    =     1.00 Bohr mag/cell

     iteration #118     ecut=    60.00 Ry     beta= 0.70
     Davidson diagonalization with overlap
     ethr =  8.11E-06,  avg # of iterations =  3.0

     negative rho (up, down):  1.024E-03 1.887E-03

     total cpu time spent up to now is     1881.2 secs

     total energy              =      -1.09884336 Ry
     estimated scf accuracy    <       0.47176143 Ry

     total magnetization       =     1.00 Bohr mag/cell
     absolute magnetization    =     1.00 Bohr mag/cell

     iteration #119     ecut=    60.00 Ry     beta= 0.70
     Davidson diagonalization with overlap
     ethr =  8.11E-06,  avg # of iterations =  5.6

     negative rho (up, down):  3.672E-04 3.675E-03

     total cpu time spent up to now is     1898.8 secs

     total energy              =      -1.05110364 Ry
     estimated scf accuracy    <       0.38583530 Ry

     total magnetization       =     1.00 Bohr mag/cell
     absolute magnetization    =     1.00 Bohr mag/cell

     iteration #120     ecut=    60.00 Ry     beta= 0.70
     Davidson diagonalization with overlap
     c_bands:  1 eigenvalues not converged
     ethr =  8.11E-06,  avg # of iterations =  7.8

     negative rho (up, down):  2.643E-04 3.389E-03

     total cpu time spent up to now is     1917.8 secs

     total energy              =      -0.96127164 Ry
     estimated scf accuracy    <       0.30569487 Ry

     total magnetization       =     1.00 Bohr mag/cell
     absolute magnetization    =     1.00 Bohr mag/cell

     iteration #121     ecut=    60.00 Ry     beta= 0.70
     Davidson diagonalization with overlap
     ethr =  8.11E-06,  avg # of iterations = 14.3

     negative rho (up, down):  1.138E-04 1.623E-03

     total cpu time spent up to now is     1941.4 secs

     total energy              =      -1.13913413 Ry
     estimated scf accuracy    <       0.20818488 Ry

     total magnetization       =     1.00 Bohr mag/cell
     absolute magnetization    =     1.00 Bohr mag/cell

     iteration #122     ecut=    60.00 Ry     beta= 0.70
     Davidson diagonalization with overlap
     ethr =  8.11E-06,  avg # of iterations =  7.2

     negative rho (up, down):  3.489E-04 2.938E-08

     total cpu time spent up to now is     1959.5 secs

     total energy              =      -1.12472375 Ry
     estimated scf accuracy    <       0.21445102 Ry

     total magnetization       =     1.00 Bohr mag/cell
     absolute magnetization    =     1.00 Bohr mag/cell

     iteration #123     ecut=    60.00 Ry     beta= 0.70
     Davidson diagonalization with overlap
     ethr =  8.11E-06,  avg # of iterations =  9.5

     negative rho (up, down):  6.610E-03 1.546E-08

     total cpu time spent up to now is     1981.0 secs

     total energy              =      -1.08083865 Ry
     estimated scf accuracy    <       0.17638909 Ry

     total magnetization       =     1.00 Bohr mag/cell
     absolute magnetization    =     1.00 Bohr mag/cell

     iteration #124     ecut=    60.00 Ry     beta= 0.70
     Davidson diagonalization with overlap
     ethr =  8.11E-06,  avg # of iterations =  7.2

     negative rho (up, down):  3.562E-04 1.329E-03

     total cpu time spent up to now is     2000.3 secs

     total energy              =      -1.16881061 Ry
     estimated scf accuracy    <       0.09221003 Ry

     total magnetization       =     1.00 Bohr mag/cell
     absolute magnetization    =     1.00 Bohr mag/cell

     iteration #125     ecut=    60.00 Ry     beta= 0.70
     Davidson diagonalization with overlap
     ethr =  8.11E-06,  avg # of iterations = 12.3

     negative rho (up, down):  3.146E-04 4.840E-04

     total cpu time spent up to now is     2022.5 secs

     total energy              =      -1.15058023 Ry
     estimated scf accuracy    <       0.27304905 Ry

     total magnetization       =     1.00 Bohr mag/cell
     absolute magnetization    =     1.00 Bohr mag/cell

     iteration #126     ecut=    60.00 Ry     beta= 0.70
     Davidson diagonalization with overlap
     ethr =  8.11E-06,  avg # of iterations =  8.2

     negative rho (up, down):  3.053E-04 1.042E-04

     total cpu time spent up to now is     2042.0 secs

     total energy              =      -1.11611505 Ry
     estimated scf accuracy    <       0.23917398 Ry

     total magnetization       =     1.00 Bohr mag/cell
     absolute magnetization    =     1.00 Bohr mag/cell

     iteration #127     ecut=    60.00 Ry     beta= 0.70
     Davidson diagonalization with overlap
     ethr =  8.11E-06,  avg # of iterations = 10.3

     negative rho (up, down):  7.796E-04 5.556E-03

     total cpu time spent up to now is     2064.0 secs

     total energy              =      -1.21253865 Ry
     estimated scf accuracy    <       0.17361800 Ry

     total magnetization       =     1.00 Bohr mag/cell
     absolute magnetization    =     1.00 Bohr mag/cell

     iteration #128     ecut=    60.00 Ry     beta= 0.70
     Davidson diagonalization with overlap
     ethr =  8.11E-06,  avg # of iterations = 10.3

     negative rho (up, down):  2.991E-04 1.125E-03

     total cpu time spent up to now is     2085.9 secs

     total energy              =      -1.09089547 Ry
     estimated scf accuracy    <       0.36493480 Ry

     total magnetization       =     1.00 Bohr mag/cell
     absolute magnetization    =     1.00 Bohr mag/cell

     iteration #129     ecut=    60.00 Ry     beta= 0.70
     Davidson diagonalization with overlap
     ethr =  8.11E-06,  avg # of iterations =  8.6

     negative rho (up, down):  6.321E-04 3.461E-05

     total cpu time spent up to now is     2106.0 secs

     total energy              =      -1.05853359 Ry
     estimated scf accuracy    <       0.16059216 Ry

     total magnetization       =     1.00 Bohr mag/cell
     absolute magnetization    =     1.00 Bohr mag/cell

     iteration #130     ecut=    60.00 Ry     beta= 0.70
     Davidson diagonalization with overlap
     ethr =  8.11E-06,  avg # of iterations =  9.8

     negative rho (up, down):  4.165E-04 1.303E-04

     total cpu time spent up to now is     2127.8 secs

     total energy              =      -1.05198243 Ry
     estimated scf accuracy    <       0.11007322 Ry

     total magnetization       =     1.00 Bohr mag/cell
     absolute magnetization    =     1.00 Bohr mag/cell

     iteration #131     ecut=    60.00 Ry     beta= 0.70
     Davidson diagonalization with overlap
     ethr =  8.11E-06,  avg # of iterations =  7.8

     negative rho (up, down):  5.924E-03 1.204E-08

     total cpu time spent up to now is     2146.8 secs

     total energy              =      -1.02820373 Ry
     estimated scf accuracy    <       0.07345813 Ry

     total magnetization       =     1.00 Bohr mag/cell
     absolute magnetization    =     1.00 Bohr mag/cell

     iteration #132     ecut=    60.00 Ry     beta= 0.70
     Davidson diagonalization with overlap
     c_bands:  1 eigenvalues not converged
     c_bands:  1 eigenvalues not converged
     ethr =  8.11E-06,  avg # of iterations = 16.7

     negative rho (up, down):  1.309E-03 3.726E-09

     total cpu time spent up to now is     2171.3 secs

     total energy              =      -1.10495812 Ry
     estimated scf accuracy    <       0.48544739 Ry

     total magnetization       =     1.00 Bohr mag/cell
     absolute magnetization    =     1.00 Bohr mag/cell

     iteration #133     ecut=    60.00 Ry     beta= 0.70
     Davidson diagonalization with overlap
     ethr =  8.11E-06,  avg # of iterations = 10.0

     negative rho (up, down):  1.139E-03 4.336E-09

     total cpu time spent up to now is     2190.6 secs

     total energy              =      -1.08767376 Ry
     estimated scf accuracy    <       0.41404431 Ry

     total magnetization       =     1.00 Bohr mag/cell
     absolute magnetization    =     1.00 Bohr mag/cell

     iteration #134     ecut=    60.00 Ry     beta= 0.70
     Davidson diagonalization with overlap
     ethr =  8.11E-06,  avg # of iterations =  4.3

     negative rho (up, down):  4.640E-04 2.094E-08

     total cpu time spent up to now is     2207.0 secs

     total energy              =      -1.08498774 Ry
     estimated scf accuracy    <       0.38668459 Ry

     total magnetization       =     1.00 Bohr mag/cell
     absolute magnetization    =     1.00 Bohr mag/cell

     iteration #135     ecut=    60.00 Ry     beta= 0.70
     Davidson diagonalization with overlap
     ethr =  8.11E-06,  avg # of iterations =  6.2

     negative rho (up, down):  3.919E-04 1.400E-08

     total cpu time spent up to now is     2224.7 secs

     total energy              =      -1.07355913 Ry
     estimated scf accuracy    <       0.38309635 Ry

     total magnetization       =     1.00 Bohr mag/cell
     absolute magnetization    =     1.00 Bohr mag/cell

     iteration #136     ecut=    60.00 Ry     beta= 0.70
     Davidson diagonalization with overlap
     ethr =  8.11E-06,  avg # of iterations =  4.9

     negative rho (up, down):  2.023E-03 1.240E-08

     total cpu time spent up to now is     2241.1 secs

     total energy              =      -1.17510158 Ry
     estimated scf accuracy    <       0.36893940 Ry

     total magnetization       =     1.00 Bohr mag/cell
     absolute magnetization    =     1.01 Bohr mag/cell

     iteration #137     ecut=    60.00 Ry     beta= 0.70
     Davidson diagonalization with overlap
     c_bands:  1 eigenvalues not converged
     c_bands:  1 eigenvalues not converged
     c_bands:  1 eigenvalues not converged
     ethr =  8.11E-06,  avg # of iterations = 11.2

     negative rho (up, down):  3.839E-03 1.007E-08

     total cpu time spent up to now is     2263.8 secs

     total energy              =      -1.18781395 Ry
     estimated scf accuracy    <       0.55243814 Ry

     total magnetization       =     1.00 Bohr mag/cell
     absolute magnetization    =     1.00 Bohr mag/cell

     iteration #138     ecut=    60.00 Ry     beta= 0.70
     Davidson diagonalization with overlap
     ethr =  8.11E-06,  avg # of iterations =  5.2

     negative rho (up, down):  2.359E-03 3.029E-09

     total cpu time spent up to now is     2280.7 secs

     total energy              =      -1.11321851 Ry
     estimated scf accuracy    <       0.57334764 Ry

     total magnetization       =     1.00 Bohr mag/cell
     absolute magnetization    =     1.00 Bohr mag/cell

     iteration #139     ecut=    60.00 Ry     beta= 0.70
     Davidson diagonalization with overlap
     ethr =  8.11E-06,  avg # of iterations =  7.7

     negative rho (up, down):  7.312E-04 1.428E-09

     total cpu time spent up to now is     2301.1 secs

     total energy              =      -1.04619462 Ry
     estimated scf accuracy    <       0.43857997 Ry

     total magnetization       =     1.00 Bohr mag/cell
     absolute magnetization    =     1.00 Bohr mag/cell

     iteration #140     ecut=    60.00 Ry     beta= 0.70
     Davidson diagonalization with overlap
     ethr =  8.11E-06,  avg # of iterations =  8.7

     negative rho (up, down):  1.439E-03 9.912E-14

     total cpu time spent up to now is     2321.0 secs

     total energy              =      -1.03262870 Ry
     estimated scf accuracy    <       0.09610358 Ry

     total magnetization       =     1.00 Bohr mag/cell
     absolute magnetization    =     1.00 Bohr mag/cell

     iteration #141     ecut=    60.00 Ry     beta= 0.70
     Davidson diagonalization with overlap
     ethr =  8.11E-06,  avg # of iterations =  8.3

     negative rho (up, down):  3.263E-03 3.692E-10

     total cpu time spent up to now is     2339.8 secs

     total energy              =      -1.05298156 Ry
     estimated scf accuracy    <       0.07387038 Ry

     total magnetization       =     1.00 Bohr mag/cell
     absolute magnetization    =     1.00 Bohr mag/cell

     iteration #142     ecut=    60.00 Ry     beta= 0.70
     Davidson diagonalization with overlap
     ethr =  8.11E-06,  avg # of iterations = 10.8

     negative rho (up, down):  2.649E-03 1.423E-10

     total cpu time spent up to now is     2359.6 secs

     total energy              =      -1.04916679 Ry
     estimated scf accuracy    <       0.04835582 Ry

     total magnetization       =     1.00 Bohr mag/cell
     absolute magnetization    =     1.00 Bohr mag/cell

     iteration #143     ecut=    60.00 Ry     beta= 0.70
     Davidson diagonalization with overlap
     ethr =  8.11E-06,  avg # of iterations =  2.8

     negative rho (up, down):  2.490E-03 1.305E-10

     total cpu time spent up to now is     2374.4 secs

     total energy              =      -1.05034081 Ry
     estimated scf accuracy    <       0.00086433 Ry

     total magnetization       =     1.00 Bohr mag/cell
     absolute magnetization    =     1.00 Bohr mag/cell

     iteration #144     ecut=    60.00 Ry     beta= 0.70
     Davidson diagonalization with overlap
     ethr =  8.11E-06,  avg # of iterations =  1.0

     negative rho (up, down):  1.666E-03 4.969E-10

     total cpu time spent up to now is     2388.6 secs

     total energy              =      -1.05932963 Ry
     estimated scf accuracy    <       0.00156057 Ry

     total magnetization       =     1.00 Bohr mag/cell
     absolute magnetization    =     1.00 Bohr mag/cell

     iteration #145     ecut=    60.00 Ry     beta= 0.70
     Davidson diagonalization with overlap
     ethr =  8.11E-06,  avg # of iterations =  8.2

     negative rho (up, down):  1.903E-03 1.772E-10

     total cpu time spent up to now is     2406.5 secs

     total energy              =      -1.05292503 Ry
     estimated scf accuracy    <       0.09055586 Ry

     total magnetization       =     1.00 Bohr mag/cell
     absolute magnetization    =     1.01 Bohr mag/cell

     iteration #146     ecut=    60.00 Ry     beta= 0.70
     Davidson diagonalization with overlap
     ethr =  8.11E-06,  avg # of iterations =  3.5

     negative rho (up, down):  1.302E-03 2.211E-10

     total cpu time spent up to now is     2421.6 secs

     total energy              =      -1.05596550 Ry
     estimated scf accuracy    <       0.02205418 Ry

     total magnetization       =     1.00 Bohr mag/cell
     absolute magnetization    =     1.00 Bohr mag/cell

     iteration #147     ecut=    60.00 Ry     beta= 0.70
     Davidson diagonalization with overlap
     ethr =  8.11E-06,  avg # of iterations =  5.8

     negative rho (up, down):  6.377E-04 3.322E-05

     total cpu time spent up to now is     2437.5 secs

     total energy              =      -1.06581397 Ry
     estimated scf accuracy    <       0.01589041 Ry

     total magnetization       =     1.00 Bohr mag/cell
     absolute magnetization    =     1.00 Bohr mag/cell

     iteration #148     ecut=    60.00 Ry     beta= 0.70
     Davidson diagonalization with overlap
     ethr =  8.11E-06,  avg # of iterations = 10.4

     negative rho (up, down):  1.650E-03 1.402E-04

     total cpu time spent up to now is     2457.8 secs

     total energy              =      -1.07529734 Ry
     estimated scf accuracy    <       0.09804438 Ry

     total magnetization       =     1.00 Bohr mag/cell
     absolute magnetization    =     1.07 Bohr mag/cell

     iteration #149     ecut=    60.00 Ry     beta= 0.70
     Davidson diagonalization with overlap
     ethr =  8.11E-06,  avg # of iterations = 10.9

     negative rho (up, down):  2.139E-04 1.740E-04

     total cpu time spent up to now is     2481.0 secs

     total energy              =      -1.07954826 Ry
     estimated scf accuracy    <       0.09417542 Ry

     total magnetization       =     1.00 Bohr mag/cell
     absolute magnetization    =     1.03 Bohr mag/cell

     iteration #150     ecut=    60.00 Ry     beta= 0.70
     Davidson diagonalization with overlap
     ethr =  8.11E-06,  avg # of iterations =  7.7

     negative rho (up, down):  2.450E-04 4.099E-04

     total cpu time spent up to now is     2499.6 secs

     total energy              =      -1.05910307 Ry
     estimated scf accuracy    <       0.10636476 Ry

     total magnetization       =     1.00 Bohr mag/cell
     absolute magnetization    =     1.00 Bohr mag/cell

     iteration #151     ecut=    60.00 Ry     beta= 0.70
     Davidson diagonalization with overlap
     ethr =  8.11E-06,  avg # of iterations =  9.7

     negative rho (up, down):  9.149E-05 1.175E-04

     total cpu time spent up to now is     2519.8 secs

     total energy              =      -1.05102011 Ry
     estimated scf accuracy    <       0.16418012 Ry

     total magnetization       =     1.00 Bohr mag/cell
     absolute magnetization    =     1.00 Bohr mag/cell

     iteration #152     ecut=    60.00 Ry     beta= 0.70
     Davidson diagonalization with overlap
     ethr =  8.11E-06,  avg # of iterations =  9.1

     negative rho (up, down):  8.943E-05 4.287E-05

     total cpu time spent up to now is     2540.4 secs

     total energy              =      -1.05771368 Ry
     estimated scf accuracy    <       0.09738268 Ry

     total magnetization       =     1.00 Bohr mag/cell
     absolute magnetization    =     1.06 Bohr mag/cell

     iteration #153     ecut=    60.00 Ry     beta= 0.70
     Davidson diagonalization with overlap
     ethr =  8.11E-06,  avg # of iterations =  8.2

     negative rho (up, down):  3.230E-05 2.155E-06

     total cpu time spent up to now is     2560.1 secs

[...]

     total energy              =      -1.04842146 Ry
     estimated scf accuracy    <       0.00082133 Ry

     total magnetization       =     1.00 Bohr mag/cell
     absolute magnetization    =     1.00 Bohr mag/cell

     iteration #965     ecut=    60.00 Ry     beta= 0.70
     Davidson diagonalization with overlap
     ethr =  2.32E-08,  avg # of iterations =  9.6

     negative rho (up, down):  2.499E-05 1.451E-15

     total cpu time spent up to now is    18255.4 secs

     total energy              =      -1.04894245 Ry
     estimated scf accuracy    <       0.00000473 Ry

     total magnetization       =     1.00 Bohr mag/cell
     absolute magnetization    =     1.00 Bohr mag/cell

     iteration #966     ecut=    60.00 Ry     beta= 0.70
     Davidson diagonalization with overlap
     ethr =  2.32E-08,  avg # of iterations =  7.5

     negative rho (up, down):  2.443E-05 1.402E-15

     total cpu time spent up to now is    18273.1 secs

     total energy              =      -1.04896888 Ry
     estimated scf accuracy    <       0.00000195 Ry

     total magnetization       =     1.00 Bohr mag/cell
     absolute magnetization    =     1.00 Bohr mag/cell

     iteration #967     ecut=    60.00 Ry     beta= 0.70
     Davidson diagonalization with overlap
     ethr =  2.32E-08,  avg # of iterations =  9.2

     negative rho (up, down):  2.862E-05 1.396E-15

     total cpu time spent up to now is    18291.7 secs

     total energy              =      -1.04853160 Ry
     estimated scf accuracy    <       0.00141917 Ry

     total magnetization       =     1.00 Bohr mag/cell
     absolute magnetization    =     1.00 Bohr mag/cell

     iteration #968     ecut=    60.00 Ry     beta= 0.70
     Davidson diagonalization with overlap
     ethr =  2.32E-08,  avg # of iterations = 10.4

     negative rho (up, down):  2.546E-05 1.439E-15

     total cpu time spent up to now is    18311.1 secs

     total energy              =      -1.04854170 Ry
     estimated scf accuracy    <       0.00003174 Ry

     total magnetization       =     1.00 Bohr mag/cell
     absolute magnetization    =     1.00 Bohr mag/cell

     iteration #969     ecut=    60.00 Ry     beta= 0.70
     Davidson diagonalization with overlap
     ethr =  2.32E-08,  avg # of iterations =  9.2

     negative rho (up, down):  2.524E-05 1.316E-15

     total cpu time spent up to now is    18330.3 secs

     total energy              =      -1.04813765 Ry
     estimated scf accuracy    <       0.00010209 Ry

     total magnetization       =     1.00 Bohr mag/cell
     absolute magnetization    =     1.00 Bohr mag/cell

     iteration #970     ecut=    60.00 Ry     beta= 0.70
     Davidson diagonalization with overlap
     ethr =  2.32E-08,  avg # of iterations =  8.6

     negative rho (up, down):  2.736E-05 1.354E-15

     total cpu time spent up to now is    18348.7 secs

     total energy              =      -1.04806300 Ry
     estimated scf accuracy    <       0.00071479 Ry

     total magnetization       =     1.00 Bohr mag/cell
     absolute magnetization    =     1.00 Bohr mag/cell

     iteration #971     ecut=    60.00 Ry     beta= 0.70
     Davidson diagonalization with overlap
     ethr =  2.32E-08,  avg # of iterations = 10.1

     negative rho (up, down):  2.897E-05 1.438E-15

     total cpu time spent up to now is    18368.3 secs

     total energy              =      -1.04856786 Ry
     estimated scf accuracy    <       0.00095748 Ry

     total magnetization       =     1.00 Bohr mag/cell
     absolute magnetization    =     1.00 Bohr mag/cell

     iteration #972     ecut=    60.00 Ry     beta= 0.70
     Davidson diagonalization with overlap
     ethr =  2.32E-08,  avg # of iterations = 10.3

     negative rho (up, down):  2.920E-05 1.515E-15

     total cpu time spent up to now is    18387.0 secs

     total energy              =      -1.04864481 Ry
     estimated scf accuracy    <       0.00088341 Ry

     total magnetization       =     1.00 Bohr mag/cell
     absolute magnetization    =     1.00 Bohr mag/cell

     iteration #973     ecut=    60.00 Ry     beta= 0.70
     Davidson diagonalization with overlap
     ethr =  2.32E-08,  avg # of iterations =  8.7

     negative rho (up, down):  2.783E-05 1.388E-15

     total cpu time spent up to now is    18405.7 secs

     total energy              =      -1.04805941 Ry
     estimated scf accuracy    <       0.00047593 Ry

     total magnetization       =     1.00 Bohr mag/cell
     absolute magnetization    =     1.00 Bohr mag/cell

     iteration #974     ecut=    60.00 Ry     beta= 0.70
     Davidson diagonalization with overlap
     ethr =  2.32E-08,  avg # of iterations =  9.9

     negative rho (up, down):  3.144E-05 1.380E-15

     total cpu time spent up to now is    18425.3 secs

     total energy              =      -1.04867893 Ry
     estimated scf accuracy    <       0.00174031 Ry

     total magnetization       =     1.00 Bohr mag/cell
     absolute magnetization    =     1.00 Bohr mag/cell

     iteration #975     ecut=    60.00 Ry     beta= 0.70
     Davidson diagonalization with overlap
     ethr =  2.32E-08,  avg # of iterations =  8.7

     negative rho (up, down):  3.502E-05 1.322E-15

     total cpu time spent up to now is    18443.3 secs

     total energy              =      -1.04878327 Ry
     estimated scf accuracy    <       0.00261953 Ry

     total magnetization       =     1.00 Bohr mag/cell
     absolute magnetization    =     1.00 Bohr mag/cell

     iteration #976     ecut=    60.00 Ry     beta= 0.70
     Davidson diagonalization with overlap
     ethr =  2.32E-08,  avg # of iterations = 10.6

     negative rho (up, down):  3.056E-05 1.312E-15

     total cpu time spent up to now is    18462.8 secs

     total energy              =      -1.04837449 Ry
     estimated scf accuracy    <       0.00080932 Ry

     total magnetization       =     1.00 Bohr mag/cell
     absolute magnetization    =     1.00 Bohr mag/cell

     iteration #977     ecut=    60.00 Ry     beta= 0.70
     Davidson diagonalization with overlap
     ethr =  2.32E-08,  avg # of iterations =  9.1

     negative rho (up, down):  3.003E-05 1.357E-15

     total cpu time spent up to now is    18481.6 secs

     total energy              =      -1.04823695 Ry
     estimated scf accuracy    <       0.00097570 Ry

     total magnetization       =     1.00 Bohr mag/cell
     absolute magnetization    =     1.00 Bohr mag/cell

     iteration #978     ecut=    60.00 Ry     beta= 0.70
     Davidson diagonalization with overlap
     ethr =  2.32E-08,  avg # of iterations =  8.4

     negative rho (up, down):  2.764E-05 1.354E-15

     total cpu time spent up to now is    18500.1 secs

     total energy              =      -1.04876802 Ry
     estimated scf accuracy    <       0.00037065 Ry

     total magnetization       =     1.00 Bohr mag/cell
     absolute magnetization    =     1.00 Bohr mag/cell

     iteration #979     ecut=    60.00 Ry     beta= 0.70
     Davidson diagonalization with overlap
     ethr =  2.32E-08,  avg # of iterations =  8.7

     negative rho (up, down):  2.733E-05 1.531E-15

     total cpu time spent up to now is    18518.5 secs

     total energy              =      -1.04874791 Ry
     estimated scf accuracy    <       0.00046138 Ry

     total magnetization       =     1.00 Bohr mag/cell
     absolute magnetization    =     1.00 Bohr mag/cell

     iteration #980     ecut=    60.00 Ry     beta= 0.70
     Davidson diagonalization with overlap
     ethr =  2.32E-08,  avg # of iterations =  8.8

     negative rho (up, down):  2.513E-05 1.393E-15

     total cpu time spent up to now is    18537.2 secs

     total energy              =      -1.04835815 Ry
     estimated scf accuracy    <       0.00002277 Ry

     total magnetization       =     1.00 Bohr mag/cell
     absolute magnetization    =     1.00 Bohr mag/cell

     iteration #981     ecut=    60.00 Ry     beta= 0.70
     Davidson diagonalization with overlap
     ethr =  2.32E-08,  avg # of iterations =  8.4

     negative rho (up, down):  2.628E-05 1.460E-15

     total cpu time spent up to now is    18555.3 secs

     total energy              =      -1.04835991 Ry
     estimated scf accuracy    <       0.00040304 Ry

     total magnetization       =     1.00 Bohr mag/cell
     absolute magnetization    =     1.00 Bohr mag/cell

     iteration #982     ecut=    60.00 Ry     beta= 0.70
     Davidson diagonalization with overlap
     ethr =  2.32E-08,  avg # of iterations = 11.7

     negative rho (up, down):  2.465E-05 1.372E-15

     total cpu time spent up to now is    18575.4 secs

     total energy              =      -1.04847491 Ry
     estimated scf accuracy    <       0.00000161 Ry

     total magnetization       =     1.00 Bohr mag/cell
     absolute magnetization    =     1.00 Bohr mag/cell

     iteration #983     ecut=    60.00 Ry     beta= 0.70
     Davidson diagonalization with overlap
     ethr =  2.32E-08,  avg # of iterations =  9.9

     negative rho (up, down):  2.420E-05 1.424E-15

     total cpu time spent up to now is    18594.8 secs

     total energy              =      -1.04841350 Ry
     estimated scf accuracy    <       0.00001298 Ry

     total magnetization       =     1.00 Bohr mag/cell
     absolute magnetization    =     1.00 Bohr mag/cell

     iteration #984     ecut=    60.00 Ry     beta= 0.70
     Davidson diagonalization with overlap
     ethr =  2.32E-08,  avg # of iterations =  9.2

     negative rho (up, down):  2.473E-05 1.378E-15

     total cpu time spent up to now is    18613.7 secs

     total energy              =      -1.04861191 Ry
     estimated scf accuracy    <       0.00009102 Ry

     total magnetization       =     1.00 Bohr mag/cell
     absolute magnetization    =     1.00 Bohr mag/cell

     iteration #985     ecut=    60.00 Ry     beta= 0.70
     Davidson diagonalization with overlap
     ethr =  2.32E-08,  avg # of iterations = 10.6

     negative rho (up, down):  2.489E-05 1.492E-15

     total cpu time spent up to now is    18633.7 secs

     total energy              =      -1.04857315 Ry
     estimated scf accuracy    <       0.00007654 Ry

     total magnetization       =     1.00 Bohr mag/cell
     absolute magnetization    =     1.00 Bohr mag/cell

     iteration #986     ecut=    60.00 Ry     beta= 0.70
     Davidson diagonalization with overlap
     ethr =  2.32E-08,  avg # of iterations =  9.2

     negative rho (up, down):  2.634E-05 1.336E-15

     total cpu time spent up to now is    18652.5 secs

     total energy              =      -1.04817669 Ry
     estimated scf accuracy    <       0.00045333 Ry

     total magnetization       =     1.00 Bohr mag/cell
     absolute magnetization    =     1.00 Bohr mag/cell

     iteration #987     ecut=    60.00 Ry     beta= 0.70
     Davidson diagonalization with overlap
     ethr =  2.32E-08,  avg # of iterations =  8.3

     negative rho (up, down):  2.672E-05 1.434E-15

     total cpu time spent up to now is    18671.4 secs

     total energy              =      -1.04819397 Ry
     estimated scf accuracy    <       0.00038908 Ry

     total magnetization       =     1.00 Bohr mag/cell
     absolute magnetization    =     1.00 Bohr mag/cell

     iteration #988     ecut=    60.00 Ry     beta= 0.70
     Davidson diagonalization with overlap
     ethr =  2.32E-08,  avg # of iterations =  8.8

     negative rho (up, down):  2.435E-05 1.422E-15

     total cpu time spent up to now is    18690.5 secs

     total energy              =      -1.04827189 Ry
     estimated scf accuracy    <       0.00002834 Ry

     total magnetization       =     1.00 Bohr mag/cell
     absolute magnetization    =     1.00 Bohr mag/cell

     iteration #989     ecut=    60.00 Ry     beta= 0.70
     Davidson diagonalization with overlap
     ethr =  2.32E-08,  avg # of iterations =  8.3

     negative rho (up, down):  3.061E-05 1.488E-15

     total cpu time spent up to now is    18708.4 secs

     total energy              =      -1.04843813 Ry
     estimated scf accuracy    <       0.00227251 Ry

     total magnetization       =     1.00 Bohr mag/cell
     absolute magnetization    =     1.00 Bohr mag/cell

     iteration #990     ecut=    60.00 Ry     beta= 0.70
     Davidson diagonalization with overlap
     ethr =  2.32E-08,  avg # of iterations =  8.2

     negative rho (up, down):  2.460E-05 1.478E-15

     total cpu time spent up to now is    18726.4 secs

     total energy              =      -1.04864111 Ry
     estimated scf accuracy    <       0.00005131 Ry

     total magnetization       =     1.00 Bohr mag/cell
     absolute magnetization    =     1.00 Bohr mag/cell

     iteration #991     ecut=    60.00 Ry     beta= 0.70
     Davidson diagonalization with overlap
     ethr =  2.32E-08,  avg # of iterations =  8.2

     negative rho (up, down):  2.413E-05 1.383E-15

     total cpu time spent up to now is    18744.5 secs

     total energy              =      -1.04825856 Ry
     estimated scf accuracy    <       0.00004433 Ry

     total magnetization       =     1.00 Bohr mag/cell
     absolute magnetization    =     1.00 Bohr mag/cell

     iteration #992     ecut=    60.00 Ry     beta= 0.70
     Davidson diagonalization with overlap
     ethr =  2.32E-08,  avg # of iterations =  7.5

     negative rho (up, down):  2.418E-05 1.410E-15

     total cpu time spent up to now is    18762.4 secs

     total energy              =      -1.04831304 Ry
     estimated scf accuracy    <       0.00000114 Ry

     total magnetization       =     1.00 Bohr mag/cell
     absolute magnetization    =     1.00 Bohr mag/cell

     iteration #993     ecut=    60.00 Ry     beta= 0.70
     Davidson diagonalization with overlap
     ethr =  2.32E-08,  avg # of iterations =  7.1

     negative rho (up, down):  2.470E-05 1.359E-15

     total cpu time spent up to now is    18780.0 secs

     total energy              =      -1.04834863 Ry
     estimated scf accuracy    <       0.00008782 Ry

     total magnetization       =     1.00 Bohr mag/cell
     absolute magnetization    =     1.00 Bohr mag/cell

     iteration #994     ecut=    60.00 Ry     beta= 0.70
     Davidson diagonalization with overlap
     ethr =  2.32E-08,  avg # of iterations =  9.5

     negative rho (up, down):  2.741E-05 1.380E-15

     total cpu time spent up to now is    18798.6 secs

     total energy              =      -1.04813524 Ry
     estimated scf accuracy    <       0.00084384 Ry

     total magnetization       =     1.00 Bohr mag/cell
     absolute magnetization    =     1.00 Bohr mag/cell

     iteration #995     ecut=    60.00 Ry     beta= 0.70
     Davidson diagonalization with overlap
     ethr =  2.32E-08,  avg # of iterations =  9.7

     negative rho (up, down):  2.863E-05 1.372E-15

     total cpu time spent up to now is    18817.8 secs

     total energy              =      -1.04826628 Ry
     estimated scf accuracy    <       0.00084841 Ry

     total magnetization       =     1.00 Bohr mag/cell
     absolute magnetization    =     1.00 Bohr mag/cell

     iteration #996     ecut=    60.00 Ry     beta= 0.70
     Davidson diagonalization with overlap
     ethr =  2.32E-08,  avg # of iterations = 10.4

     negative rho (up, down):  2.679E-05 1.415E-15

     total cpu time spent up to now is    18837.8 secs

     total energy              =      -1.04846294 Ry
     estimated scf accuracy    <       0.00025931 Ry

     total magnetization       =     1.00 Bohr mag/cell
     absolute magnetization    =     1.00 Bohr mag/cell

     iteration #997     ecut=    60.00 Ry     beta= 0.70
     Davidson diagonalization with overlap
     ethr =  2.32E-08,  avg # of iterations = 10.1

     negative rho (up, down):  3.087E-05 1.416E-15

     total cpu time spent up to now is    18857.0 secs

     total energy              =      -1.04812881 Ry
     estimated scf accuracy    <       0.00172537 Ry

     total magnetization       =     1.00 Bohr mag/cell
     absolute magnetization    =     1.00 Bohr mag/cell

     iteration #998     ecut=    60.00 Ry     beta= 0.70
     Davidson diagonalization with overlap
     ethr =  2.32E-08,  avg # of iterations =  8.9

     negative rho (up, down):  3.062E-05 1.373E-15

     total cpu time spent up to now is    18875.2 secs

     total energy              =      -1.04835506 Ry
     estimated scf accuracy    <       0.00111771 Ry

     total magnetization       =     1.00 Bohr mag/cell
     absolute magnetization    =     1.00 Bohr mag/cell

     iteration #999     ecut=    60.00 Ry     beta= 0.70
     Davidson diagonalization with overlap
     ethr =  2.32E-08,  avg # of iterations = 10.0

     negative rho (up, down):  3.356E-05 1.487E-15

     total cpu time spent up to now is    18894.9 secs

     total energy              =      -1.04873468 Ry
     estimated scf accuracy    <       0.00217363 Ry

     total magnetization       =     1.00 Bohr mag/cell
     absolute magnetization    =     1.00 Bohr mag/cell

     iteration #***     ecut=    60.00 Ry     beta= 0.70
     Davidson diagonalization with overlap
     ethr =  2.32E-08,  avg # of iterations = 11.9

     negative rho (up, down):  2.718E-05 1.585E-15

     total cpu time spent up to now is    18915.4 secs

     total energy              =      -1.04903658 Ry
     estimated scf accuracy    <       0.00015776 Ry

     total magnetization       =     1.00 Bohr mag/cell
     absolute magnetization    =     1.00 Bohr mag/cell

     End of self-consistent calculation

     convergence NOT achieved after *** iterations: stopping

     Writing output data file ./H_ESM_pn5.save/

     init_run     :     18.60s CPU     20.06s WALL (       1 calls)
     electrons    :  17454.41s CPU  18896.14s WALL (       1 calls)

     Called by init_run:
     wfcinit      :      1.04s CPU      1.30s WALL (       1 calls)
     potinit      :      7.02s CPU      7.72s WALL (       1 calls)
     hinit0       :      0.75s CPU      0.89s WALL (       1 calls)

     Called by electrons:
     c_bands      :   6704.35s CPU   6799.37s WALL (    1000 calls)
     sum_band     :   1703.40s CPU   1729.87s WALL (    1000 calls)
     v_of_rho     :   5524.57s CPU   6233.73s WALL (    1001 calls)
     newd         :    580.89s CPU    603.04s WALL (    1001 calls)
     mix_rho      :   1953.83s CPU   2448.49s WALL (    1000 calls)

     Called by c_bands:
     init_us_2    :      7.52s CPU      8.12s WALL (    6003 calls)
     cegterg      :   4317.67s CPU   4375.98s WALL (    3000 calls)

     Called by *egterg:
     cdiaghg      :     24.97s CPU     25.53s WALL (   21883 calls)
     h_psi        :   3785.05s CPU   3831.14s WALL (   21886 calls)
     s_psi        :      7.93s CPU      8.23s WALL (   21886 calls)
     g_psi        :      7.90s CPU      8.05s WALL (   18883 calls)

     Called by h_psi:
     h_psi:calbec :     30.15s CPU     30.65s WALL (   21886 calls)
     vloc_psi     :   3721.50s CPU   3766.49s WALL (   21886 calls)
     add_vuspsi   :     16.62s CPU     16.92s WALL (   21886 calls)

     General routines
     calbec       :     37.59s CPU     38.25s WALL (   24886 calls)
     fft          :   5833.95s CPU   6039.73s WALL (   25022 calls)
     ffts         :    313.42s CPU    316.91s WALL (    4002 calls)
     fftw         :   3502.96s CPU   3543.97s WALL (  134844 calls)
     interpolate  :    659.16s CPU    747.26s WALL (    2002 calls)
     davcio       :      5.93s CPU    275.62s WALL (   32891 calls)

     Parallel routines
     fft_scatt_xy :   1393.51s CPU   1411.81s WALL (  163868 calls)
     fft_scatt_yz :   3771.97s CPU   3824.06s WALL (  163868 calls)

     PWSCF        :      4h51m CPU      5h15m WALL


   This run was terminated on:   3:45:20   1Jul2022            

=------------------------------------------------------------------------------=
   JOB DONE.
=------------------------------------------------------------------------------=
