     Message from routine get_command_line:
     unexpected argument # 4     :-in

     Program PWSCF v.6.7MaX starts on  5Jul2022 at 19: 4: 8 

     This program is part of the open-source Quantum ESPRESSO suite
     for quantum simulation of materials; please cite
         "P. Giannozzi et al., J. Phys.:Condens. Matter 21 395502 (2009);
         "P. Giannozzi et al., J. Phys.:Condens. Matter 29 465901 (2017);
          URL http://www.quantum-espresso.org", 
     in publications or presentations arising from this work. More details at
     http://www.quantum-espresso.org/quote

     Parallel version (MPI), running on   120 processors

     MPI processes distributed on     1 nodes
     K-points division:     npool     =       8
     R & G space division:  proc/nbgrp/npool/nimage =      15
     Waiting for input...
     Reading input from standard input
Warning: card &CELL ignored
Warning: card / ignored

     Current dimensions of program PWSCF are:
     Max number of different atomic species (ntypx) = 10
     Max number of k-points (npk) =  40000
     Max angular momentum in pseudopotentials (lmaxx) =  3

     IMPORTANT: XC functional enforced from input :
     Exchange-correlation= PBE
                           (   1   4   3   4   0   0   0)
     Any further DFT definition will be discarded
     Please, verify this is what you really want


     -------------------------------------------------
     Parameters for Dispersion (Grimme-D2) Correction:
     -------------------------------------------------
       atom      VdW radius       C_6     

        H          1.892          4.857

     Subspace diagonalization in iterative solution of the eigenvalue problem:
     one sub-group per band group will be used
     scalapack distributed-memory algorithm (size of sub-group:  3*  3 procs)


     Parallelization info
     --------------------
     sticks:   dense  smooth     PW     G-vecs:    dense   smooth      PW
     Min        3636    1818    468               639190   225950   29545
     Max        3637    1819    470               639197   225953   29547
     Sum       54553   27281   7033              9587919  3389267  443191



     bravais-lattice index     =            0
     lattice parameter (alat)  =      37.7945  a.u.
     unit-cell volume          =   53986.6760 (a.u.)^3
     number of atoms/cell      =            1
     number of atomic types    =            1
     number of electrons       =         1.00
     number of Kohn-Sham states=            5
     kinetic-energy cutoff     =      60.0000  Ry
     charge density cutoff     =     480.0000  Ry
     scf convergence threshold =      1.0E-08
     mixing beta               =       0.7000
     number of iterations used =           10  plain     mixing
     energy convergence thresh.=      7.3E-07
     force convergence thresh. =      3.9E-04
     Exchange-correlation= PBE
                           (   1   4   3   4   0   0   0)
     nstep                     =           50


     Effective Screening Medium Method
     =================================
     Boundary Conditions: Metal-Slab-Metal
     field strength                   =    -0.05 Ry/a.u.
     grid points for fit at edges     =        4 


     celldm(1)=  37.794522  celldm(2)=   0.000000  celldm(3)=   0.000000
     celldm(4)=   0.000000  celldm(5)=   0.000000  celldm(6)=   0.000000

     crystal axes: (cart. coord. in units of alat)
               a(1) = (   1.000000   0.000000   0.000000 )  
               a(2) = (   0.000000   1.000000   0.000000 )  
               a(3) = (   0.000000   0.000000   1.000000 )  

     reciprocal axes: (cart. coord. in units 2 pi/alat)
               b(1) = (  1.000000  0.000000  0.000000 )  
               b(2) = (  0.000000  1.000000  0.000000 )  
               b(3) = (  0.000000  0.000000  1.000000 )  


     PseudoPot. # 1 for H  read from file:
     ../../SSSP/H.pbe-rrkjus_psl.1.0.0.UPF
     MD5 check sum: f52b6d4d1c606e5624b1dc7b2218f220
     Pseudo is Ultrasoft, Zval =  1.0
     Generated using "atomic" code by A. Dal Corso  v.5.1
     Using radial grid of  929 points,  2 beta functions with: 
                l(1) =   0
                l(2) =   0
     Q(r) pseudized with 0 coefficients 


     atomic species   valence    mass     pseudopotential
        H              1.00     1.00800     H ( 1.00)

     Starting magnetic structure 
     atomic species   magnetization
        H            0.100

     No symmetry found



   Cartesian axes

     site n.     atom                  positions (alat units)
         1           H   tau(   1) = (   0.5000000   0.5000000   0.0000000  )

     number of k points=    10  Methfessel-Paxton smearing, width (Ry)=  0.0100
                       cart. coord. in units 2pi/alat
        k(    1) = (   0.0000000   0.0000000   0.0000000), wk =   0.0625000
        k(    2) = (   0.0000000   0.2500000   0.0000000), wk =   0.1250000
        k(    3) = (   0.0000000  -0.5000000   0.0000000), wk =   0.0625000
        k(    4) = (   0.2500000   0.0000000   0.0000000), wk =   0.1250000
        k(    5) = (   0.2500000   0.2500000   0.0000000), wk =   0.1250000
        k(    6) = (   0.2500000  -0.5000000   0.0000000), wk =   0.1250000
        k(    7) = (   0.2500000  -0.2500000   0.0000000), wk =   0.1250000
        k(    8) = (  -0.5000000   0.0000000   0.0000000), wk =   0.0625000
        k(    9) = (  -0.5000000   0.2500000   0.0000000), wk =   0.1250000
        k(   10) = (  -0.5000000  -0.5000000   0.0000000), wk =   0.0625000

     Dense  grid:  9587919 G-vectors     FFT dimensions: ( 270, 270, 270)

     Smooth grid:  3389267 G-vectors     FFT dimensions: ( 192, 192, 192)

     Estimated max dynamical RAM per process >     315.63 MB

     Estimated total dynamical RAM >      36.99 GB
     Generating pointlists ...
     new r_m :   0.4125 (alat units) 15.5902 (a.u.) for type    1

     Initial potential from superposition of free atoms

     starting charge    0.99999, renormalised to    1.00000

     negative rho (up, down):  1.968E-05 1.610E-05
     Starting wfcs are    1 randomized atomic wfcs +    4 random wfcs

     total cpu time spent up to now is       20.3 secs

     Self-consistent Calculation

     iteration #  1     ecut=    60.00 Ry     beta= 0.70
     Davidson diagonalization with overlap
     c_bands:  3 eigenvalues not converged
     c_bands:  4 eigenvalues not converged
     c_bands:  2 eigenvalues not converged
     ethr =  1.00E-04,  avg # of iterations = 20.0

     negative rho (up, down):  2.508E-06 1.989E-06

     total cpu time spent up to now is       52.5 secs

     total energy              =      -0.87512718 Ry
     estimated scf accuracy    <       0.54785484 Ry

     total magnetization       =    -0.01 Bohr mag/cell
     absolute magnetization    =     0.02 Bohr mag/cell

     iteration #  2     ecut=    60.00 Ry     beta= 0.70
     Davidson diagonalization with overlap
     ethr =  1.00E-02,  avg # of iterations =  1.0

     negative rho (up, down):  1.490E-05 1.202E-05

     total cpu time spent up to now is       66.3 secs

     total energy              =      -0.86037927 Ry
     estimated scf accuracy    <       0.05125081 Ry

     total magnetization       =    -0.06 Bohr mag/cell
     absolute magnetization    =     0.06 Bohr mag/cell

     iteration #  3     ecut=    60.00 Ry     beta= 0.70
     Davidson diagonalization with overlap
     ethr =  5.13E-03,  avg # of iterations =  1.0

     negative rho (up, down):  1.724E-02 7.091E-03

     total cpu time spent up to now is       79.8 secs

     total energy              =      -0.86480416 Ry
     estimated scf accuracy    <       0.00412973 Ry

     total magnetization       =    -0.24 Bohr mag/cell
     absolute magnetization    =     0.24 Bohr mag/cell

     iteration #  4     ecut=    60.00 Ry     beta= 0.70
     Davidson diagonalization with overlap
     ethr =  4.13E-04,  avg # of iterations =  6.1

     negative rho (up, down):  2.891E-06 3.028E-06

     total cpu time spent up to now is       96.1 secs

     total energy              =      -0.92253075 Ry
     estimated scf accuracy    <       0.01001429 Ry

     total magnetization       =    -0.80 Bohr mag/cell
     absolute magnetization    =     1.05 Bohr mag/cell

     iteration #  5     ecut=    60.00 Ry     beta= 0.70
     Davidson diagonalization with overlap
     ethr =  4.13E-04,  avg # of iterations =  2.4

     negative rho (up, down):  4.280E-05 2.041E-05

     total cpu time spent up to now is      110.6 secs

     total energy              =      -0.99639868 Ry
     estimated scf accuracy    <       0.04725659 Ry

     total magnetization       =    -0.50 Bohr mag/cell
     absolute magnetization    =     0.75 Bohr mag/cell

     iteration #  6     ecut=    60.00 Ry     beta= 0.70
     Davidson diagonalization with overlap
     ethr =  4.13E-04,  avg # of iterations =  1.0

     negative rho (up, down):  1.344E-01 8.355E-02

     total cpu time spent up to now is      124.7 secs

     total energy              =      -1.21482254 Ry
     estimated scf accuracy    <       0.03422855 Ry

     total magnetization       =    -0.50 Bohr mag/cell
     absolute magnetization    =     0.75 Bohr mag/cell

     iteration #  7     ecut=    60.00 Ry     beta= 0.70
     Davidson diagonalization with overlap
     ethr =  4.13E-04,  avg # of iterations =  4.3

     negative rho (up, down):  1.761E-01 7.890E-02

     total cpu time spent up to now is      140.6 secs

     total energy              =      -1.85709759 Ry
     estimated scf accuracy    <       1.10122350 Ry

     total magnetization       =    -1.00 Bohr mag/cell
     absolute magnetization    =     1.00 Bohr mag/cell

     iteration #  8     ecut=    60.00 Ry     beta= 0.70
     Davidson diagonalization with overlap
     ethr =  4.13E-04,  avg # of iterations =  1.2

     negative rho (up, down):  2.066E-03 2.579E-02

     total cpu time spent up to now is      155.2 secs

     total energy              =      -1.16754178 Ry
     estimated scf accuracy    <       1.17181247 Ry

     total magnetization       =    -1.00 Bohr mag/cell
     absolute magnetization    =     1.00 Bohr mag/cell

     iteration #  9     ecut=    60.00 Ry     beta= 0.70
     Davidson diagonalization with overlap
     ethr =  4.13E-04,  avg # of iterations =  2.0

     negative rho (up, down):  1.246E-01 8.117E-02

     total cpu time spent up to now is      170.0 secs

     total energy              =      -1.70340728 Ry
     estimated scf accuracy    <       0.70352952 Ry

     total magnetization       =     0.25 Bohr mag/cell
     absolute magnetization    =     0.25 Bohr mag/cell

     iteration # 10     ecut=    60.00 Ry     beta= 0.70
     Davidson diagonalization with overlap
     ethr =  4.13E-04,  avg # of iterations =  3.0

     negative rho (up, down):  3.717E-05 5.964E-04

     total cpu time spent up to now is      185.1 secs

     total energy              =      -1.10962357 Ry
     estimated scf accuracy    <       1.08279069 Ry

     total magnetization       =    -1.00 Bohr mag/cell
     absolute magnetization    =     1.00 Bohr mag/cell

     iteration # 11     ecut=    60.00 Ry     beta= 0.70
     Davidson diagonalization with overlap
     ethr =  4.13E-04,  avg # of iterations =  2.2

     negative rho (up, down):  4.196E-04 1.547E-04

     total cpu time spent up to now is      200.0 secs

     total energy              =      -1.24339630 Ry
     estimated scf accuracy    <       0.59254854 Ry

     total magnetization       =     1.00 Bohr mag/cell
     absolute magnetization    =     1.00 Bohr mag/cell

     iteration # 12     ecut=    60.00 Ry     beta= 0.70
     Davidson diagonalization with overlap
     ethr =  4.13E-04,  avg # of iterations =  1.0

     negative rho (up, down):  5.540E-04 3.904E-05

     total cpu time spent up to now is      214.5 secs

     total energy              =      -1.24535966 Ry
     estimated scf accuracy    <       0.59469506 Ry

     total magnetization       =     1.00 Bohr mag/cell
     absolute magnetization    =     1.00 Bohr mag/cell

     iteration # 13     ecut=    60.00 Ry     beta= 0.70
     Davidson diagonalization with overlap
     ethr =  4.13E-04,  avg # of iterations =  1.0

     negative rho (up, down):  5.891E-04 6.522E-06

     total cpu time spent up to now is      229.0 secs

     total energy              =      -1.24491558 Ry
     estimated scf accuracy    <       0.61062123 Ry

     total magnetization       =     1.00 Bohr mag/cell
     absolute magnetization    =     1.00 Bohr mag/cell

     iteration # 14     ecut=    60.00 Ry     beta= 0.70
     Davidson diagonalization with overlap
     ethr =  4.13E-04,  avg # of iterations =  1.0

     negative rho (up, down):  1.333E-02 1.861E-06

     total cpu time spent up to now is      243.2 secs

     total energy              =      -1.24193930 Ry
     estimated scf accuracy    <       0.61192231 Ry

     total magnetization       =     1.00 Bohr mag/cell
     absolute magnetization    =     1.00 Bohr mag/cell

     iteration # 15     ecut=    60.00 Ry     beta= 0.70
     Davidson diagonalization with overlap
     ethr =  4.13E-04,  avg # of iterations =  1.0

     negative rho (up, down):  2.132E-02 2.663E-02

     total cpu time spent up to now is      257.3 secs

     total energy              =      -1.20640442 Ry
     estimated scf accuracy    <       0.57741643 Ry

     total magnetization       =     1.00 Bohr mag/cell
     absolute magnetization    =     1.00 Bohr mag/cell

     iteration # 16     ecut=    60.00 Ry     beta= 0.70
     Davidson diagonalization with overlap
     ethr =  4.13E-04,  avg # of iterations =  1.0

     negative rho (up, down):  1.109E-02 5.660E-02

     total cpu time spent up to now is      271.5 secs

     total energy              =      -1.11026384 Ry
     estimated scf accuracy    <       0.48892046 Ry

     total magnetization       =     1.00 Bohr mag/cell
     absolute magnetization    =     1.00 Bohr mag/cell

     iteration # 17     ecut=    60.00 Ry     beta= 0.70
     Davidson diagonalization with overlap
     ethr =  4.13E-04,  avg # of iterations =  1.5

     negative rho (up, down):  6.068E-03 2.635E-02

     total cpu time spent up to now is      285.7 secs

     total energy              =      -0.92939612 Ry
     estimated scf accuracy    <       0.37197917 Ry

     total magnetization       =     0.91 Bohr mag/cell
     absolute magnetization    =     0.91 Bohr mag/cell

     iteration # 18     ecut=    60.00 Ry     beta= 0.70
     Davidson diagonalization with overlap
     ethr =  4.13E-04,  avg # of iterations =  9.1

     negative rho (up, down):  2.373E-03 2.869E-02

     total cpu time spent up to now is      304.0 secs

     total energy              =      -1.16028822 Ry
     estimated scf accuracy    <       0.69264233 Ry

     total magnetization       =    -0.02 Bohr mag/cell
     absolute magnetization    =     0.22 Bohr mag/cell

     iteration # 19     ecut=    60.00 Ry     beta= 0.70
     Davidson diagonalization with overlap
     ethr =  4.13E-04,  avg # of iterations =  1.9

     negative rho (up, down):  1.872E-03 1.895E-04

     total cpu time spent up to now is      319.0 secs

     total energy              =      -1.12441771 Ry
     estimated scf accuracy    <       0.46672452 Ry

     total magnetization       =    -0.27 Bohr mag/cell
     absolute magnetization    =     0.27 Bohr mag/cell

     iteration # 20     ecut=    60.00 Ry     beta= 0.70
     Davidson diagonalization with overlap
     ethr =  4.13E-04,  avg # of iterations =  1.9

     negative rho (up, down):  1.908E-03 1.707E-04

     total cpu time spent up to now is      334.0 secs

     total energy              =      -1.12119522 Ry
     estimated scf accuracy    <       0.42747066 Ry

     total magnetization       =    -0.05 Bohr mag/cell
     absolute magnetization    =     0.17 Bohr mag/cell

     iteration # 21     ecut=    60.00 Ry     beta= 0.70
     Davidson diagonalization with overlap
     ethr =  4.13E-04,  avg # of iterations =  1.0

     negative rho (up, down):  1.276E-01 3.197E-01

     total cpu time spent up to now is      348.1 secs

     WARNING: integrated charge=     0.99999989, expected=     1.00000000

     total energy              =      -1.70830918 Ry
     estimated scf accuracy    <       0.41909498 Ry

     total magnetization       =    -0.13 Bohr mag/cell
     absolute magnetization    =     0.15 Bohr mag/cell

     iteration # 22     ecut=    60.00 Ry     beta= 0.70
     Davidson diagonalization with overlap
     ethr =  4.13E-04,  avg # of iterations =  2.4

     negative rho (up, down):  7.624E-02 7.639E-01

     total cpu time spent up to now is      362.8 secs

     total energy              =      -2.38724425 Ry
     estimated scf accuracy    <       1.18382720 Ry

     total magnetization       =     0.41 Bohr mag/cell
     absolute magnetization    =     0.41 Bohr mag/cell

     iteration # 23     ecut=    60.00 Ry     beta= 0.70
     Davidson diagonalization with overlap
     ethr =  4.13E-04,  avg # of iterations =  1.1

     negative rho (up, down):  2.250E-02 3.422E-01

     total cpu time spent up to now is      377.0 secs

     total energy              =      -0.91650737 Ry
     estimated scf accuracy    <       1.92593554 Ry

     total magnetization       =     1.07 Bohr mag/cell
     absolute magnetization    =     1.07 Bohr mag/cell

     iteration # 24     ecut=    60.00 Ry     beta= 0.70
     Davidson diagonalization with overlap
     ethr =  4.13E-04,  avg # of iterations =  4.4

     negative rho (up, down):  3.213E-02 1.886E-01

     total cpu time spent up to now is      392.7 secs

     total energy              =      -0.97171312 Ry
     estimated scf accuracy    <       0.12721529 Ry

     total magnetization       =     1.00 Bohr mag/cell
     absolute magnetization    =     1.00 Bohr mag/cell

     iteration # 25     ecut=    60.00 Ry     beta= 0.70
     Davidson diagonalization with overlap
     ethr =  4.13E-04,  avg # of iterations =  2.0

     negative rho (up, down):  3.094E-02 2.035E-01

     total cpu time spent up to now is      407.3 secs

     total energy              =      -0.96141287 Ry
     estimated scf accuracy    <       0.18353632 Ry

     total magnetization       =     1.00 Bohr mag/cell
     absolute magnetization    =     1.00 Bohr mag/cell

     iteration # 26     ecut=    60.00 Ry     beta= 0.70
     Davidson diagonalization with overlap
     ethr =  4.13E-04,  avg # of iterations =  1.0

     negative rho (up, down):  2.909E-02 1.786E-01

     total cpu time spent up to now is      421.5 secs

     total energy              =      -0.94050037 Ry
     estimated scf accuracy    <       0.16792006 Ry

     total magnetization       =     1.00 Bohr mag/cell
     absolute magnetization    =     1.00 Bohr mag/cell

     iteration # 27     ecut=    60.00 Ry     beta= 0.70
     Davidson diagonalization with overlap
     ethr =  4.13E-04,  avg # of iterations =  3.1

     negative rho (up, down):  2.355E-02 1.459E-01

     total cpu time spent up to now is      437.2 secs

     total energy              =      -0.96985998 Ry
     estimated scf accuracy    <       0.03471395 Ry

     total magnetization       =     1.00 Bohr mag/cell
     absolute magnetization    =     1.00 Bohr mag/cell

     iteration # 28     ecut=    60.00 Ry     beta= 0.70
     Davidson diagonalization with overlap
     ethr =  4.13E-04,  avg # of iterations =  1.1

     negative rho (up, down):  5.396E-03 7.826E-02

     total cpu time spent up to now is      451.3 secs

     total energy              =      -0.96292397 Ry
     estimated scf accuracy    <       0.01888167 Ry

     total magnetization       =     1.00 Bohr mag/cell
     absolute magnetization    =     1.00 Bohr mag/cell

     iteration # 29     ecut=    60.00 Ry     beta= 0.70
     Davidson diagonalization with overlap
     ethr =  4.13E-04,  avg # of iterations =  1.1

     negative rho (up, down):  1.787E-03 6.972E-02

     total cpu time spent up to now is      465.5 secs

     total energy              =      -0.96778854 Ry
     estimated scf accuracy    <       0.00568682 Ry

     total magnetization       =     1.00 Bohr mag/cell
     absolute magnetization    =     1.00 Bohr mag/cell

     iteration # 30     ecut=    60.00 Ry     beta= 0.70
     Davidson diagonalization with overlap
     ethr =  4.13E-04,  avg # of iterations =  1.0

     negative rho (up, down):  4.029E-05 3.606E-02

     total cpu time spent up to now is      479.6 secs

     total energy              =      -0.96928866 Ry
     estimated scf accuracy    <       0.00779147 Ry

     total magnetization       =     1.00 Bohr mag/cell
     absolute magnetization    =     1.00 Bohr mag/cell

     iteration # 31     ecut=    60.00 Ry     beta= 0.70
     Davidson diagonalization with overlap
     ethr =  4.13E-04,  avg # of iterations =  1.2

     negative rho (up, down):  8.756E-04 3.935E-02

     total cpu time spent up to now is      493.9 secs

     total energy              =      -0.98932542 Ry
     estimated scf accuracy    <       0.00185667 Ry

     total magnetization       =     1.00 Bohr mag/cell
     absolute magnetization    =     1.00 Bohr mag/cell

     iteration # 32     ecut=    60.00 Ry     beta= 0.70
     Davidson diagonalization with overlap
     ethr =  1.86E-04,  avg # of iterations =  4.2

     negative rho (up, down):  2.254E-04 2.643E-02

     total cpu time spent up to now is      509.7 secs

     total energy              =      -1.13403990 Ry
     estimated scf accuracy    <       0.18916289 Ry

     total magnetization       =     1.00 Bohr mag/cell
     absolute magnetization    =     1.00 Bohr mag/cell

     iteration # 33     ecut=    60.00 Ry     beta= 0.70
     Davidson diagonalization with overlap
     ethr =  1.86E-04,  avg # of iterations =  2.1

     negative rho (up, down):  1.901E-03 2.481E-02

     total cpu time spent up to now is      524.4 secs

     total energy              =      -1.17359534 Ry
     estimated scf accuracy    <       0.29921972 Ry

     total magnetization       =     1.00 Bohr mag/cell
     absolute magnetization    =     1.00 Bohr mag/cell

     iteration # 34     ecut=    60.00 Ry     beta= 0.70
     Davidson diagonalization with overlap
     ethr =  1.86E-04,  avg # of iterations =  1.1

     negative rho (up, down):  3.694E-04 2.273E-02

     total cpu time spent up to now is      538.5 secs

     total energy              =      -1.15563743 Ry
     estimated scf accuracy    <       0.32751357 Ry

     total magnetization       =     1.00 Bohr mag/cell
     absolute magnetization    =     1.00 Bohr mag/cell

     iteration # 35     ecut=    60.00 Ry     beta= 0.70
     Davidson diagonalization with overlap
     ethr =  1.86E-04,  avg # of iterations =  1.0

     negative rho (up, down):  3.055E-03 1.404E-02

     total cpu time spent up to now is      552.5 secs

     total energy              =      -1.15893537 Ry
     estimated scf accuracy    <       0.27776028 Ry

     total magnetization       =     1.00 Bohr mag/cell
     absolute magnetization    =     1.00 Bohr mag/cell

     iteration # 36     ecut=    60.00 Ry     beta= 0.70
     Davidson diagonalization with overlap
     ethr =  1.86E-04,  avg # of iterations =  1.0

     negative rho (up, down):  9.033E-04 2.344E-02

     total cpu time spent up to now is      566.7 secs

     total energy              =      -1.20078116 Ry
     estimated scf accuracy    <       0.28334911 Ry

     total magnetization       =     1.00 Bohr mag/cell
     absolute magnetization    =     1.00 Bohr mag/cell

     iteration # 37     ecut=    60.00 Ry     beta= 0.70
     Davidson diagonalization with overlap
     ethr =  1.86E-04,  avg # of iterations =  1.5

     negative rho (up, down):  1.370E-03 1.380E-02

     total cpu time spent up to now is      581.0 secs

     total energy              =      -1.18228077 Ry
     estimated scf accuracy    <       0.31867057 Ry

     total magnetization       =     1.00 Bohr mag/cell
     absolute magnetization    =     1.00 Bohr mag/cell

     iteration # 38     ecut=    60.00 Ry     beta= 0.70
     Davidson diagonalization with overlap
     ethr =  1.86E-04,  avg # of iterations =  1.5

     negative rho (up, down):  1.341E-03 1.289E-02

     total cpu time spent up to now is      595.3 secs

     total energy              =      -1.20481771 Ry
     estimated scf accuracy    <       0.32024476 Ry

     total magnetization       =     1.00 Bohr mag/cell
     absolute magnetization    =     1.00 Bohr mag/cell

     iteration # 39     ecut=    60.00 Ry     beta= 0.70
     Davidson diagonalization with overlap
     ethr =  1.86E-04,  avg # of iterations =  1.0

     negative rho (up, down):  1.861E-03 1.181E-02

     total cpu time spent up to now is      609.4 secs

     total energy              =      -1.20847257 Ry
     estimated scf accuracy    <       0.32805105 Ry

     total magnetization       =     1.00 Bohr mag/cell
     absolute magnetization    =     1.00 Bohr mag/cell

     iteration # 40     ecut=    60.00 Ry     beta= 0.70
     Davidson diagonalization with overlap
     ethr =  1.86E-04,  avg # of iterations =  1.0

     negative rho (up, down):  1.732E-03 2.826E-03

     total cpu time spent up to now is      623.6 secs

     total energy              =      -1.19100401 Ry
     estimated scf accuracy    <       0.33300745 Ry

     total magnetization       =     1.00 Bohr mag/cell
     absolute magnetization    =     1.00 Bohr mag/cell

     iteration # 41     ecut=    60.00 Ry     beta= 0.70
     Davidson diagonalization with overlap
     ethr =  1.86E-04,  avg # of iterations =  1.2

     negative rho (up, down):  2.552E-03 1.486E-03

     total cpu time spent up to now is      637.9 secs

     total energy              =      -1.14321450 Ry
     estimated scf accuracy    <       0.29769636 Ry

     total magnetization       =     1.00 Bohr mag/cell
     absolute magnetization    =     1.00 Bohr mag/cell

     iteration # 42     ecut=    60.00 Ry     beta= 0.70
     Davidson diagonalization with overlap
     ethr =  1.86E-04,  avg # of iterations =  2.0

     negative rho (up, down):  6.645E-03 4.436E-03

     total cpu time spent up to now is      652.5 secs

     total energy              =      -1.01151967 Ry
     estimated scf accuracy    <       0.21954129 Ry

     total magnetization       =     1.00 Bohr mag/cell
     absolute magnetization    =     1.00 Bohr mag/cell

     iteration # 43     ecut=    60.00 Ry     beta= 0.70
     Davidson diagonalization with overlap
     ethr =  1.86E-04,  avg # of iterations =  3.0

     negative rho (up, down):  2.786E-03 1.899E-03

     total cpu time spent up to now is      667.7 secs

     total energy              =      -1.08711728 Ry
     estimated scf accuracy    <       0.51780423 Ry

     total magnetization       =     1.00 Bohr mag/cell
     absolute magnetization    =     1.00 Bohr mag/cell

     iteration # 44     ecut=    60.00 Ry     beta= 0.70
     Davidson diagonalization with overlap
     ethr =  1.86E-04,  avg # of iterations =  1.4

     negative rho (up, down):  8.250E-03 1.785E-03

     total cpu time spent up to now is      682.0 secs

     total energy              =      -1.09062809 Ry
     estimated scf accuracy    <       0.32791935 Ry

     total magnetization       =     1.01 Bohr mag/cell
     absolute magnetization    =     1.01 Bohr mag/cell

     iteration # 45     ecut=    60.00 Ry     beta= 0.70
     Davidson diagonalization with overlap
     ethr =  1.86E-04,  avg # of iterations =  1.0

     negative rho (up, down):  3.311E-03 6.458E-04

     total cpu time spent up to now is      696.2 secs

     total energy              =      -1.04606981 Ry
     estimated scf accuracy    <       0.39024042 Ry

     total magnetization       =     1.00 Bohr mag/cell
     absolute magnetization    =     1.00 Bohr mag/cell

     iteration # 46     ecut=    60.00 Ry     beta= 0.70
     Davidson diagonalization with overlap
     ethr =  1.86E-04,  avg # of iterations =  1.4

     negative rho (up, down):  7.956E-04 2.420E-04

     total cpu time spent up to now is      710.5 secs

     total energy              =      -1.06883423 Ry
     estimated scf accuracy    <       0.00284294 Ry

     total magnetization       =     1.00 Bohr mag/cell
     absolute magnetization    =     1.00 Bohr mag/cell

     iteration # 47     ecut=    60.00 Ry     beta= 0.70
     Davidson diagonalization with overlap
     ethr =  1.86E-04,  avg # of iterations =  1.4

     negative rho (up, down):  1.644E-03 2.330E-04

     total cpu time spent up to now is      724.6 secs

     total energy              =      -1.05769728 Ry
     estimated scf accuracy    <       0.02292107 Ry

     total magnetization       =     1.00 Bohr mag/cell
     absolute magnetization    =     1.00 Bohr mag/cell

     iteration # 48     ecut=    60.00 Ry     beta= 0.70
     Davidson diagonalization with overlap
     ethr =  1.86E-04,  avg # of iterations =  1.4

     negative rho (up, down):  1.878E-03 2.871E-04

     total cpu time spent up to now is      738.9 secs

     total energy              =      -1.05730922 Ry
     estimated scf accuracy    <       0.02119161 Ry

     total magnetization       =     1.00 Bohr mag/cell
     absolute magnetization    =     1.00 Bohr mag/cell

     iteration # 49     ecut=    60.00 Ry     beta= 0.70
     Davidson diagonalization with overlap
     ethr =  1.86E-04,  avg # of iterations =  1.0

     negative rho (up, down):  1.155E-03 1.354E-04

     total cpu time spent up to now is      753.0 secs

     total energy              =      -1.05890886 Ry
     estimated scf accuracy    <       0.02065967 Ry

     total magnetization       =     1.00 Bohr mag/cell
     absolute magnetization    =     1.00 Bohr mag/cell

     iteration # 50     ecut=    60.00 Ry     beta= 0.70
     Davidson diagonalization with overlap
     ethr =  1.86E-04,  avg # of iterations =  1.0

     negative rho (up, down):  1.379E-03 7.678E-04

     total cpu time spent up to now is      767.3 secs

     total energy              =      -1.07672019 Ry
     estimated scf accuracy    <       0.02980360 Ry

     total magnetization       =     1.00 Bohr mag/cell
     absolute magnetization    =     1.00 Bohr mag/cell

     iteration # 51     ecut=    60.00 Ry     beta= 0.70
     Davidson diagonalization with overlap
     ethr =  1.86E-04,  avg # of iterations =  3.0

     negative rho (up, down):  2.064E-03 2.256E-04

     total cpu time spent up to now is      782.5 secs

     total energy              =      -1.07888869 Ry
     estimated scf accuracy    <       0.03084570 Ry

     total magnetization       =     1.00 Bohr mag/cell
     absolute magnetization    =     1.00 Bohr mag/cell

     iteration # 52     ecut=    60.00 Ry     beta= 0.70
     Davidson diagonalization with overlap
     ethr =  1.86E-04,  avg # of iterations =  3.6

     negative rho (up, down):  1.721E-03 5.813E-04

     total cpu time spent up to now is      798.2 secs

     total energy              =      -1.08015208 Ry
     estimated scf accuracy    <       0.03038746 Ry

     total magnetization       =     1.00 Bohr mag/cell
     absolute magnetization    =     1.00 Bohr mag/cell

     iteration # 53     ecut=    60.00 Ry     beta= 0.70
     Davidson diagonalization with overlap
     ethr =  1.86E-04,  avg # of iterations =  2.6

     negative rho (up, down):  1.753E-03 2.576E-04

     total cpu time spent up to now is      814.0 secs

     total energy              =      -1.08288411 Ry
     estimated scf accuracy    <       0.02945822 Ry

     total magnetization       =     1.00 Bohr mag/cell
     absolute magnetization    =     1.00 Bohr mag/cell

     iteration # 54     ecut=    60.00 Ry     beta= 0.70
     Davidson diagonalization with overlap
     ethr =  1.86E-04,  avg # of iterations =  2.0

     negative rho (up, down):  2.537E-04 3.012E-04

     total cpu time spent up to now is      828.9 secs

     total energy              =      -1.06743258 Ry
     estimated scf accuracy    <       0.03476651 Ry

     total magnetization       =     1.00 Bohr mag/cell
     absolute magnetization    =     1.00 Bohr mag/cell

     iteration # 55     ecut=    60.00 Ry     beta= 0.70
     Davidson diagonalization with overlap
     ethr =  1.86E-04,  avg # of iterations =  2.8

     negative rho (up, down):  8.486E-05 2.053E-04

     total cpu time spent up to now is      843.9 secs

     total energy              =      -1.06839158 Ry
     estimated scf accuracy    <       0.01982130 Ry

     total magnetization       =     1.00 Bohr mag/cell
     absolute magnetization    =     1.00 Bohr mag/cell

     iteration # 56     ecut=    60.00 Ry     beta= 0.70
     Davidson diagonalization with overlap
     ethr =  1.86E-04,  avg # of iterations =  2.7

     negative rho (up, down):  4.590E-05 1.434E-04

     total cpu time spent up to now is      859.1 secs

     total energy              =      -1.06898686 Ry
     estimated scf accuracy    <       0.01819777 Ry

     total magnetization       =     1.00 Bohr mag/cell
     absolute magnetization    =     1.00 Bohr mag/cell

     iteration # 57     ecut=    60.00 Ry     beta= 0.70
     Davidson diagonalization with overlap
     ethr =  1.86E-04,  avg # of iterations =  3.4

     negative rho (up, down):  9.103E-05 1.381E-04

     total cpu time spent up to now is      874.3 secs

     total energy              =      -1.06718917 Ry
     estimated scf accuracy    <       0.03859577 Ry

     total magnetization       =     1.00 Bohr mag/cell
     absolute magnetization    =     1.00 Bohr mag/cell

     iteration # 58     ecut=    60.00 Ry     beta= 0.70
     Davidson diagonalization with overlap
     ethr =  1.86E-04,  avg # of iterations =  1.6

     negative rho (up, down):  7.390E-05 1.529E-04

     total cpu time spent up to now is      888.7 secs

     total energy              =      -1.07151183 Ry
     estimated scf accuracy    <       0.00231607 Ry

     total magnetization       =     1.00 Bohr mag/cell
     absolute magnetization    =     1.00 Bohr mag/cell

     iteration # 59     ecut=    60.00 Ry     beta= 0.70
     Davidson diagonalization with overlap
     ethr =  1.86E-04,  avg # of iterations =  3.5

     negative rho (up, down):  1.424E-04 1.253E-04

     total cpu time spent up to now is      904.4 secs

     total energy              =      -1.07050358 Ry
     estimated scf accuracy    <       0.09124259 Ry

     total magnetization       =     1.00 Bohr mag/cell
     absolute magnetization    =     1.00 Bohr mag/cell

     iteration # 60     ecut=    60.00 Ry     beta= 0.70
     Davidson diagonalization with overlap
     ethr =  1.86E-04,  avg # of iterations =  3.0

     negative rho (up, down):  8.027E-05 1.723E-04

     total cpu time spent up to now is      919.7 secs

     total energy              =      -1.07185202 Ry
     estimated scf accuracy    <       0.00185861 Ry

     total magnetization       =     1.00 Bohr mag/cell
     absolute magnetization    =     1.00 Bohr mag/cell

     iteration # 61     ecut=    60.00 Ry     beta= 0.70
     Davidson diagonalization with overlap
     ethr =  1.86E-04,  avg # of iterations =  1.1

     negative rho (up, down):  2.043E-04 1.945E-05

     total cpu time spent up to now is      933.9 secs

     total energy              =      -1.05414954 Ry
     estimated scf accuracy    <       0.22064491 Ry

     total magnetization       =     1.00 Bohr mag/cell
     absolute magnetization    =     1.00 Bohr mag/cell

     iteration # 62     ecut=    60.00 Ry     beta= 0.70
     Davidson diagonalization with overlap
     ethr =  1.86E-04,  avg # of iterations =  5.9

     negative rho (up, down):  2.671E-05 2.869E-05

     total cpu time spent up to now is      951.3 secs

     total energy              =      -1.06759632 Ry
     estimated scf accuracy    <       0.01754530 Ry

     total magnetization       =     1.00 Bohr mag/cell
     absolute magnetization    =     1.00 Bohr mag/cell

     iteration # 63     ecut=    60.00 Ry     beta= 0.70
     Davidson diagonalization with overlap
     ethr =  1.86E-04,  avg # of iterations =  1.6

     negative rho (up, down):  6.453E-05 5.994E-05

     total cpu time spent up to now is      965.8 secs

     total energy              =      -1.06703084 Ry
     estimated scf accuracy    <       0.01910879 Ry

     total magnetization       =     1.00 Bohr mag/cell
     absolute magnetization    =     1.00 Bohr mag/cell

     iteration # 64     ecut=    60.00 Ry     beta= 0.70
     Davidson diagonalization with overlap
     ethr =  1.86E-04,  avg # of iterations =  3.2

     negative rho (up, down):  6.521E-05 7.476E-05

     total cpu time spent up to now is      981.7 secs

     total energy              =      -1.06666098 Ry
     estimated scf accuracy    <       0.01034326 Ry

     total magnetization       =     1.00 Bohr mag/cell
     absolute magnetization    =     1.00 Bohr mag/cell

     iteration # 65     ecut=    60.00 Ry     beta= 0.70
     Davidson diagonalization with overlap
     ethr =  1.86E-04,  avg # of iterations =  1.1

     negative rho (up, down):  2.977E-05 6.504E-05

     total cpu time spent up to now is      995.9 secs

     total energy              =      -1.06752648 Ry
     estimated scf accuracy    <       0.00068342 Ry

     total magnetization       =     1.00 Bohr mag/cell
     absolute magnetization    =     1.00 Bohr mag/cell

     iteration # 66     ecut=    60.00 Ry     beta= 0.70
     Davidson diagonalization with overlap
     ethr =  6.83E-05,  avg # of iterations =  3.4

     negative rho (up, down):  7.231E-05 4.135E-05

     total cpu time spent up to now is     1011.0 secs

     total energy              =      -1.06609930 Ry
     estimated scf accuracy    <       0.01832398 Ry

     total magnetization       =     1.00 Bohr mag/cell
     absolute magnetization    =     1.00 Bohr mag/cell

     iteration # 67     ecut=    60.00 Ry     beta= 0.70
     Davidson diagonalization with overlap
     ethr =  6.83E-05,  avg # of iterations =  4.3

     negative rho (up, down):  3.714E-05 1.586E-05

     total cpu time spent up to now is     1028.5 secs

     total energy              =      -1.06223344 Ry
     estimated scf accuracy    <       0.02289596 Ry

     total magnetization       =     1.00 Bohr mag/cell
     absolute magnetization    =     1.00 Bohr mag/cell

     iteration # 68     ecut=    60.00 Ry     beta= 0.70
     Davidson diagonalization with overlap
     ethr =  6.83E-05,  avg # of iterations =  9.4

     negative rho (up, down):  9.169E-05 1.029E-05

     total cpu time spent up to now is     1048.4 secs

     total energy              =      -1.08289724 Ry
     estimated scf accuracy    <       0.03479465 Ry

     total magnetization       =     1.00 Bohr mag/cell
     absolute magnetization    =     1.00 Bohr mag/cell

     iteration # 69     ecut=    60.00 Ry     beta= 0.70
     Davidson diagonalization with overlap
     ethr =  6.83E-05,  avg # of iterations =  7.8

     negative rho (up, down):  1.325E-04 9.847E-06

     total cpu time spent up to now is     1067.3 secs

     total energy              =      -1.08500970 Ry
     estimated scf accuracy    <       0.04915272 Ry

     total magnetization       =     1.00 Bohr mag/cell
     absolute magnetization    =     1.00 Bohr mag/cell

     iteration # 70     ecut=    60.00 Ry     beta= 0.70
     Davidson diagonalization with overlap
     ethr =  6.83E-05,  avg # of iterations =  2.2

     negative rho (up, down):  1.331E-04 7.921E-06

     total cpu time spent up to now is     1082.0 secs

     total energy              =      -1.08059272 Ry
     estimated scf accuracy    <       0.05261419 Ry

     total magnetization       =     1.00 Bohr mag/cell
     absolute magnetization    =     1.00 Bohr mag/cell

     iteration # 71     ecut=    60.00 Ry     beta= 0.70
     Davidson diagonalization with overlap
     ethr =  6.83E-05,  avg # of iterations =  2.3

     negative rho (up, down):  1.303E-04 6.941E-06

     total cpu time spent up to now is     1097.1 secs

     total energy              =      -1.07921298 Ry
     estimated scf accuracy    <       0.04513961 Ry

     total magnetization       =     1.00 Bohr mag/cell
     absolute magnetization    =     1.00 Bohr mag/cell

     iteration # 72     ecut=    60.00 Ry     beta= 0.70
     Davidson diagonalization with overlap
     ethr =  6.83E-05,  avg # of iterations =  2.1

     negative rho (up, down):  1.407E-04 3.724E-06

     total cpu time spent up to now is     1111.7 secs

     total energy              =      -1.08417544 Ry
     estimated scf accuracy    <       0.04290511 Ry

     total magnetization       =     1.00 Bohr mag/cell
     absolute magnetization    =     1.00 Bohr mag/cell

     iteration # 73     ecut=    60.00 Ry     beta= 0.70
     Davidson diagonalization with overlap
     ethr =  6.83E-05,  avg # of iterations =  7.8

     negative rho (up, down):  1.178E-04 4.080E-06

     total cpu time spent up to now is     1128.3 secs

     total energy              =      -1.07359366 Ry
     estimated scf accuracy    <       0.05260402 Ry

     total magnetization       =     1.00 Bohr mag/cell
     absolute magnetization    =     1.00 Bohr mag/cell

     iteration # 74     ecut=    60.00 Ry     beta= 0.70
     Davidson diagonalization with overlap
     ethr =  6.83E-05,  avg # of iterations =  5.5

     negative rho (up, down):  1.111E-04 4.031E-06

     total cpu time spent up to now is     1144.2 secs

     total energy              =      -1.07107682 Ry
     estimated scf accuracy    <       0.03447624 Ry

     total magnetization       =     1.00 Bohr mag/cell
     absolute magnetization    =     1.00 Bohr mag/cell

     iteration # 75     ecut=    60.00 Ry     beta= 0.70
     Davidson diagonalization with overlap
     ethr =  6.83E-05,  avg # of iterations =  8.0

     negative rho (up, down):  1.184E-04 5.474E-06

     total cpu time spent up to now is     1163.6 secs

     total energy              =      -1.06722835 Ry
     estimated scf accuracy    <       0.04436847 Ry

     total magnetization       =     1.00 Bohr mag/cell
     absolute magnetization    =     1.00 Bohr mag/cell

     iteration # 76     ecut=    60.00 Ry     beta= 0.70
     Davidson diagonalization with overlap
     ethr =  6.83E-05,  avg # of iterations =  9.8

     negative rho (up, down):  1.042E-04 3.067E-06

     total cpu time spent up to now is     1182.7 secs

     total energy              =      -1.06862742 Ry
     estimated scf accuracy    <       0.02397150 Ry

     total magnetization       =     1.00 Bohr mag/cell
     absolute magnetization    =     1.00 Bohr mag/cell

     iteration # 77     ecut=    60.00 Ry     beta= 0.70
     Davidson diagonalization with overlap
     ethr =  6.83E-05,  avg # of iterations =  6.6

     negative rho (up, down):  1.146E-04 4.083E-06

     total cpu time spent up to now is     1200.6 secs

     total energy              =      -1.06743086 Ry
     estimated scf accuracy    <       0.03887094 Ry

     total magnetization       =     1.00 Bohr mag/cell
     absolute magnetization    =     1.00 Bohr mag/cell

     iteration # 78     ecut=    60.00 Ry     beta= 0.70
     Davidson diagonalization with overlap
     ethr =  6.83E-05,  avg # of iterations =  2.8

     negative rho (up, down):  1.320E-04 5.957E-06

     total cpu time spent up to now is     1216.2 secs

     total energy              =      -1.07247940 Ry
     estimated scf accuracy    <       0.04190696 Ry

     total magnetization       =     1.00 Bohr mag/cell
     absolute magnetization    =     1.00 Bohr mag/cell

     iteration # 79     ecut=    60.00 Ry     beta= 0.70
     Davidson diagonalization with overlap
     ethr =  6.83E-05,  avg # of iterations =  2.6

     negative rho (up, down):  1.485E-04 4.150E-06

     total cpu time spent up to now is     1231.3 secs

     total energy              =      -1.07247959 Ry
     estimated scf accuracy    <       0.03260023 Ry

     total magnetization       =     1.00 Bohr mag/cell
     absolute magnetization    =     1.00 Bohr mag/cell

     iteration # 80     ecut=    60.00 Ry     beta= 0.70
     Davidson diagonalization with overlap
     ethr =  6.83E-05,  avg # of iterations =  6.2

     negative rho (up, down):  1.439E-04 4.885E-06

     total cpu time spent up to now is     1250.1 secs

     total energy              =      -1.07239113 Ry
     estimated scf accuracy    <       0.02606292 Ry

     total magnetization       =     1.00 Bohr mag/cell
     absolute magnetization    =     1.00 Bohr mag/cell

     iteration # 81     ecut=    60.00 Ry     beta= 0.70
     Davidson diagonalization with overlap
     ethr =  6.83E-05,  avg # of iterations =  3.2

     negative rho (up, down):  1.144E-04 5.796E-06

     total cpu time spent up to now is     1266.1 secs

     total energy              =      -1.07557372 Ry
     estimated scf accuracy    <       0.02294899 Ry

     total magnetization       =     1.00 Bohr mag/cell
     absolute magnetization    =     1.00 Bohr mag/cell

     iteration # 82     ecut=    60.00 Ry     beta= 0.70
     Davidson diagonalization with overlap
     ethr =  6.83E-05,  avg # of iterations =  3.1

     negative rho (up, down):  9.152E-05 5.049E-07

     total cpu time spent up to now is     1281.4 secs

     total energy              =      -1.03640745 Ry
     estimated scf accuracy    <       0.03719422 Ry

     total magnetization       =     1.00 Bohr mag/cell
     absolute magnetization    =     1.00 Bohr mag/cell

     iteration # 83     ecut=    60.00 Ry     beta= 0.70
     Davidson diagonalization with overlap
     ethr =  6.83E-05,  avg # of iterations = 10.1

     negative rho (up, down):  2.163E-04 1.235E-06

     total cpu time spent up to now is     1301.6 secs

     total energy              =      -1.05932301 Ry
     estimated scf accuracy    <       0.35845332 Ry

     total magnetization       =     1.00 Bohr mag/cell
     absolute magnetization    =     1.00 Bohr mag/cell

     iteration # 84     ecut=    60.00 Ry     beta= 0.70
     Davidson diagonalization with overlap
     ethr =  6.83E-05,  avg # of iterations =  4.1

     negative rho (up, down):  3.957E-05 5.285E-07

     total cpu time spent up to now is     1317.4 secs

     total energy              =      -1.06248633 Ry
     estimated scf accuracy    <       0.00659627 Ry

     total magnetization       =     1.00 Bohr mag/cell
     absolute magnetization    =     1.00 Bohr mag/cell

     iteration # 85     ecut=    60.00 Ry     beta= 0.70
     Davidson diagonalization with overlap
     ethr =  6.83E-05,  avg # of iterations =  1.0

     negative rho (up, down):  2.211E-04 1.550E-06

     total cpu time spent up to now is     1331.9 secs

     total energy              =      -1.07233170 Ry
     estimated scf accuracy    <       0.25214820 Ry

     total magnetization       =     1.00 Bohr mag/cell
     absolute magnetization    =     1.00 Bohr mag/cell

     iteration # 86     ecut=    60.00 Ry     beta= 0.70
     Davidson diagonalization with overlap
     ethr =  6.83E-05,  avg # of iterations =  2.7

     negative rho (up, down):  3.300E-04 6.746E-07

     total cpu time spent up to now is     1347.8 secs

     total energy              =      -1.07354016 Ry
     estimated scf accuracy    <       0.39068068 Ry

     total magnetization       =     1.00 Bohr mag/cell
     absolute magnetization    =     1.06 Bohr mag/cell

     iteration # 87     ecut=    60.00 Ry     beta= 0.70
     Davidson diagonalization with overlap
     ethr =  6.83E-05,  avg # of iterations =  8.2

     negative rho (up, down):  3.272E-04 3.063E-07

     total cpu time spent up to now is     1367.5 secs

     total energy              =      -1.05894236 Ry
     estimated scf accuracy    <       0.29314135 Ry

     total magnetization       =     1.00 Bohr mag/cell
     absolute magnetization    =     1.00 Bohr mag/cell

     iteration # 88     ecut=    60.00 Ry     beta= 0.70
     Davidson diagonalization with overlap
     ethr =  6.83E-05,  avg # of iterations =  9.1

     negative rho (up, down):  6.446E-05 9.423E-08

     total cpu time spent up to now is     1386.7 secs

     total energy              =      -1.06767782 Ry
     estimated scf accuracy    <       0.00455578 Ry

     total magnetization       =     1.00 Bohr mag/cell
     absolute magnetization    =     1.00 Bohr mag/cell

     iteration # 89     ecut=    60.00 Ry     beta= 0.70
     Davidson diagonalization with overlap
     ethr =  6.83E-05,  avg # of iterations =  1.1

     negative rho (up, down):  3.448E-05 8.428E-07

     total cpu time spent up to now is     1401.0 secs

     total energy              =      -1.04418940 Ry
     estimated scf accuracy    <       0.01058389 Ry

     total magnetization       =     1.00 Bohr mag/cell
     absolute magnetization    =     1.00 Bohr mag/cell

     iteration # 90     ecut=    60.00 Ry     beta= 0.70
     Davidson diagonalization with overlap
     ethr =  6.83E-05,  avg # of iterations =  7.5

     negative rho (up, down):  2.354E-04 3.756E-08

     total cpu time spent up to now is     1420.5 secs

     total energy              =      -1.05364880 Ry
     estimated scf accuracy    <       0.33568153 Ry

     total magnetization       =     1.00 Bohr mag/cell
     absolute magnetization    =     1.00 Bohr mag/cell

     iteration # 91     ecut=    60.00 Ry     beta= 0.70
     Davidson diagonalization with overlap
     ethr =  6.83E-05,  avg # of iterations =  9.3

     negative rho (up, down):  2.663E-05 3.769E-08

     total cpu time spent up to now is     1441.1 secs

     total energy              =      -1.06731848 Ry
     estimated scf accuracy    <       0.03350776 Ry

     total magnetization       =     1.00 Bohr mag/cell
     absolute magnetization    =     1.00 Bohr mag/cell

     iteration # 92     ecut=    60.00 Ry     beta= 0.70
     Davidson diagonalization with overlap
     ethr =  6.83E-05,  avg # of iterations =  1.0

     negative rho (up, down):  7.673E-05 1.493E-08

     total cpu time spent up to now is     1455.3 secs

     total energy              =      -1.06842001 Ry
     estimated scf accuracy    <       0.03281236 Ry

     total magnetization       =     1.00 Bohr mag/cell
     absolute magnetization    =     1.00 Bohr mag/cell

     iteration # 93     ecut=    60.00 Ry     beta= 0.70
     Davidson diagonalization with overlap
     ethr =  6.83E-05,  avg # of iterations =  1.4

     negative rho (up, down):  1.050E-04 1.259E-10

     total cpu time spent up to now is     1469.7 secs

     total energy              =      -1.03835356 Ry
     estimated scf accuracy    <       0.03986084 Ry

     total magnetization       =     1.00 Bohr mag/cell
     absolute magnetization    =     1.00 Bohr mag/cell

     iteration # 94     ecut=    60.00 Ry     beta= 0.70
     Davidson diagonalization with overlap
     ethr =  6.83E-05,  avg # of iterations =  1.5

     negative rho (up, down):  2.247E-04 1.038E-07

     total cpu time spent up to now is     1483.9 secs

     total energy              =      -1.05985756 Ry
     estimated scf accuracy    <       0.37077843 Ry

     total magnetization       =     1.00 Bohr mag/cell
     absolute magnetization    =     1.07 Bohr mag/cell

     iteration # 95     ecut=    60.00 Ry     beta= 0.70
     Davidson diagonalization with overlap
     ethr =  6.83E-05,  avg # of iterations =  1.5

     negative rho (up, down):  6.033E-05 4.527E-08

     total cpu time spent up to now is     1498.2 secs

     total energy              =      -1.06552876 Ry
     estimated scf accuracy    <       0.00022367 Ry

     total magnetization       =     1.00 Bohr mag/cell
     absolute magnetization    =     1.00 Bohr mag/cell

     iteration # 96     ecut=    60.00 Ry     beta= 0.70
     Davidson diagonalization with overlap
     ethr =  2.24E-05,  avg # of iterations =  2.1

     negative rho (up, down):  7.159E-05 9.096E-08

     total cpu time spent up to now is     1512.9 secs

     total energy              =      -1.06510066 Ry
     estimated scf accuracy    <       0.02209041 Ry

     total magnetization       =     1.00 Bohr mag/cell
     absolute magnetization    =     1.00 Bohr mag/cell

     iteration # 97     ecut=    60.00 Ry     beta= 0.70
     Davidson diagonalization with overlap
     ethr =  2.24E-05,  avg # of iterations =  2.0

     negative rho (up, down):  5.566E-05 4.195E-08

     total cpu time spent up to now is     1527.4 secs

     total energy              =      -1.06874457 Ry
     estimated scf accuracy    <       0.02842200 Ry

     total magnetization       =     1.00 Bohr mag/cell
     absolute magnetization    =     1.00 Bohr mag/cell

     iteration # 98     ecut=    60.00 Ry     beta= 0.70
     Davidson diagonalization with overlap
     ethr =  2.24E-05,  avg # of iterations =  1.9

     negative rho (up, down):  1.480E-04 5.561E-08

     total cpu time spent up to now is     1541.8 secs

     total energy              =      -1.07102307 Ry
     estimated scf accuracy    <       0.09302418 Ry

     total magnetization       =     1.00 Bohr mag/cell
     absolute magnetization    =     1.06 Bohr mag/cell

     iteration # 99     ecut=    60.00 Ry     beta= 0.70
     Davidson diagonalization with overlap
     ethr =  2.24E-05,  avg # of iterations =  1.0

     negative rho (up, down):  1.804E-04 8.281E-09

     total cpu time spent up to now is     1556.0 secs

     total energy              =      -1.06744812 Ry
     estimated scf accuracy    <       0.09982170 Ry

     total magnetization       =     1.00 Bohr mag/cell
     absolute magnetization    =     1.07 Bohr mag/cell

     iteration #100     ecut=    60.00 Ry     beta= 0.70
     Davidson diagonalization with overlap
     ethr =  2.24E-05,  avg # of iterations =  1.0

     negative rho (up, down):  1.843E-04 5.481E-10

     total cpu time spent up to now is     1570.2 secs

     total energy              =      -1.03706117 Ry
     estimated scf accuracy    <       0.09487795 Ry

     total magnetization       =     1.00 Bohr mag/cell
     absolute magnetization    =     1.05 Bohr mag/cell

     iteration #101     ecut=    60.00 Ry     beta= 0.70
     Davidson diagonalization with overlap
     ethr =  2.24E-05,  avg # of iterations =  6.5

     negative rho (up, down):  1.737E-04 1.204E-09

     total cpu time spent up to now is     1587.6 secs

     total energy              =      -1.06030924 Ry
     estimated scf accuracy    <       0.29226219 Ry

     total magnetization       =     1.00 Bohr mag/cell
     absolute magnetization    =     1.00 Bohr mag/cell

     iteration #102     ecut=    60.00 Ry     beta= 0.70
     Davidson diagonalization with overlap
     ethr =  2.24E-05,  avg # of iterations =  5.8

     negative rho (up, down):  3.103E-04 4.519E-09

     total cpu time spent up to now is     1604.3 secs

     total energy              =      -1.06019808 Ry
     estimated scf accuracy    <       0.36061336 Ry

     total magnetization       =     1.00 Bohr mag/cell
     absolute magnetization    =     1.05 Bohr mag/cell

     iteration #103     ecut=    60.00 Ry     beta= 0.70
     Davidson diagonalization with overlap
     ethr =  2.24E-05,  avg # of iterations =  3.5

     negative rho (up, down):  2.449E-04 1.105E-08

     total cpu time spent up to now is     1620.1 secs

     total energy              =      -1.06356453 Ry
     estimated scf accuracy    <       0.13221452 Ry

     total magnetization       =     1.00 Bohr mag/cell
     absolute magnetization    =     1.00 Bohr mag/cell

     iteration #104     ecut=    60.00 Ry     beta= 0.70
     Davidson diagonalization with overlap
     ethr =  2.24E-05,  avg # of iterations =  8.0

     negative rho (up, down):  1.051E-04 3.045E-08

     total cpu time spent up to now is     1637.4 secs

     total energy              =      -1.06603996 Ry
     estimated scf accuracy    <       0.00908859 Ry

     total magnetization       =     1.00 Bohr mag/cell
     absolute magnetization    =     1.00 Bohr mag/cell

     iteration #105     ecut=    60.00 Ry     beta= 0.70
     Davidson diagonalization with overlap
     ethr =  2.24E-05,  avg # of iterations =  1.0

     negative rho (up, down):  3.099E-05 1.075E-08

     total cpu time spent up to now is     1651.6 secs

     total energy              =      -1.06228193 Ry
     estimated scf accuracy    <       0.01789626 Ry

     total magnetization       =     1.00 Bohr mag/cell
     absolute magnetization    =     1.00 Bohr mag/cell

     iteration #106     ecut=    60.00 Ry     beta= 0.70
     Davidson diagonalization with overlap
     ethr =  2.24E-05,  avg # of iterations =  1.5

     negative rho (up, down):  1.774E-04 1.369E-08

     total cpu time spent up to now is     1665.9 secs

     total energy              =      -1.06706624 Ry
     estimated scf accuracy    <       0.20118753 Ry

     total magnetization       =     1.00 Bohr mag/cell
     absolute magnetization    =     1.00 Bohr mag/cell

     iteration #107     ecut=    60.00 Ry     beta= 0.70
     Davidson diagonalization with overlap
     ethr =  2.24E-05,  avg # of iterations =  1.5

     negative rho (up, down):  1.691E-04 1.121E-08

     total cpu time spent up to now is     1680.2 secs

     total energy              =      -1.06748219 Ry
     estimated scf accuracy    <       0.08185137 Ry

     total magnetization       =     1.00 Bohr mag/cell
     absolute magnetization    =     1.00 Bohr mag/cell

     iteration #108     ecut=    60.00 Ry     beta= 0.70
     Davidson diagonalization with overlap
     ethr =  2.24E-05,  avg # of iterations =  1.0

     negative rho (up, down):  1.556E-04 1.217E-08

     total cpu time spent up to now is     1694.3 secs

     total energy              =      -1.05919749 Ry
     estimated scf accuracy    <       0.06821543 Ry

     total magnetization       =     1.00 Bohr mag/cell
     absolute magnetization    =     1.00 Bohr mag/cell

     iteration #109     ecut=    60.00 Ry     beta= 0.70
     Davidson diagonalization with overlap
     ethr =  2.24E-05,  avg # of iterations =  1.5

     negative rho (up, down):  3.023E-04 1.332E-08

     total cpu time spent up to now is     1708.6 secs

     total energy              =      -1.08215047 Ry
     estimated scf accuracy    <       0.34586213 Ry

     total magnetization       =     1.00 Bohr mag/cell
     absolute magnetization    =     1.00 Bohr mag/cell

     iteration #110     ecut=    60.00 Ry     beta= 0.70
     Davidson diagonalization with overlap
     ethr =  2.24E-05,  avg # of iterations = 10.8

     negative rho (up, down):  3.589E-04 8.664E-09

     total cpu time spent up to now is     1731.5 secs

     total energy              =      -1.07935780 Ry
     estimated scf accuracy    <       0.39392625 Ry

     total magnetization       =     1.00 Bohr mag/cell
     absolute magnetization    =     1.07 Bohr mag/cell

     iteration #111     ecut=    60.00 Ry     beta= 0.70
     Davidson diagonalization with overlap
     ethr =  2.24E-05,  avg # of iterations =  8.5

     negative rho (up, down):  3.687E-04 6.595E-09

     total cpu time spent up to now is     1751.5 secs

     total energy              =      -1.06584593 Ry
     estimated scf accuracy    <       0.37751926 Ry

     total magnetization       =     1.00 Bohr mag/cell
     absolute magnetization    =     1.04 Bohr mag/cell

     iteration #112     ecut=    60.00 Ry     beta= 0.70
     Davidson diagonalization with overlap
     ethr =  2.24E-05,  avg # of iterations = 11.4

     negative rho (up, down):  2.465E-04 7.144E-09

     total cpu time spent up to now is     1772.5 secs

     total energy              =      -1.07365249 Ry
     estimated scf accuracy    <       0.10764857 Ry

     total magnetization       =     1.00 Bohr mag/cell
     absolute magnetization    =     1.00 Bohr mag/cell

     iteration #113     ecut=    60.00 Ry     beta= 0.70
     Davidson diagonalization with overlap
     ethr =  2.24E-05,  avg # of iterations =  5.7

     negative rho (up, down):  3.219E-04 6.983E-09

     total cpu time spent up to now is     1788.4 secs

     total energy              =      -1.07594422 Ry
     estimated scf accuracy    <       0.34239269 Ry

     total magnetization       =     1.00 Bohr mag/cell
     absolute magnetization    =     1.00 Bohr mag/cell

     iteration #114     ecut=    60.00 Ry     beta= 0.70
     Davidson diagonalization with overlap
     ethr =  2.24E-05,  avg # of iterations =  1.9

     negative rho (up, down):  3.460E-04 6.949E-09

     total cpu time spent up to now is     1802.9 secs

     total energy              =      -1.07541129 Ry
     estimated scf accuracy    <       0.34553599 Ry

     total magnetization       =     1.00 Bohr mag/cell
     absolute magnetization    =     1.00 Bohr mag/cell

     iteration #115     ecut=    60.00 Ry     beta= 0.70
     Davidson diagonalization with overlap
     ethr =  2.24E-05,  avg # of iterations =  1.2

     negative rho (up, down):  3.495E-04 6.693E-09

     total cpu time spent up to now is     1817.1 secs

     total energy              =      -1.07618172 Ry
     estimated scf accuracy    <       0.33534971 Ry

     total magnetization       =     1.00 Bohr mag/cell
     absolute magnetization    =     1.00 Bohr mag/cell

     iteration #116     ecut=    60.00 Ry     beta= 0.70
     Davidson diagonalization with overlap
     ethr =  2.24E-05,  avg # of iterations =  2.5

     negative rho (up, down):  3.543E-04 6.644E-09

     total cpu time spent up to now is     1832.0 secs

     total energy              =      -1.06922401 Ry
     estimated scf accuracy    <       0.34882799 Ry

     total magnetization       =     1.00 Bohr mag/cell
     absolute magnetization    =     1.00 Bohr mag/cell

     iteration #117     ecut=    60.00 Ry     beta= 0.70
     Davidson diagonalization with overlap
     ethr =  2.24E-05,  avg # of iterations =  6.6

     negative rho (up, down):  2.793E-04 6.611E-09

     total cpu time spent up to now is     1847.7 secs

     total energy              =      -1.06996219 Ry
     estimated scf accuracy    <       0.17396457 Ry

     total magnetization       =     1.00 Bohr mag/cell
     absolute magnetization    =     1.00 Bohr mag/cell

     iteration #118     ecut=    60.00 Ry     beta= 0.70
     Davidson diagonalization with overlap
     ethr =  2.24E-05,  avg # of iterations =  1.0

     negative rho (up, down):  2.542E-04 5.800E-09

     total cpu time spent up to now is     1861.9 secs

     total energy              =      -1.06825095 Ry
     estimated scf accuracy    <       0.16795232 Ry

     total magnetization       =     1.00 Bohr mag/cell
     absolute magnetization    =     1.00 Bohr mag/cell

     iteration #119     ecut=    60.00 Ry     beta= 0.70
     Davidson diagonalization with overlap
     ethr =  2.24E-05,  avg # of iterations =  2.4

     negative rho (up, down):  2.295E-04 8.877E-09

     total cpu time spent up to now is     1876.4 secs

     total energy              =      -1.07745324 Ry
     estimated scf accuracy    <       0.13743604 Ry

     total magnetization       =     1.00 Bohr mag/cell
     absolute magnetization    =     1.00 Bohr mag/cell

     iteration #120     ecut=    60.00 Ry     beta= 0.70
     Davidson diagonalization with overlap
     ethr =  2.24E-05,  avg # of iterations =  9.9

     negative rho (up, down):  3.272E-04 3.903E-09

     total cpu time spent up to now is     1898.7 secs

     total energy              =      -1.06562988 Ry
     estimated scf accuracy    <       0.37345211 Ry

     total magnetization       =     1.00 Bohr mag/cell
     absolute magnetization    =     1.04 Bohr mag/cell

     iteration #121     ecut=    60.00 Ry     beta= 0.70
     Davidson diagonalization with overlap
     ethr =  2.24E-05,  avg # of iterations = 11.2

     negative rho (up, down):  2.328E-04 4.321E-09

     total cpu time spent up to now is     1921.7 secs

     total energy              =      -1.06835208 Ry
     estimated scf accuracy    <       0.10387591 Ry

     total magnetization       =     1.00 Bohr mag/cell
     absolute magnetization    =     1.00 Bohr mag/cell

     iteration #122     ecut=    60.00 Ry     beta= 0.70
     Davidson diagonalization with overlap
     ethr =  2.24E-05,  avg # of iterations =  4.1

     negative rho (up, down):  2.160E-04 2.773E-09

     total cpu time spent up to now is     1936.9 secs

     total energy              =      -1.06614373 Ry
     estimated scf accuracy    <       0.12865811 Ry

     total magnetization       =     1.00 Bohr mag/cell
     absolute magnetization    =     1.00 Bohr mag/cell

     iteration #123     ecut=    60.00 Ry     beta= 0.70
     Davidson diagonalization with overlap
     ethr =  2.24E-05,  avg # of iterations =  1.8

     negative rho (up, down):  1.501E-04 2.996E-09

     total cpu time spent up to now is     1951.2 secs

     total energy              =      -1.06684428 Ry
     estimated scf accuracy    <       0.03515855 Ry

     total magnetization       =     1.00 Bohr mag/cell
     absolute magnetization    =     1.00 Bohr mag/cell

     iteration #124     ecut=    60.00 Ry     beta= 0.70
     Davidson diagonalization with overlap
     ethr =  2.24E-05,  avg # of iterations =  1.0

     negative rho (up, down):  1.320E-04 2.221E-09

     total cpu time spent up to now is     1965.4 secs

     total energy              =      -1.06561965 Ry
     estimated scf accuracy    <       0.05492271 Ry

     total magnetization       =     1.00 Bohr mag/cell
     absolute magnetization    =     1.00 Bohr mag/cell

     iteration #125     ecut=    60.00 Ry     beta= 0.70
     Davidson diagonalization with overlap
     ethr =  2.24E-05,  avg # of iterations =  1.9

     negative rho (up, down):  5.575E-05 1.297E-09

     total cpu time spent up to now is     1979.9 secs

     total energy              =      -1.06634642 Ry
     estimated scf accuracy    <       0.00164988 Ry

     total magnetization       =     1.00 Bohr mag/cell
     absolute magnetization    =     1.00 Bohr mag/cell

     iteration #126     ecut=    60.00 Ry     beta= 0.70
     Davidson diagonalization with overlap
     ethr =  2.24E-05,  avg # of iterations =  1.0

     negative rho (up, down):  2.702E-05 5.169E-10

     total cpu time spent up to now is     1994.0 secs

     total energy              =      -1.07015088 Ry
     estimated scf accuracy    <       0.00008131 Ry

     total magnetization       =     1.00 Bohr mag/cell
     absolute magnetization    =     1.00 Bohr mag/cell

     iteration #127     ecut=    60.00 Ry     beta= 0.70
     Davidson diagonalization with overlap
     ethr =  8.13E-06,  avg # of iterations = 12.2

     negative rho (up, down):  1.733E-04 4.216E-10

     total cpu time spent up to now is     2019.2 secs

     total energy              =      -1.07090137 Ry
     estimated scf accuracy    <       0.16934418 Ry

     total magnetization       =     1.00 Bohr mag/cell
     absolute magnetization    =     1.00 Bohr mag/cell

     iteration #128     ecut=    60.00 Ry     beta= 0.70
     Davidson diagonalization with overlap
     ethr =  8.13E-06,  avg # of iterations = 12.8

     negative rho (up, down):  2.040E-04 4.260E-10

     total cpu time spent up to now is     2043.3 secs

     total energy              =      -1.07288269 Ry
     estimated scf accuracy    <       0.13750503 Ry

     total magnetization       =     1.00 Bohr mag/cell
     absolute magnetization    =     1.00 Bohr mag/cell

     iteration #129     ecut=    60.00 Ry     beta= 0.70
     Davidson diagonalization with overlap
     ethr =  8.13E-06,  avg # of iterations = 10.9

     negative rho (up, down):  2.437E-04 1.111E-09

     total cpu time spent up to now is     2065.2 secs

     total energy              =      -1.06750456 Ry
     estimated scf accuracy    <       0.18934962 Ry

     total magnetization       =     1.00 Bohr mag/cell
     absolute magnetization    =     1.00 Bohr mag/cell

     iteration #130     ecut=    60.00 Ry     beta= 0.70
     Davidson diagonalization with overlap
     ethr =  8.13E-06,  avg # of iterations = 10.9

     negative rho (up, down):  3.270E-04 7.667E-10

     total cpu time spent up to now is     2087.5 secs

     total energy              =      -1.07361138 Ry
     estimated scf accuracy    <       0.34096229 Ry

     total magnetization       =     1.00 Bohr mag/cell
     absolute magnetization    =     1.00 Bohr mag/cell

     iteration #131     ecut=    60.00 Ry     beta= 0.70
     Davidson diagonalization with overlap
     ethr =  8.13E-06,  avg # of iterations =  1.6

     negative rho (up, down):  3.521E-04 1.426E-05

     total cpu time spent up to now is     2102.0 secs

     total energy              =      -1.07487546 Ry
     estimated scf accuracy    <       0.34271422 Ry

     total magnetization       =     1.00 Bohr mag/cell
     absolute magnetization    =     1.00 Bohr mag/cell

     iteration #132     ecut=    60.00 Ry     beta= 0.70
     Davidson diagonalization with overlap
     ethr =  8.13E-06,  avg # of iterations =  1.1

     negative rho (up, down):  3.603E-04 1.753E-05

     total cpu time spent up to now is     2116.2 secs

     total energy              =      -1.07472121 Ry
     estimated scf accuracy    <       0.34508012 Ry

     total magnetization       =     1.00 Bohr mag/cell
     absolute magnetization    =     1.00 Bohr mag/cell

     iteration #133     ecut=    60.00 Ry     beta= 0.70
     Davidson diagonalization with overlap
     ethr =  8.13E-06,  avg # of iterations =  1.0

     negative rho (up, down):  3.605E-04 1.419E-05

     total cpu time spent up to now is     2130.3 secs

     total energy              =      -1.07605261 Ry
     estimated scf accuracy    <       0.34504545 Ry

     total magnetization       =     1.00 Bohr mag/cell
     absolute magnetization    =     1.00 Bohr mag/cell

     iteration #134     ecut=    60.00 Ry     beta= 0.70
     Davidson diagonalization with overlap
     ethr =  8.13E-06,  avg # of iterations =  1.0

     negative rho (up, down):  3.601E-04 4.088E-12

     total cpu time spent up to now is     2144.6 secs

     total energy              =      -1.06054285 Ry
     estimated scf accuracy    <       0.34712965 Ry

     total magnetization       =     1.00 Bohr mag/cell
     absolute magnetization    =     1.00 Bohr mag/cell

     iteration #135     ecut=    60.00 Ry     beta= 0.70
     Davidson diagonalization with overlap
     ethr =  8.13E-06,  avg # of iterations = 12.5

     negative rho (up, down):  3.721E-04 2.086E-10

     total cpu time spent up to now is     2168.1 secs

     total energy              =      -1.05694188 Ry
     estimated scf accuracy    <       0.37373772 Ry

     total magnetization       =     1.00 Bohr mag/cell
     absolute magnetization    =     1.06 Bohr mag/cell

     iteration #136     ecut=    60.00 Ry     beta= 0.70
     Davidson diagonalization with overlap
     ethr =  8.13E-06,  avg # of iterations =  6.8

     negative rho (up, down):  5.577E-05 1.852E-11

     total cpu time spent up to now is     2184.5 secs

     total energy              =      -1.04417396 Ry
     estimated scf accuracy    <       0.01429237 Ry

     total magnetization       =     1.00 Bohr mag/cell
     absolute magnetization    =     1.00 Bohr mag/cell

     iteration #137     ecut=    60.00 Ry     beta= 0.70
     Davidson diagonalization with overlap
     ethr =  8.13E-06,  avg # of iterations =  2.0

     negative rho (up, down):  2.613E-04 7.036E-12

     total cpu time spent up to now is     2199.1 secs

     total energy              =      -1.05536644 Ry
     estimated scf accuracy    <       0.32848734 Ry

     total magnetization       =     1.00 Bohr mag/cell
     absolute magnetization    =     1.00 Bohr mag/cell

     iteration #138     ecut=    60.00 Ry     beta= 0.70
     Davidson diagonalization with overlap
     ethr =  8.13E-06,  avg # of iterations =  4.0

     negative rho (up, down):  2.524E-04 8.224E-12

     total cpu time spent up to now is     2214.7 secs

     total energy              =      -1.05464009 Ry
     estimated scf accuracy    <       0.16009046 Ry

     total magnetization       =     1.00 Bohr mag/cell
     absolute magnetization    =     1.00 Bohr mag/cell

     iteration #139     ecut=    60.00 Ry     beta= 0.70
     Davidson diagonalization with overlap
     ethr =  8.13E-06,  avg # of iterations =  6.5

     negative rho (up, down):  3.211E-04 1.229E-05

     total cpu time spent up to now is     2232.2 secs

     total energy              =      -1.07007694 Ry
     estimated scf accuracy    <       0.32163568 Ry

     total magnetization       =     1.00 Bohr mag/cell
     absolute magnetization    =     1.00 Bohr mag/cell

     iteration #140     ecut=    60.00 Ry     beta= 0.70
     Davidson diagonalization with overlap
     ethr =  8.13E-06,  avg # of iterations = 11.3

     negative rho (up, down):  1.986E-04 1.197E-10

     total cpu time spent up to now is     2255.0 secs

     total energy              =      -1.06408145 Ry
     estimated scf accuracy    <       0.06439067 Ry

     total magnetization       =     1.00 Bohr mag/cell
     absolute magnetization    =     1.00 Bohr mag/cell

     iteration #141     ecut=    60.00 Ry     beta= 0.70
     Davidson diagonalization with overlap
     ethr =  8.13E-06,  avg # of iterations = 12.4

     negative rho (up, down):  2.711E-05 3.092E-05

     total cpu time spent up to now is     2279.2 secs

     total energy              =      -1.06929160 Ry
     estimated scf accuracy    <       0.01225026 Ry

     total magnetization       =     1.00 Bohr mag/cell
     absolute magnetization    =     1.00 Bohr mag/cell

     iteration #142     ecut=    60.00 Ry     beta= 0.70
     Davidson diagonalization with overlap
     ethr =  8.13E-06,  avg # of iterations = 11.3

     negative rho (up, down):  1.466E-04 4.302E-06

     total cpu time spent up to now is     2302.4 secs

     total energy              =      -1.07229402 Ry
     estimated scf accuracy    <       0.12477759 Ry

     total magnetization       =     1.00 Bohr mag/cell
     absolute magnetization    =     1.00 Bohr mag/cell

     iteration #143     ecut=    60.00 Ry     beta= 0.70
     Davidson diagonalization with overlap
     ethr =  8.13E-06,  avg # of iterations =  1.5

     negative rho (up, down):  1.827E-04 1.258E-06

     total cpu time spent up to now is     2316.7 secs

     total energy              =      -1.07211912 Ry
     estimated scf accuracy    <       0.11353202 Ry

     total magnetization       =     1.00 Bohr mag/cell
     absolute magnetization    =     1.00 Bohr mag/cell

     iteration #144     ecut=    60.00 Ry     beta= 0.70
     Davidson diagonalization with overlap
     ethr =  8.13E-06,  avg # of iterations =  3.7

     negative rho (up, down):  1.888E-04 4.637E-06

     total cpu time spent up to now is     2332.1 secs

     total energy              =      -1.07241560 Ry
     estimated scf accuracy    <       0.10526312 Ry

     total magnetization       =     1.00 Bohr mag/cell
     absolute magnetization    =     1.00 Bohr mag/cell

     iteration #145     ecut=    60.00 Ry     beta= 0.70
     Davidson diagonalization with overlap
     ethr =  8.13E-06,  avg # of iterations =  2.2

     negative rho (up, down):  1.992E-04 1.134E-05

     total cpu time spent up to now is     2346.9 secs

     total energy              =      -1.07246301 Ry
     estimated scf accuracy    <       0.11860772 Ry

     total magnetization       =     1.00 Bohr mag/cell
     absolute magnetization    =     1.00 Bohr mag/cell

     iteration #146     ecut=    60.00 Ry     beta= 0.70
     Davidson diagonalization with overlap
     ethr =  8.13E-06,  avg # of iterations =  1.0

     negative rho (up, down):  1.958E-04 1.288E-05

     total cpu time spent up to now is     2361.0 secs

     total energy              =      -1.07275107 Ry
     estimated scf accuracy    <       0.10762967 Ry

     total magnetization       =     1.00 Bohr mag/cell
     absolute magnetization    =     1.00 Bohr mag/cell

     iteration #147     ecut=    60.00 Ry     beta= 0.70
     Davidson diagonalization with overlap
     ethr =  8.13E-06,  avg # of iterations =  1.0

     negative rho (up, down):  2.057E-04 1.028E-05

     total cpu time spent up to now is     2375.1 secs

     total energy              =      -1.07230951 Ry
     estimated scf accuracy    <       0.12510358 Ry

     total magnetization       =     1.00 Bohr mag/cell
     absolute magnetization    =     1.00 Bohr mag/cell

     iteration #148     ecut=    60.00 Ry     beta= 0.70
     Davidson diagonalization with overlap
     ethr =  8.13E-06,  avg # of iterations =  1.0

     negative rho (up, down):  1.973E-04 7.952E-12

     total cpu time spent up to now is     2389.3 secs

     total energy              =      -1.06185114 Ry
     estimated scf accuracy    <       0.10811833 Ry

     total magnetization       =     1.00 Bohr mag/cell
     absolute magnetization    =     1.00 Bohr mag/cell

     iteration #149     ecut=    60.00 Ry     beta= 0.70
     Davidson diagonalization with overlap
     ethr =  8.13E-06,  avg # of iterations = 12.2

     negative rho (up, down):  2.767E-05 2.634E-12

     total cpu time spent up to now is     2413.6 secs

     total energy              =      -1.06574544 Ry
     estimated scf accuracy    <       0.02646090 Ry

     total magnetization       =     1.00 Bohr mag/cell
     absolute magnetization    =     1.00 Bohr mag/cell

     iteration #150     ecut=    60.00 Ry     beta= 0.70
     Davidson diagonalization with overlap
     ethr =  8.13E-06,  avg # of iterations =  3.5

     negative rho (up, down):  6.927E-05 1.059E-06

     total cpu time spent up to now is     2428.7 secs

     total energy              =      -1.06832042 Ry
     estimated scf accuracy    <       0.02429505 Ry

     total magnetization       =     1.00 Bohr mag/cell
     absolute magnetization    =     1.00 Bohr mag/cell

     iteration #151     ecut=    60.00 Ry     beta= 0.70
     Davidson diagonalization with overlap
     ethr =  8.13E-06,  avg # of iterations = 11.5

     negative rho (up, down):  1.139E-04 7.613E-07

     total cpu time spent up to now is     2451.9 secs

     total energy              =      -1.07218515 Ry
     estimated scf accuracy    <       0.11005002 Ry

     total magnetization       =     1.00 Bohr mag/cell
     absolute magnetization    =     1.00 Bohr mag/cell

     iteration #152     ecut=    60.00 Ry     beta= 0.70
     Davidson diagonalization with overlap
     ethr =  8.13E-06,  avg # of iterations =  1.0

     negative rho (up, down):  1.630E-04 3.327E-06

     total cpu time spent up to now is     2466.1 secs

     total energy              =      -1.06470638 Ry
     estimated scf accuracy    <       0.09659087 Ry

     total magnetization       =     1.00 Bohr mag/cell
     absolute magnetization    =     1.00 Bohr mag/cell

     iteration #153     ecut=    60.00 Ry     beta= 0.70
     Davidson diagonalization with overlap
     ethr =  8.13E-06,  avg # of iterations =  2.0

     negative rho (up, down):  3.064E-04 1.209E-06

     total cpu time spent up to now is     2480.5 secs

     total energy              =      -1.07124786 Ry
     estimated scf accuracy    <       0.35479255 Ry

     total magnetization       =     1.00 Bohr mag/cell
     absolute magnetization    =     1.03 Bohr mag/cell

     iteration #154     ecut=    60.00 Ry     beta= 0.70
     Davidson diagonalization with overlap
[...]

     total energy              =      -1.04875882 Ry
     estimated scf accuracy    <       0.00075484 Ry

     total magnetization       =     1.00 Bohr mag/cell
     absolute magnetization    =     1.00 Bohr mag/cell

     iteration #***     ecut=    60.00 Ry     beta= 0.70
     Davidson diagonalization with overlap
     ethr =  5.04E-08,  avg # of iterations =  9.4

     negative rho (up, down):  3.244E-05 1.836E-15

     total cpu time spent up to now is    36043.0 secs

     total energy              =      -1.04865609 Ry
     estimated scf accuracy    <       0.00200828 Ry

     total magnetization       =     1.00 Bohr mag/cell
     absolute magnetization    =     1.00 Bohr mag/cell

     iteration #***     ecut=    60.00 Ry     beta= 0.70
     Davidson diagonalization with overlap
     ethr =  5.04E-08,  avg # of iterations =  8.4

     negative rho (up, down):  2.741E-05 1.789E-15

     total cpu time spent up to now is    36060.9 secs

     total energy              =      -1.04868758 Ry
     estimated scf accuracy    <       0.00022283 Ry

     total magnetization       =     1.00 Bohr mag/cell
     absolute magnetization    =     1.00 Bohr mag/cell

     iteration #***     ecut=    60.00 Ry     beta= 0.70
     Davidson diagonalization with overlap
     ethr =  5.04E-08,  avg # of iterations =  9.2

     negative rho (up, down):  2.694E-05 1.563E-15

     total cpu time spent up to now is    36079.5 secs

     total energy              =      -1.04876023 Ry
     estimated scf accuracy    <       0.00037315 Ry

     total magnetization       =     1.00 Bohr mag/cell
     absolute magnetization    =     1.00 Bohr mag/cell

     iteration #***     ecut=    60.00 Ry     beta= 0.70
     Davidson diagonalization with overlap
     ethr =  5.04E-08,  avg # of iterations =  8.1

     negative rho (up, down):  3.113E-05 1.441E-15

     total cpu time spent up to now is    36097.7 secs

     total energy              =      -1.04849037 Ry
     estimated scf accuracy    <       0.00182998 Ry

     total magnetization       =     1.00 Bohr mag/cell
     absolute magnetization    =     1.00 Bohr mag/cell

     iteration #***     ecut=    60.00 Ry     beta= 0.70
     Davidson diagonalization with overlap
     ethr =  5.04E-08,  avg # of iterations =  7.5

     negative rho (up, down):  2.651E-05 1.376E-15

     total cpu time spent up to now is    36115.5 secs

     total energy              =      -1.04813354 Ry
     estimated scf accuracy    <       0.00011542 Ry

     total magnetization       =     1.00 Bohr mag/cell
     absolute magnetization    =     1.00 Bohr mag/cell

     iteration #***     ecut=    60.00 Ry     beta= 0.70
     Davidson diagonalization with overlap
     ethr =  5.04E-08,  avg # of iterations =  8.0

     negative rho (up, down):  3.275E-05 1.463E-15

     total cpu time spent up to now is    36133.2 secs

     total energy              =      -1.04814832 Ry
     estimated scf accuracy    <       0.00253364 Ry

     total magnetization       =     1.00 Bohr mag/cell
     absolute magnetization    =     1.00 Bohr mag/cell

     iteration #***     ecut=    60.00 Ry     beta= 0.70
     Davidson diagonalization with overlap
     ethr =  5.04E-08,  avg # of iterations =  8.9

     negative rho (up, down):  3.691E-05 1.472E-15

     total cpu time spent up to now is    36151.3 secs

     total energy              =      -1.04833185 Ry
     estimated scf accuracy    <       0.00317479 Ry

     total magnetization       =     1.00 Bohr mag/cell
     absolute magnetization    =     1.00 Bohr mag/cell

     iteration #***     ecut=    60.00 Ry     beta= 0.70
     Davidson diagonalization with overlap
     ethr =  5.04E-08,  avg # of iterations =  8.8

     negative rho (up, down):  3.165E-05 1.630E-15

     total cpu time spent up to now is    36169.5 secs

     total energy              =      -1.04881379 Ry
     estimated scf accuracy    <       0.00098110 Ry

     total magnetization       =     1.00 Bohr mag/cell
     absolute magnetization    =     1.00 Bohr mag/cell

     iteration #***     ecut=    60.00 Ry     beta= 0.70
     Davidson diagonalization with overlap
     ethr =  5.04E-08,  avg # of iterations =  9.3

     negative rho (up, down):  2.935E-05 1.507E-15

     total cpu time spent up to now is    36188.4 secs

     total energy              =      -1.04855099 Ry
     estimated scf accuracy    <       0.00071914 Ry

     total magnetization       =     1.00 Bohr mag/cell
     absolute magnetization    =     1.00 Bohr mag/cell

     iteration #***     ecut=    60.00 Ry     beta= 0.70
     Davidson diagonalization with overlap
     ethr =  5.04E-08,  avg # of iterations =  8.1

     negative rho (up, down):  2.836E-05 1.385E-15

     total cpu time spent up to now is    36206.3 secs

     total energy              =      -1.04828248 Ry
     estimated scf accuracy    <       0.00061438 Ry

     total magnetization       =     1.00 Bohr mag/cell
     absolute magnetization    =     1.00 Bohr mag/cell

     iteration #***     ecut=    60.00 Ry     beta= 0.70
     Davidson diagonalization with overlap
     ethr =  5.04E-08,  avg # of iterations =  7.3

     negative rho (up, down):  3.305E-05 1.468E-15

     total cpu time spent up to now is    36223.7 secs

     total energy              =      -1.04848328 Ry
     estimated scf accuracy    <       0.00227902 Ry

     total magnetization       =     1.00 Bohr mag/cell
     absolute magnetization    =     1.00 Bohr mag/cell

     iteration #***     ecut=    60.00 Ry     beta= 0.70
     Davidson diagonalization with overlap
     ethr =  5.04E-08,  avg # of iterations =  8.2

     negative rho (up, down):  3.251E-05 1.476E-15

     total cpu time spent up to now is    36242.0 secs

     total energy              =      -1.04866361 Ry
     estimated scf accuracy    <       0.00153314 Ry

     total magnetization       =     1.00 Bohr mag/cell
     absolute magnetization    =     1.00 Bohr mag/cell

     iteration #***     ecut=    60.00 Ry     beta= 0.70
     Davidson diagonalization with overlap
     ethr =  5.04E-08,  avg # of iterations =  7.8

     negative rho (up, down):  2.680E-05 1.334E-15

     total cpu time spent up to now is    36260.4 secs

     total energy              =      -1.04841111 Ry
     estimated scf accuracy    <       0.00011722 Ry

     total magnetization       =     1.00 Bohr mag/cell
     absolute magnetization    =     1.00 Bohr mag/cell

     iteration #***     ecut=    60.00 Ry     beta= 0.70
     Davidson diagonalization with overlap
     ethr =  5.04E-08,  avg # of iterations =  7.0

     negative rho (up, down):  3.089E-05 1.374E-15

     total cpu time spent up to now is    36277.9 secs

     total energy              =      -1.04840057 Ry
     estimated scf accuracy    <       0.00172373 Ry

     total magnetization       =     1.00 Bohr mag/cell
     absolute magnetization    =     1.00 Bohr mag/cell

     iteration #***     ecut=    60.00 Ry     beta= 0.70
     Davidson diagonalization with overlap
     ethr =  5.04E-08,  avg # of iterations =  7.3

     negative rho (up, down):  3.243E-05 1.401E-15

     total cpu time spent up to now is    36295.2 secs

     total energy              =      -1.04861287 Ry
     estimated scf accuracy    <       0.00169354 Ry

     total magnetization       =     1.00 Bohr mag/cell
     absolute magnetization    =     1.00 Bohr mag/cell

     iteration #***     ecut=    60.00 Ry     beta= 0.70
     Davidson diagonalization with overlap
     ethr =  5.04E-08,  avg # of iterations =  8.5

     negative rho (up, down):  2.792E-05 1.495E-15

     total cpu time spent up to now is    36313.4 secs

     total energy              =      -1.04850750 Ry
     estimated scf accuracy    <       0.00031361 Ry

     total magnetization       =     1.00 Bohr mag/cell
     absolute magnetization    =     1.00 Bohr mag/cell

     iteration #***     ecut=    60.00 Ry     beta= 0.70
     Davidson diagonalization with overlap
     ethr =  5.04E-08,  avg # of iterations =  8.8

     negative rho (up, down):  2.832E-05 1.477E-15

     total cpu time spent up to now is    36332.3 secs

     total energy              =      -1.04866544 Ry
     estimated scf accuracy    <       0.00070159 Ry

     total magnetization       =     1.00 Bohr mag/cell
     absolute magnetization    =     1.00 Bohr mag/cell

     iteration #***     ecut=    60.00 Ry     beta= 0.70
     Davidson diagonalization with overlap
     ethr =  5.04E-08,  avg # of iterations =  7.8

     negative rho (up, down):  3.007E-05 1.451E-15

     total cpu time spent up to now is    36350.0 secs

     total energy              =      -1.04864483 Ry
     estimated scf accuracy    <       0.00120977 Ry

     total magnetization       =     1.00 Bohr mag/cell
     absolute magnetization    =     1.00 Bohr mag/cell

     iteration #***     ecut=    60.00 Ry     beta= 0.70
     Davidson diagonalization with overlap
     ethr =  5.04E-08,  avg # of iterations =  9.2

     negative rho (up, down):  2.944E-05 1.390E-15

     total cpu time spent up to now is    36369.0 secs

     total energy              =      -1.04853408 Ry
     estimated scf accuracy    <       0.00083744 Ry

     total magnetization       =     1.00 Bohr mag/cell
     absolute magnetization    =     1.00 Bohr mag/cell

     iteration #***     ecut=    60.00 Ry     beta= 0.70
     Davidson diagonalization with overlap
     ethr =  5.04E-08,  avg # of iterations =  8.9

     negative rho (up, down):  3.142E-05 1.527E-15

     total cpu time spent up to now is    36388.2 secs

     total energy              =      -1.04883914 Ry
     estimated scf accuracy    <       0.00153222 Ry

     total magnetization       =     1.00 Bohr mag/cell
     absolute magnetization    =     1.00 Bohr mag/cell

     iteration #***     ecut=    60.00 Ry     beta= 0.70
     Davidson diagonalization with overlap
     ethr =  5.04E-08,  avg # of iterations =  8.9

     negative rho (up, down):  2.931E-05 1.477E-15

     total cpu time spent up to now is    36407.3 secs

     total energy              =      -1.04872537 Ry
     estimated scf accuracy    <       0.00069944 Ry

     total magnetization       =     1.00 Bohr mag/cell
     absolute magnetization    =     1.00 Bohr mag/cell

     iteration #***     ecut=    60.00 Ry     beta= 0.70
     Davidson diagonalization with overlap
     ethr =  5.04E-08,  avg # of iterations =  8.8

     negative rho (up, down):  2.832E-05 1.433E-15

     total cpu time spent up to now is    36425.5 secs

     total energy              =      -1.04881913 Ry
     estimated scf accuracy    <       0.00059386 Ry

     total magnetization       =     1.00 Bohr mag/cell
     absolute magnetization    =     1.00 Bohr mag/cell

     iteration #***     ecut=    60.00 Ry     beta= 0.70
     Davidson diagonalization with overlap
     ethr =  5.04E-08,  avg # of iterations =  9.1

     negative rho (up, down):  3.092E-05 1.428E-15

     total cpu time spent up to now is    36444.1 secs

     total energy              =      -1.04838515 Ry
     estimated scf accuracy    <       0.00150212 Ry

     total magnetization       =     1.00 Bohr mag/cell
     absolute magnetization    =     1.00 Bohr mag/cell

     iteration #***     ecut=    60.00 Ry     beta= 0.70
     Davidson diagonalization with overlap
     ethr =  5.04E-08,  avg # of iterations =  8.5

     negative rho (up, down):  2.901E-05 1.474E-15

     total cpu time spent up to now is    36463.1 secs

     total energy              =      -1.04891648 Ry
     estimated scf accuracy    <       0.00065097 Ry

     total magnetization       =     1.00 Bohr mag/cell
     absolute magnetization    =     1.00 Bohr mag/cell

     iteration #***     ecut=    60.00 Ry     beta= 0.70
     Davidson diagonalization with overlap
     ethr =  5.04E-08,  avg # of iterations =  9.0

     negative rho (up, down):  2.921E-05 1.454E-15

     total cpu time spent up to now is    36482.1 secs

     total energy              =      -1.04868957 Ry
     estimated scf accuracy    <       0.00086504 Ry

     total magnetization       =     1.00 Bohr mag/cell
     absolute magnetization    =     1.00 Bohr mag/cell

     iteration #***     ecut=    60.00 Ry     beta= 0.70
     Davidson diagonalization with overlap
     ethr =  5.04E-08,  avg # of iterations =  8.1

     negative rho (up, down):  2.988E-05 1.530E-15

     total cpu time spent up to now is    36500.3 secs

     total energy              =      -1.04879055 Ry
     estimated scf accuracy    <       0.00104689 Ry

     total magnetization       =     1.00 Bohr mag/cell
     absolute magnetization    =     1.00 Bohr mag/cell

     iteration #***     ecut=    60.00 Ry     beta= 0.70
     Davidson diagonalization with overlap
     ethr =  5.04E-08,  avg # of iterations =  6.7

     negative rho (up, down):  2.627E-05 1.436E-15

     total cpu time spent up to now is    36517.5 secs

     total energy              =      -1.04830774 Ry
     estimated scf accuracy    <       0.00010689 Ry

     total magnetization       =     1.00 Bohr mag/cell
     absolute magnetization    =     1.00 Bohr mag/cell

     iteration #***     ecut=    60.00 Ry     beta= 0.70
     Davidson diagonalization with overlap
     ethr =  5.04E-08,  avg # of iterations =  8.8

     negative rho (up, down):  2.865E-05 1.473E-15

     total cpu time spent up to now is    36535.5 secs

     total energy              =      -1.04825708 Ry
     estimated scf accuracy    <       0.00097540 Ry

     total magnetization       =     1.00 Bohr mag/cell
     absolute magnetization    =     1.00 Bohr mag/cell

     iteration #***     ecut=    60.00 Ry     beta= 0.70
     Davidson diagonalization with overlap
     ethr =  5.04E-08,  avg # of iterations =  9.2

     negative rho (up, down):  2.811E-05 1.388E-15

     total cpu time spent up to now is    36554.0 secs

     total energy              =      -1.04819542 Ry
     estimated scf accuracy    <       0.00057175 Ry

     total magnetization       =     1.00 Bohr mag/cell
     absolute magnetization    =     1.00 Bohr mag/cell

     iteration #***     ecut=    60.00 Ry     beta= 0.70
     Davidson diagonalization with overlap
     ethr =  5.04E-08,  avg # of iterations =  9.3

     negative rho (up, down):  2.921E-05 1.468E-15

     total cpu time spent up to now is    36572.8 secs

     total energy              =      -1.04830943 Ry
     estimated scf accuracy    <       0.00092825 Ry

     total magnetization       =     1.00 Bohr mag/cell
     absolute magnetization    =     1.00 Bohr mag/cell

     iteration #***     ecut=    60.00 Ry     beta= 0.70
     Davidson diagonalization with overlap
     ethr =  5.04E-08,  avg # of iterations =  8.5

     negative rho (up, down):  3.552E-05 1.452E-15

     total cpu time spent up to now is    36590.8 secs

     total energy              =      -1.04827591 Ry
     estimated scf accuracy    <       0.00306363 Ry

     total magnetization       =     1.00 Bohr mag/cell
     absolute magnetization    =     1.00 Bohr mag/cell

     iteration #***     ecut=    60.00 Ry     beta= 0.70
     Davidson diagonalization with overlap
     ethr =  5.04E-08,  avg # of iterations =  7.8

     negative rho (up, down):  2.657E-05 1.493E-15

     total cpu time spent up to now is    36608.6 secs

     total energy              =      -1.04856670 Ry
     estimated scf accuracy    <       0.00002948 Ry

     total magnetization       =     1.00 Bohr mag/cell
     absolute magnetization    =     1.00 Bohr mag/cell

     iteration #***     ecut=    60.00 Ry     beta= 0.70
     Davidson diagonalization with overlap
     ethr =  5.04E-08,  avg # of iterations =  7.4

     negative rho (up, down):  3.114E-05 1.454E-15

     total cpu time spent up to now is    36626.4 secs

     total energy              =      -1.04868242 Ry
     estimated scf accuracy    <       0.00182746 Ry

     total magnetization       =     1.00 Bohr mag/cell
     absolute magnetization    =     1.00 Bohr mag/cell

     iteration #***     ecut=    60.00 Ry     beta= 0.70
     Davidson diagonalization with overlap
     ethr =  5.04E-08,  avg # of iterations =  8.3

     negative rho (up, down):  2.927E-05 1.487E-15

     total cpu time spent up to now is    36644.6 secs

     total energy              =      -1.04856384 Ry
     estimated scf accuracy    <       0.00070740 Ry

     total magnetization       =     1.00 Bohr mag/cell
     absolute magnetization    =     1.00 Bohr mag/cell

     iteration #***     ecut=    60.00 Ry     beta= 0.70
     Davidson diagonalization with overlap
     ethr =  5.04E-08,  avg # of iterations =  6.8

     negative rho (up, down):  3.017E-05 1.550E-15

     total cpu time spent up to now is    36661.8 secs

     total energy              =      -1.04849105 Ry
     estimated scf accuracy    <       0.00112486 Ry

     total magnetization       =     1.00 Bohr mag/cell
     absolute magnetization    =     1.00 Bohr mag/cell

     iteration #***     ecut=    60.00 Ry     beta= 0.70
     Davidson diagonalization with overlap
     ethr =  5.04E-08,  avg # of iterations =  8.6

     negative rho (up, down):  2.804E-05 1.404E-15

     total cpu time spent up to now is    36679.9 secs

     total energy              =      -1.04819771 Ry
     estimated scf accuracy    <       0.00045649 Ry

     total magnetization       =     1.00 Bohr mag/cell
     absolute magnetization    =     1.00 Bohr mag/cell

     End of self-consistent calculation

     convergence NOT achieved after *** iterations: stopping

     Writing output data file ./H_ESM_pn5.save/

     init_run     :     19.06s CPU     20.03s WALL (       1 calls)
     electrons    :  34767.40s CPU  36660.67s WALL (       1 calls)

     Called by init_run:
     wfcinit      :      1.24s CPU      1.36s WALL (       1 calls)
     potinit      :      7.20s CPU      7.70s WALL (       1 calls)
     hinit0       :      0.73s CPU      0.84s WALL (       1 calls)

     Called by electrons:
     c_bands      :  12427.90s CPU  12561.56s WALL (    2000 calls)
     sum_band     :   3376.15s CPU   3416.14s WALL (    2000 calls)
     v_of_rho     :  11392.99s CPU  12193.56s WALL (    2001 calls)
     newd         :   1373.63s CPU   1392.72s WALL (    2001 calls)
     mix_rho      :   3980.64s CPU   4774.18s WALL (    2000 calls)

     Called by c_bands:
     init_us_2    :     11.34s CPU     12.50s WALL (   12003 calls)
     cegterg      :   7604.84s CPU   7683.12s WALL (    6000 calls)

     Called by *egterg:
     cdiaghg      :     43.57s CPU     44.27s WALL (   38088 calls)
     h_psi        :   6702.68s CPU   6770.34s WALL (   38091 calls)
     s_psi        :      7.83s CPU      8.16s WALL (   38091 calls)
     g_psi        :      9.86s CPU      9.98s WALL (   32088 calls)

     Called by h_psi:
     h_psi:calbec :     62.16s CPU     62.73s WALL (   38091 calls)
     vloc_psi     :   6600.87s CPU   6667.55s WALL (   38091 calls)
     add_vuspsi   :     14.75s CPU     14.94s WALL (   38091 calls)

     General routines
     calbec       :    123.91s CPU    124.87s WALL (   44091 calls)
     fft          :  12155.55s CPU  12388.99s WALL (   50022 calls)
     ffts         :    687.67s CPU    693.19s WALL (    8002 calls)
     fftw         :   6561.01s CPU   6624.73s WALL (  245416 calls)
     interpolate  :   1359.66s CPU   1455.80s WALL (    4002 calls)
     davcio       :     11.25s CPU    494.71s WALL (   65891 calls)

     Parallel routines
     fft_scatt_xy :   2098.74s CPU   2125.44s WALL (  303440 calls)
     fft_scatt_yz :  10729.48s CPU  10805.92s WALL (  303440 calls)

     PWSCF        :      9h39m CPU     10h11m WALL


   This run was terminated on:   5:15:30   6Jul2022            

=------------------------------------------------------------------------------=
   JOB DONE.
=------------------------------------------------------------------------------=
