
     Program PWSCF v.6.4.1 starts on  1Jun2022 at 14:32:16 

     This program is part of the open-source Quantum ESPRESSO suite
     for quantum simulation of materials; please cite
         "P. Giannozzi et al., J. Phys.:Condens. Matter 21 395502 (2009);
         "P. Giannozzi et al., J. Phys.:Condens. Matter 29 465901 (2017);
          URL http://www.quantum-espresso.org", 
     in publications or presentations arising from this work. More details at
     http://www.quantum-espresso.org/quote

     Parallel version (MPI), running on    80 processors

     MPI processes distributed on     4 nodes
     K-points division:     npool     =       8
     R & G space division:  proc/nbgrp/npool/nimage =      10
     Waiting for input...
     Reading input from standard input
Warning: card &CELL ignored
Warning: card / ignored

     Current dimensions of program PWSCF are:
     Max number of different atomic species (ntypx) = 10
     Max number of k-points (npk) =  40000
     Max angular momentum in pseudopotentials (lmaxx) =  3

     IMPORTANT: XC functional enforced from input :
     Exchange-correlation      = PBE ( 1  4  3  4 0 0)
     Any further DFT definition will be discarded
     Please, verify this is what you really want

               file Fe.pbe-spn-kjpaw_psl.0.2.1.UPF: wavefunction(s)  3D renormalized

     -------------------------------------------------
     Parameters for Dispersion (Grimme-D2) Correction:
     -------------------------------------------------
       atom      VdW radius       C_6     

        Fe         2.952        374.666
        H          1.892          4.857
        N          2.640         42.670

     Subspace diagonalization in iterative solution of the eigenvalue problem:
     one sub-group per band group will be used
     scalapack distributed-memory algorithm (size of sub-group:  2*  2 procs)


     Parallelization info
     --------------------
     sticks:   dense  smooth     PW     G-vecs:    dense   smooth      PW
     Min        1268     635    167               290556   102727   13987
     Max        1269     636    168               290565   102736   13992
     Sum       12685    6351   1677              2905599  1027285  139897



     bravais-lattice index     =            0
     lattice parameter (alat)  =      18.7640  a.u.
     unit-cell volume          =   16360.3163 (a.u.)^3
     number of atoms/cell      =           66
     number of atomic types    =            3
     number of electrons       =      1030.00
     number of Kohn-Sham states=          618
     kinetic-energy cutoff     =      60.0000  Ry
     charge density cutoff     =     480.0000  Ry
     convergence threshold     =      1.0E-08
     mixing beta               =       0.2000
     number of iterations used =           10  local-TF  mixing
     Exchange-correlation      = PBE ( 1  4  3  4 0 0)
     nstep                     =           50


     celldm(1)=  18.764036  celldm(2)=   0.000000  celldm(3)=   0.000000
     celldm(4)=   0.000000  celldm(5)=   0.000000  celldm(6)=   0.000000

     crystal axes: (cart. coord. in units of alat)
               a(1) = (   1.000000   0.000000   0.000000 )  
               a(2) = (   0.333330   0.942807   0.000000 )  
               a(3) = (   0.000000   0.000000   2.626577 )  

     reciprocal axes: (cart. coord. in units 2 pi/alat)
               b(1) = (  1.000000 -0.353551  0.000000 )  
               b(2) = (  0.000000  1.060663  0.000000 )  
               b(3) = (  0.000000  0.000000  0.380724 )  


     PseudoPot. # 1 for Fe read from file:
     ../../SSSP/Fe.pbe-spn-kjpaw_psl.0.2.1.UPF
     MD5 check sum: e86618425769142926afa95317d90200
     Pseudo is Projector augmented-wave + core cor, Zval = 16.0
     Generated using "atomic" code by A. Dal Corso v.5.0.99 svn rev. 10869
     Shape of augmentation charge: PSQ
     Using radial grid of 1191 points,  6 beta functions with: 
                l(1) =   0
                l(2) =   0
                l(3) =   1
                l(4) =   1
                l(5) =   2
                l(6) =   2
     Q(r) pseudized with 0 coefficients 


     PseudoPot. # 2 for H  read from file:
     ../../SSSP/H.pbe-rrkjus_psl.1.0.0.UPF
     MD5 check sum: f52b6d4d1c606e5624b1dc7b2218f220
     Pseudo is Ultrasoft, Zval =  1.0
     Generated using "atomic" code by A. Dal Corso v.5.1
     Using radial grid of  929 points,  2 beta functions with: 
                l(1) =   0
                l(2) =   0
     Q(r) pseudized with 0 coefficients 


     PseudoPot. # 3 for N  read from file:
     ../../SSSP/N.pbe-n-radius_5.UPF
     MD5 check sum: 16739722b17309cd8fe442a2ace49922
     Pseudo is Ultrasoft + core correction, Zval =  5.0
     Generated using "atomic" code by A. Dal Corso v.5.1
     Using radial grid of 1085 points,  4 beta functions with: 
                l(1) =   0
                l(2) =   0
                l(3) =   1
                l(4) =   1
     Q(r) pseudized with 0 coefficients 


     atomic species   valence    mass     pseudopotential
        Fe            16.00    55.84500     Fe( 1.00)
        H              1.00     1.00800     H ( 1.00)
        N              5.00    14.00700     N ( 1.00)

     Starting magnetic structure 
     atomic species   magnetization
        Fe           0.100
        H            0.100
        N            0.100

     No symmetry found



   Cartesian axes

     site n.     atom                  positions (alat units)
         1           Fe  tau(   1) = (   0.1666663   0.1178509   0.0000000  )
         2           Fe  tau(   2) = (   0.0000000   0.0000000   0.2041376  )
         3           Fe  tau(   3) = (   0.4999989   0.3535526   0.0000000  )
         4           Fe  tau(   4) = (   0.3333326   0.2357017   0.2041376  )
         5           Fe  tau(   5) = (   0.1686230   0.1179829   0.4050445  )
         6           Fe  tau(   6) = (   0.3342103   0.9416755   0.6029308  )
         7           Fe  tau(   7) = (   0.5009022   0.3550045   0.4066992  )
         8           Fe  tau(   8) = (   0.3393326   0.2351643   0.6044805  )
         9           Fe  tau(   9) = (   0.2499989   0.3535526   0.0000000  )
        10           Fe  tau(  10) = (   0.4166663   0.1178509   0.0000000  )
        11           Fe  tau(  11) = (   0.0833326   0.2357017   0.2041376  )
        12           Fe  tau(  12) = (   0.2500000   0.0000000   0.2041376  )
        13           Fe  tau(  13) = (   0.2499889   0.3536657   0.4067255  )
        14           Fe  tau(  14) = (   0.4191296   0.1197270   0.4058587  )
        15           Fe  tau(  15) = (   0.0867593   0.2337124   0.6031147  )
        16           Fe  tau(  16) = (   0.2513067   0.0011502   0.6041391  )
        17           Fe  tau(  17) = (   0.6666663   0.1178509   0.0000000  )
        18           Fe  tau(  18) = (   0.5000000   0.0000000   0.2041376  )
        19           Fe  tau(  19) = (   0.9999989   0.3535526   0.0000000  )
        20           Fe  tau(  20) = (   0.8333326   0.2357017   0.2041376  )
        21           Fe  tau(  21) = (   0.6682130   0.1184071   0.4067255  )
        22           Fe  tau(  22) = (   0.5012700   0.0061660   0.6044805  )
        23           Fe  tau(  23) = (   0.9990789   0.3523364   0.4066992  )
        24           Fe  tau(  24) = (   0.8424893   0.2229927   0.6009609  )
        25           Fe  tau(  25) = (   0.7499989   0.3535526   0.0000000  )
        26           Fe  tau(  26) = (   0.9166663   0.1178509   0.0000000  )
        27           Fe  tau(  27) = (   0.5833326   0.2357017   0.2041376  )
        28           Fe  tau(  28) = (   0.7500000   0.0000000   0.2041376  )
        29           Fe  tau(  29) = (   0.7499855   0.3536846   0.4022603  )
        30           Fe  tau(  30) = (   0.9186130   0.1151827   0.4029958  )
        31           Fe  tau(  31) = (   0.5926559   0.2425842   0.6081315  )
        32           Fe  tau(  32) = (   1.0841970   0.9390922   0.6031147  )
        33           Fe  tau(  33) = (   0.3333315   0.5892543   0.0000000  )
        34           Fe  tau(  34) = (   0.1666652   0.4714034   0.2041376  )
        35           Fe  tau(  35) = (   0.6666640   0.8249560   0.0000000  )
        36           Fe  tau(  36) = (   0.4999978   0.7071052   0.2041376  )
        37           Fe  tau(  37) = (   0.3313348   0.5893486   0.4050445  )
        38           Fe  tau(  38) = (   1.1606152   0.4723368   0.6044805  )
        39           Fe  tau(  39) = (   0.6673207   0.8269265   0.4050445  )
        40           Fe  tau(  40) = (   0.4990111   0.7086137   0.6029834  )
        41           Fe  tau(  41) = (   0.4166640   0.8249560   0.0000000  )
        42           Fe  tau(  42) = (   0.5833315   0.5892543   0.0000000  )
        43           Fe  tau(  43) = (   1.2499978   0.7071052   0.2041376  )
        44           Fe  tau(  44) = (   0.4166652   0.4714034   0.2041376  )
        45           Fe  tau(  45) = (   0.4166474   0.8250503   0.4047293  )
        46           Fe  tau(  46) = (   0.5813348   0.5921487   0.4029958  )
        47           Fe  tau(  47) = (   1.2485844   0.7063321   0.6041391  )
        48           Fe  tau(  48) = (   0.4132018   0.4737699   0.6030884  )
        49           Fe  tau(  49) = (   0.8333315   0.5892543   0.0000000  )
        50           Fe  tau(  50) = (   0.6666652   0.4714034   0.2041376  )
        51           Fe  tau(  51) = (   1.1666640   0.8249560   0.0000000  )
        52           Fe  tau(  52) = (   0.9999978   0.7071052   0.2041376  )
        53           Fe  tau(  53) = (   0.8317515   0.5889715   0.4066992  )
        54           Fe  tau(  54) = (   0.6574885   0.4845933   0.6009609  )
        55           Fe  tau(  55) = (   1.1659707   0.8232213   0.4050708  )
        56           Fe  tau(  56) = (   0.9986444   0.7014389   0.6044543  )
        57           Fe  tau(  57) = (   0.9166640   0.8249560   0.0000000  )
        58           Fe  tau(  58) = (   1.0833315   0.5892543   0.0000000  )
        59           Fe  tau(  59) = (   0.7499978   0.7071052   0.2041376  )
        60           Fe  tau(  60) = (   0.9166652   0.4714034   0.2041376  )
        61           Fe  tau(  61) = (   0.9166507   0.8250880   0.4067255  )
        62           Fe  tau(  62) = (   1.0808448   0.5876233   0.4058587  )
        63           Fe  tau(  63) = (   0.7490544   0.7113384   0.6030884  )
        64           Fe  tau(  64) = (   0.9073419   0.4651149   0.6080264  )
        65           H   tau(  65) = (   0.7502489   0.3541183   0.8067795  )
        66           N   tau(  66) = (   0.7501922   0.3540146   0.7029246  )

     number of k points=    10  Methfessel-Paxton smearing, width (Ry)=  0.0100
                       cart. coord. in units 2pi/alat
        k(    1) = (   0.0000000   0.0000000   0.0000000), wk =   0.0625000
        k(    2) = (   0.0000000   0.2651656   0.0000000), wk =   0.1250000
        k(    3) = (   0.0000000  -0.5303313   0.0000000), wk =   0.0625000
        k(    4) = (   0.2500000  -0.0883878   0.0000000), wk =   0.1250000
        k(    5) = (   0.2500000   0.1767779   0.0000000), wk =   0.1250000
        k(    6) = (   0.2500000  -0.6187190   0.0000000), wk =   0.1250000
        k(    7) = (   0.2500000  -0.3535534   0.0000000), wk =   0.1250000
        k(    8) = (  -0.5000000   0.1767755   0.0000000), wk =   0.0625000
        k(    9) = (  -0.5000000   0.4419412   0.0000000), wk =   0.1250000
        k(   10) = (  -0.5000000  -0.3535558   0.0000000), wk =   0.0625000

     Dense  grid:  2905599 G-vectors     FFT dimensions: ( 135, 135, 360)

     Smooth grid:  1027285 G-vectors     FFT dimensions: (  96,  96, 243)

     Estimated max dynamical RAM per process >       2.00 GB

     Estimated total dynamical RAM >     160.34 GB
     Generating pointlists ...
     new r_m :   0.0783 (alat units)  1.4694 (a.u.) for type    1
     new r_m :   0.0428 (alat units)  0.8039 (a.u.) for type    2
     new r_m :   0.0428 (alat units)  0.8039 (a.u.) for type    3

     Check: negative core charge=   -0.000039

     Initial potential from superposition of free atoms

     starting charge 1029.97193, renormalised to 1030.00000

     negative rho (up, down):  2.452E-02 2.529E-03
     Starting wfcs are  837 randomized atomic wfcs
     Checking if some PAW data can be deallocated... 

     total cpu time spent up to now is      174.2 secs

     Self-consistent Calculation

     iteration #  1     ecut=    60.00 Ry     beta= 0.20
     Davidson diagonalization with overlap
     ethr =  1.00E-04,  avg # of iterations = 11.4

     negative rho (up, down):  1.215E-02 4.200E-03

     total cpu time spent up to now is     1156.8 secs

     total energy              =  -21093.70806552 Ry
     Harris-Foulkes estimate   =  -21094.19792928 Ry
     estimated scf accuracy    <      29.28356705 Ry

     total magnetization       =   134.43 Bohr mag/cell
     absolute magnetization    =   134.69 Bohr mag/cell

     iteration #  2     ecut=    60.00 Ry     beta= 0.20
     Davidson diagonalization with overlap
     ethr =  2.84E-03,  avg # of iterations =  1.0

     negative rho (up, down):  6.259E-03 2.893E-02

     total cpu time spent up to now is     1459.1 secs

     total energy              =  -21093.88999854 Ry
     Harris-Foulkes estimate   =  -21094.01781062 Ry
     estimated scf accuracy    <       8.21709659 Ry

     total magnetization       =   136.91 Bohr mag/cell
     absolute magnetization    =   137.40 Bohr mag/cell

     iteration #  3     ecut=    60.00 Ry     beta= 0.20
     Davidson diagonalization with overlap
     ethr =  7.98E-04,  avg # of iterations =  1.0

     negative rho (up, down):  1.960E-02 2.233E-01

     total cpu time spent up to now is     1747.5 secs

     total energy              =  -21092.83911609 Ry
     Harris-Foulkes estimate   =  -21093.98648880 Ry
     estimated scf accuracy    <      10.19512805 Ry

     total magnetization       =   143.71 Bohr mag/cell
     absolute magnetization    =   144.61 Bohr mag/cell

     iteration #  4     ecut=    60.00 Ry     beta= 0.20
     Davidson diagonalization with overlap
     ethr =  7.98E-04,  avg # of iterations =  3.2

     negative rho (up, down):  1.068E-02 1.826E-01

     total cpu time spent up to now is     2137.9 secs

     total energy              =  -21093.68178404 Ry
     Harris-Foulkes estimate   =  -21093.71817409 Ry
     estimated scf accuracy    <       2.33072967 Ry

     total magnetization       =   157.01 Bohr mag/cell
     absolute magnetization    =   161.99 Bohr mag/cell

     iteration #  5     ecut=    60.00 Ry     beta= 0.20
     Davidson diagonalization with overlap
     ethr =  2.26E-04,  avg # of iterations =  3.0

     negative rho (up, down):  4.113E-03 1.172E-01

     total cpu time spent up to now is     2476.0 secs

     total energy              =  -21093.76865848 Ry
     Harris-Foulkes estimate   =  -21093.74719242 Ry
     estimated scf accuracy    <       0.67663872 Ry

     total magnetization       =   155.19 Bohr mag/cell
     absolute magnetization    =   160.44 Bohr mag/cell

     iteration #  6     ecut=    60.00 Ry     beta= 0.20
     Davidson diagonalization with overlap
     ethr =  6.57E-05,  avg # of iterations =  6.2

     negative rho (up, down):  2.123E-03 8.346E-02

     total cpu time spent up to now is     2924.4 secs

     total energy              =  -21093.79554709 Ry
     Harris-Foulkes estimate   =  -21093.81789951 Ry
     estimated scf accuracy    <       0.50187045 Ry

     total magnetization       =   154.66 Bohr mag/cell
     absolute magnetization    =   160.44 Bohr mag/cell

     iteration #  7     ecut=    60.00 Ry     beta= 0.20
     Davidson diagonalization with overlap
     ethr =  4.87E-05,  avg # of iterations =  2.3

     negative rho (up, down):  1.032E-03 4.712E-02

     total cpu time spent up to now is     3285.1 secs

     total energy              =  -21093.76718904 Ry
     Harris-Foulkes estimate   =  -21093.81106038 Ry
     estimated scf accuracy    <       0.26575352 Ry

     total magnetization       =   157.32 Bohr mag/cell
     absolute magnetization    =   163.40 Bohr mag/cell

     iteration #  8     ecut=    60.00 Ry     beta= 0.20
     Davidson diagonalization with overlap
     ethr =  2.58E-05,  avg # of iterations =  5.1

     negative rho (up, down):  1.854E-04 2.072E-02

     total cpu time spent up to now is     3689.8 secs

     total energy              =  -21093.77092356 Ry
     Harris-Foulkes estimate   =  -21093.78858116 Ry
     estimated scf accuracy    <       0.17148159 Ry

     total magnetization       =   160.20 Bohr mag/cell
     absolute magnetization    =   167.08 Bohr mag/cell

     iteration #  9     ecut=    60.00 Ry     beta= 0.20
     Davidson diagonalization with overlap
     ethr =  1.66E-05,  avg # of iterations =  3.0

     negative rho (up, down):  1.342E-04 1.867E-02

     total cpu time spent up to now is     4040.9 secs

     total energy              =  -21093.77688228 Ry
     Harris-Foulkes estimate   =  -21093.78912597 Ry
     estimated scf accuracy    <       0.17810513 Ry

     total magnetization       =   159.94 Bohr mag/cell
     absolute magnetization    =   166.36 Bohr mag/cell

     iteration # 10     ecut=    60.00 Ry     beta= 0.20
     Davidson diagonalization with overlap
     ethr =  1.66E-05,  avg # of iterations =  1.0

     negative rho (up, down):  1.143E-04 1.845E-02

     total cpu time spent up to now is     4324.0 secs

     total energy              =  -21093.76013801 Ry
     Harris-Foulkes estimate   =  -21093.77931848 Ry
     estimated scf accuracy    <       0.14008435 Ry

     total magnetization       =   160.91 Bohr mag/cell
     absolute magnetization    =   167.50 Bohr mag/cell

     iteration # 11     ecut=    60.00 Ry     beta= 0.20
     Davidson diagonalization with overlap
     ethr =  1.36E-05,  avg # of iterations =  2.0

     negative rho (up, down):  2.774E-03 1.569E-02

     total cpu time spent up to now is     4632.2 secs

     total energy              =  -21093.76158308 Ry
     Harris-Foulkes estimate   =  -21093.76493080 Ry
     estimated scf accuracy    <       0.08761725 Ry

     total magnetization       =   162.01 Bohr mag/cell
     absolute magnetization    =   168.78 Bohr mag/cell

     iteration # 12     ecut=    60.00 Ry     beta= 0.20
     Davidson diagonalization with overlap
     ethr =  8.51E-06,  avg # of iterations =  1.1

     negative rho (up, down):  9.198E-02 1.834E-02

     total cpu time spent up to now is     4922.0 secs

     total energy              =  -21093.75091700 Ry
     Harris-Foulkes estimate   =  -21093.76360842 Ry
     estimated scf accuracy    <       0.08411987 Ry

     total magnetization       =   161.72 Bohr mag/cell
     absolute magnetization    =   168.24 Bohr mag/cell

     iteration # 13     ecut=    60.00 Ry     beta= 0.20
     Davidson diagonalization with overlap
     ethr =  8.17E-06,  avg # of iterations =  1.1

     negative rho (up, down):  1.879E-01 1.552E-02

     total cpu time spent up to now is     5208.7 secs

     total energy              =  -21093.74352977 Ry
     Harris-Foulkes estimate   =  -21093.75180902 Ry
     estimated scf accuracy    <       0.06910444 Ry

     total magnetization       =   161.76 Bohr mag/cell
     absolute magnetization    =   168.12 Bohr mag/cell

     iteration # 14     ecut=    60.00 Ry     beta= 0.20
     Davidson diagonalization with overlap
     ethr =  6.71E-06,  avg # of iterations =  4.4

     negative rho (up, down):  2.198E-01 1.460E-02

     total cpu time spent up to now is     5611.7 secs

     total energy              =  -21093.74230524 Ry
     Harris-Foulkes estimate   =  -21093.74545955 Ry
     estimated scf accuracy    <       0.03141820 Ry

     total magnetization       =   161.68 Bohr mag/cell
     absolute magnetization    =   168.11 Bohr mag/cell

     iteration # 15     ecut=    60.00 Ry     beta= 0.20
     Davidson diagonalization with overlap
     ethr =  3.05E-06,  avg # of iterations =  5.1

     negative rho (up, down):  2.274E-01 1.374E-02

     total cpu time spent up to now is     6024.3 secs

     total energy              =  -21093.73398681 Ry
     Harris-Foulkes estimate   =  -21093.74281851 Ry
     estimated scf accuracy    <       0.02360658 Ry

     total magnetization       =   161.60 Bohr mag/cell
     absolute magnetization    =   168.11 Bohr mag/cell

     iteration # 16     ecut=    60.00 Ry     beta= 0.20
     Davidson diagonalization with overlap
     c_bands:  1 eigenvalues not converged
     ethr =  2.29E-06,  avg # of iterations =  8.9

     negative rho (up, down):  2.214E-01 1.586E-02

     total cpu time spent up to now is     6542.7 secs

     total energy              =  -21093.73471879 Ry
     Harris-Foulkes estimate   =  -21093.73601942 Ry
     estimated scf accuracy    <       0.01199595 Ry

     total magnetization       =   160.64 Bohr mag/cell
     absolute magnetization    =   167.16 Bohr mag/cell

     iteration # 17     ecut=    60.00 Ry     beta= 0.20
     Davidson diagonalization with overlap
     ethr =  1.16E-06,  avg # of iterations =  3.6

     negative rho (up, down):  1.457E-01 1.886E-02

     total cpu time spent up to now is     6932.6 secs

     total energy              =  -21093.73381004 Ry
     Harris-Foulkes estimate   =  -21093.73494994 Ry
     estimated scf accuracy    <       0.00601346 Ry

     total magnetization       =   160.47 Bohr mag/cell
     absolute magnetization    =   167.06 Bohr mag/cell

     iteration # 18     ecut=    60.00 Ry     beta= 0.20
     Davidson diagonalization with overlap
     ethr =  5.84E-07,  avg # of iterations =  2.6

     negative rho (up, down):  7.962E-02 2.074E-02

     total cpu time spent up to now is     7271.3 secs

     total energy              =  -21093.73368868 Ry
     Harris-Foulkes estimate   =  -21093.73394455 Ry
     estimated scf accuracy    <       0.00256550 Ry

     total magnetization       =   160.51 Bohr mag/cell
     absolute magnetization    =   167.12 Bohr mag/cell

     iteration # 19     ecut=    60.00 Ry     beta= 0.20
     Davidson diagonalization with overlap
     ethr =  2.49E-07,  avg # of iterations =  3.3

     negative rho (up, down):  6.429E-02 2.041E-02

     total cpu time spent up to now is     7624.1 secs

     total energy              =  -21093.73393929 Ry
     Harris-Foulkes estimate   =  -21093.73382292 Ry
     estimated scf accuracy    <       0.00071883 Ry

     total magnetization       =   160.53 Bohr mag/cell
     absolute magnetization    =   167.11 Bohr mag/cell

     iteration # 20     ecut=    60.00 Ry     beta= 0.20
     Davidson diagonalization with overlap
     ethr =  6.98E-08,  avg # of iterations =  3.2

     negative rho (up, down):  4.257E-02 1.940E-02

     total cpu time spent up to now is     8009.9 secs

     total energy              =  -21093.73416529 Ry
     Harris-Foulkes estimate   =  -21093.73397365 Ry
     estimated scf accuracy    <       0.00033099 Ry

     total magnetization       =   160.57 Bohr mag/cell
     absolute magnetization    =   167.16 Bohr mag/cell

     iteration # 21     ecut=    60.00 Ry     beta= 0.20
     Davidson diagonalization with overlap
     ethr =  3.21E-08,  avg # of iterations =  3.0

     negative rho (up, down):  2.649E-02 1.866E-02

     total cpu time spent up to now is     8340.8 secs

     total energy              =  -21093.73425113 Ry
     Harris-Foulkes estimate   =  -21093.73418222 Ry
     estimated scf accuracy    <       0.00014937 Ry

     total magnetization       =   160.62 Bohr mag/cell
     absolute magnetization    =   167.19 Bohr mag/cell

     iteration # 22     ecut=    60.00 Ry     beta= 0.20
     Davidson diagonalization with overlap
     ethr =  1.45E-08,  avg # of iterations =  3.0

     negative rho (up, down):  2.582E-02 1.834E-02

     total cpu time spent up to now is     8674.6 secs

     total energy              =  -21093.73427560 Ry
     Harris-Foulkes estimate   =  -21093.73426843 Ry
     estimated scf accuracy    <       0.00002023 Ry

     total magnetization       =   160.67 Bohr mag/cell
     absolute magnetization    =   167.23 Bohr mag/cell

     iteration # 23     ecut=    60.00 Ry     beta= 0.20
     Davidson diagonalization with overlap
     ethr =  1.96E-09,  avg # of iterations =  3.2

     negative rho (up, down):  2.511E-02 1.827E-02

     total cpu time spent up to now is     9054.7 secs

     total energy              =  -21093.73428341 Ry
     Harris-Foulkes estimate   =  -21093.73427804 Ry
     estimated scf accuracy    <       0.00001120 Ry

     total magnetization       =   160.68 Bohr mag/cell
     absolute magnetization    =   167.24 Bohr mag/cell

     iteration # 24     ecut=    60.00 Ry     beta= 0.20
     Davidson diagonalization with overlap
     ethr =  1.09E-09,  avg # of iterations =  1.7

     negative rho (up, down):  2.471E-02 1.818E-02

     total cpu time spent up to now is     9354.6 secs

     total energy              =  -21093.73428696 Ry
     Harris-Foulkes estimate   =  -21093.73428423 Ry
     estimated scf accuracy    <       0.00000557 Ry

     total magnetization       =   160.69 Bohr mag/cell
     absolute magnetization    =   167.26 Bohr mag/cell

     iteration # 25     ecut=    60.00 Ry     beta= 0.20
     Davidson diagonalization with overlap
     ethr =  5.41E-10,  avg # of iterations =  2.7

     negative rho (up, down):  2.477E-02 1.813E-02

     total cpu time spent up to now is     9698.3 secs

     total energy              =  -21093.73428915 Ry
     Harris-Foulkes estimate   =  -21093.73428781 Ry
     estimated scf accuracy    <       0.00000289 Ry

     total magnetization       =   160.71 Bohr mag/cell
     absolute magnetization    =   167.28 Bohr mag/cell

     iteration # 26     ecut=    60.00 Ry     beta= 0.20
     Davidson diagonalization with overlap
     ethr =  2.80E-10,  avg # of iterations =  2.0

     negative rho (up, down):  2.529E-02 1.813E-02

     total cpu time spent up to now is    10010.5 secs

     total energy              =  -21093.73428970 Ry
     Harris-Foulkes estimate   =  -21093.73428928 Ry
     estimated scf accuracy    <       0.00000198 Ry

     total magnetization       =   160.72 Bohr mag/cell
     absolute magnetization    =   167.28 Bohr mag/cell

     iteration # 27     ecut=    60.00 Ry     beta= 0.20
     Davidson diagonalization with overlap
     ethr =  1.92E-10,  avg # of iterations =  3.1

     negative rho (up, down):  2.539E-02 1.812E-02

     total cpu time spent up to now is    10388.2 secs

     total energy              =  -21093.73429048 Ry
     Harris-Foulkes estimate   =  -21093.73429014 Ry
     estimated scf accuracy    <       0.00000078 Ry

     total magnetization       =   160.74 Bohr mag/cell
     absolute magnetization    =   167.30 Bohr mag/cell

     iteration # 28     ecut=    60.00 Ry     beta= 0.20
     Davidson diagonalization with overlap
     ethr =  7.55E-11,  avg # of iterations =  2.6

     negative rho (up, down):  2.533E-02 1.810E-02

     total cpu time spent up to now is    10717.9 secs

     total energy              =  -21093.73429072 Ry
     Harris-Foulkes estimate   =  -21093.73429053 Ry
     estimated scf accuracy    <       0.00000054 Ry

     total magnetization       =   160.74 Bohr mag/cell
     absolute magnetization    =   167.31 Bohr mag/cell

     iteration # 29     ecut=    60.00 Ry     beta= 0.20
     Davidson diagonalization with overlap
     ethr =  5.25E-11,  avg # of iterations =  2.6

     negative rho (up, down):  2.513E-02 1.810E-02

     total cpu time spent up to now is    11054.9 secs

     total energy              =  -21093.73429088 Ry
     Harris-Foulkes estimate   =  -21093.73429079 Ry
     estimated scf accuracy    <       0.00000020 Ry

     total magnetization       =   160.75 Bohr mag/cell
     absolute magnetization    =   167.31 Bohr mag/cell

     iteration # 30     ecut=    60.00 Ry     beta= 0.20
     Davidson diagonalization with overlap
     ethr =  1.91E-11,  avg # of iterations =  3.0

     negative rho (up, down):  2.512E-02 1.809E-02

     total cpu time spent up to now is    11478.5 secs

     total energy              =  -21093.73429104 Ry
     Harris-Foulkes estimate   =  -21093.73429093 Ry
     estimated scf accuracy    <       0.00000003 Ry

     total magnetization       =   160.75 Bohr mag/cell
     absolute magnetization    =   167.32 Bohr mag/cell

     iteration # 31     ecut=    60.00 Ry     beta= 0.20
     Davidson diagonalization with overlap
     ethr =  2.75E-12,  avg # of iterations =  3.4

     negative rho (up, down):  2.513E-02 1.808E-02

     total cpu time spent up to now is    12023.5 secs

     total energy              =  -21093.73429112 Ry
     Harris-Foulkes estimate   =  -21093.73429105 Ry
     estimated scf accuracy    <       0.00000002 Ry

     total magnetization       =   160.75 Bohr mag/cell
     absolute magnetization    =   167.32 Bohr mag/cell

     iteration # 32     ecut=    60.00 Ry     beta= 0.20
     Davidson diagonalization with overlap
     ethr =  1.87E-12,  avg # of iterations =  2.0

     negative rho (up, down):  2.515E-02 1.808E-02

     total cpu time spent up to now is    12346.6 secs

     total energy              =  -21093.73429117 Ry
     Harris-Foulkes estimate   =  -21093.73429112 Ry
     estimated scf accuracy    <       0.00000001 Ry

     total magnetization       =   160.75 Bohr mag/cell
     absolute magnetization    =   167.32 Bohr mag/cell

     iteration # 33     ecut=    60.00 Ry     beta= 0.20
     Davidson diagonalization with overlap
     ethr =  1.08E-12,  avg # of iterations =  2.3

     negative rho (up, down):  2.514E-02 1.806E-02

     Magnetic moment per site:
     atom:    1    charge:   12.9406    magn:    2.4312    constr:    0.0000
     atom:    2    charge:   12.9380    magn:    2.2606    constr:    0.0000
     atom:    3    charge:   12.9399    magn:    2.4377    constr:    0.0000
     atom:    4    charge:   12.9341    magn:    2.2583    constr:    0.0000
     atom:    5    charge:   12.9400    magn:    2.2314    constr:    0.0000
     atom:    6    charge:   12.9417    magn:    2.4039    constr:    0.0000
     atom:    7    charge:   12.9358    magn:    2.2376    constr:    0.0000
     atom:    8    charge:   12.9392    magn:    2.4335    constr:    0.0000
     atom:    9    charge:   12.9408    magn:    2.4294    constr:    0.0000
     atom:   10    charge:   12.9400    magn:    2.4374    constr:    0.0000
     atom:   11    charge:   12.9341    magn:    2.2643    constr:    0.0000
     atom:   12    charge:   12.9356    magn:    2.2542    constr:    0.0000
     atom:   13    charge:   12.9355    magn:    2.2494    constr:    0.0000
     atom:   14    charge:   12.9404    magn:    2.2002    constr:    0.0000
     atom:   15    charge:   12.9449    magn:    2.3902    constr:    0.0000
     atom:   16    charge:   12.9434    magn:    2.4016    constr:    0.0000
     atom:   17    charge:   12.9400    magn:    2.4377    constr:    0.0000
     atom:   18    charge:   12.9340    magn:    2.2583    constr:    0.0000
     atom:   19    charge:   12.9400    magn:    2.4377    constr:    0.0000
     atom:   20    charge:   12.9353    magn:    2.2485    constr:    0.0000
     atom:   21    charge:   12.9359    magn:    2.2380    constr:    0.0000
     atom:   22    charge:   12.9391    magn:    2.4336    constr:    0.0000
     atom:   23    charge:   12.9359    magn:    2.2380    constr:    0.0000
     atom:   24    charge:   12.9471    magn:    1.9201    constr:    0.0000
     atom:   25    charge:   12.9390    magn:    2.4449    constr:    0.0000
     atom:   26    charge:   12.9404    magn:    2.4311    constr:    0.0000
     atom:   27    charge:   12.9330    magn:    2.2667    constr:    0.0000
     atom:   28    charge:   12.9341    magn:    2.2646    constr:    0.0000
     atom:   29    charge:   12.9392    magn:    2.2846    constr:    0.0000
     atom:   30    charge:   12.9414    magn:    2.1744    constr:    0.0000
     atom:   31    charge:   12.9333    magn:    2.3069    constr:    0.0000
     atom:   32    charge:   12.9449    magn:    2.3898    constr:    0.0000
     atom:   33    charge:   12.9401    magn:    2.4311    constr:    0.0000
     atom:   34    charge:   12.9340    magn:    2.2583    constr:    0.0000
     atom:   35    charge:   12.9401    magn:    2.4311    constr:    0.0000
     atom:   36    charge:   12.9371    magn:    2.2605    constr:    0.0000
     atom:   37    charge:   12.9397    magn:    2.2311    constr:    0.0000
     atom:   38    charge:   12.9392    magn:    2.4334    constr:    0.0000
     atom:   39    charge:   12.9397    magn:    2.2311    constr:    0.0000
     atom:   40    charge:   12.9414    magn:    2.4040    constr:    0.0000
     atom:   41    charge:   12.9403    magn:    2.4430    constr:    0.0000
     atom:   42    charge:   12.9397    magn:    2.4310    constr:    0.0000
     atom:   43    charge:   12.9356    magn:    2.2544    constr:    0.0000
     atom:   44    charge:   12.9337    magn:    2.2644    constr:    0.0000
     atom:   45    charge:   12.9394    magn:    2.2171    constr:    0.0000
     atom:   46    charge:   12.9417    magn:    2.1748    constr:    0.0000
     atom:   47    charge:   12.9434    magn:    2.4014    constr:    0.0000
     atom:   48    charge:   12.9452    magn:    2.3897    constr:    0.0000
     atom:   49    charge:   12.9399    magn:    2.4377    constr:    0.0000
     atom:   50    charge:   12.9349    magn:    2.2483    constr:    0.0000
     atom:   51    charge:   12.9406    magn:    2.4312    constr:    0.0000
     atom:   52    charge:   12.9341    magn:    2.2583    constr:    0.0000
     atom:   53    charge:   12.9358    magn:    2.2377    constr:    0.0000
     atom:   54    charge:   12.9468    magn:    1.9186    constr:    0.0000
     atom:   55    charge:   12.9400    magn:    2.2314    constr:    0.0000
     atom:   56    charge:   12.9391    magn:    2.4331    constr:    0.0000
     atom:   57    charge:   12.9408    magn:    2.4294    constr:    0.0000
     atom:   58    charge:   12.9400    magn:    2.4375    constr:    0.0000
     atom:   59    charge:   12.9337    magn:    2.2643    constr:    0.0000
     atom:   60    charge:   12.9330    magn:    2.2668    constr:    0.0000
     atom:   61    charge:   12.9355    magn:    2.2493    constr:    0.0000
     atom:   62    charge:   12.9403    magn:    2.2004    constr:    0.0000
     atom:   63    charge:   12.9452    magn:    2.3900    constr:    0.0000
     atom:   64    charge:   12.9334    magn:    2.3023    constr:    0.0000
     atom:   65    charge:    0.4379    magn:    0.0074    constr:    0.0000
     atom:   66    charge:    1.3385    magn:   -0.0319    constr:    0.0000

     total cpu time spent up to now is    12642.9 secs

     End of self-consistent calculation

 ------ SPIN UP ------------


          k = 0.0000 0.0000 0.0000 (128403 PWs)   bands (ev):

   -85.8489 -85.8458 -85.8095 -85.8018 -85.7970 -85.7955 -85.7951 -85.7931
   -85.7907 -85.7892 -85.7864 -85.7822 -85.7783 -85.7741 -85.7723 -85.7721
   -85.7681 -85.7673 -85.7636 -85.7626 -85.7624 -85.7588 -85.7545 -85.7471
   -85.7456 -85.7430 -85.7408 -85.7398 -85.7356 -85.7280 -85.7045 -85.6987
   -85.6907 -85.6726 -85.6609 -85.6595 -85.6583 -85.6520 -85.6474 -85.6448
   -85.6379 -85.6377 -85.6371 -85.6353 -85.6350 -85.6332 -85.6319 -85.6281
   -85.6279 -85.6274 -85.6234 -85.6194 -85.6193 -85.6186 -85.6159 -85.6144
   -85.6115 -85.6083 -85.6036 -85.6028 -85.5962 -85.5950 -85.5878 -85.5788
   -52.0378 -52.0257 -52.0027 -51.9907 -51.9878 -51.9839 -51.9828 -51.9825
   -51.9811 -51.9788 -51.9787 -51.9747 -51.9719 -51.9712 -51.9679 -51.9649
   -51.9635 -51.9571 -51.9559 -51.9547 -51.9514 -51.9506 -51.9499 -51.9484
   -51.9473 -51.9435 -51.9373 -51.9368 -51.9357 -51.9353 -51.9352 -51.9324
   -51.9290 -51.9229 -51.9169 -51.9158 -51.9136 -51.9019 -51.8933 -51.8931
   -51.8930 -51.8927 -51.8889 -51.8889 -51.8814 -51.8802 -51.8605 -51.8479
   -51.8377 -51.8371 -51.8340 -51.8311 -51.8271 -51.8225 -51.8210 -51.8206
   -51.8190 -51.8160 -51.8140 -51.8129 -51.8107 -51.8105 -51.8103 -51.8062
   -51.8054 -51.7996 -51.7954 -51.7946 -51.7936 -51.7925 -51.7890 -51.7879
   -51.7832 -51.7756 -51.7728 -51.7693 -51.7686 -51.7680 -51.7619 -51.7610
   -51.7590 -51.7581 -51.7533 -51.7518 -51.7505 -51.7500 -51.7481 -51.7464
   -51.7449 -51.7433 -51.7424 -51.7409 -51.7397 -51.7345 -51.7336 -51.7327
   -51.7300 -51.7293 -51.7261 -51.7224 -51.7144 -51.7138 -51.7115 -51.7113
   -51.7071 -51.7044 -51.7030 -51.6977 -51.6974 -51.6970 -51.6949 -51.6931
   -51.6928 -51.6887 -51.6857 -51.6846 -51.6842 -51.6798 -51.6792 -51.6778
   -51.6759 -51.6743 -51.6738 -51.6737 -51.6717 -51.6691 -51.6683 -51.6670
   -51.6643 -51.6641 -51.6608 -51.6532 -51.6526 -51.6514 -51.6488 -51.6477
   -51.6419 -51.6406 -51.6402 -51.6359 -51.6345 -51.6329 -51.6321 -51.6307
   -51.6300 -51.6297 -51.6171 -51.6169 -51.6081 -51.6060 -51.6046 -51.6044
   -51.6036 -51.6009 -51.6003 -51.5985 -51.5906 -51.5899 -51.5861 -51.5837
   -51.5825 -51.5814 -51.5812 -51.5787 -51.5767 -51.5744 -51.5707 -51.5657
   -51.5654 -51.5653 -51.5614 -51.5543 -51.5534 -51.5497 -51.5487 -51.5467
   -51.5453 -51.5410 -51.5399 -51.5387 -51.5358 -51.5317 -51.5309 -51.5295
   -51.5282 -51.5278 -51.5261 -51.5246 -51.5243 -51.5225 -51.5180 -51.5143
   -13.8819  -5.7646  -5.3975  -4.2686  -3.9871  -3.9340  -3.8952  -3.8487
    -3.4787  -3.4086  -3.2315  -3.2279  -2.9486  -2.9119  -2.7760  -2.7545
    -2.6119  -2.4917  -2.4489  -2.4129  -2.2895  -2.2864  -2.2431  -2.2385
    -2.2209  -2.1803  -2.1578  -2.1001  -2.0968  -1.8498  -1.8189  -1.8094
    -1.8080  -1.7720  -1.7333  -1.7297  -1.7107  -1.7080  -1.7067  -1.6881
    -1.6869  -1.6844  -1.6839  -1.6750  -1.6727  -1.6709  -1.6482  -1.6442
    -1.6291  -1.6261  -1.6188  -1.6049  -1.5977  -1.5928  -1.5714  -1.5493
    -1.5230  -1.5064  -1.4930  -1.4383  -1.4304  -1.4286  -1.4155  -1.4103
    -1.3316  -1.3211  -1.1366  -1.1294  -1.1057  -1.1025  -1.1015  -1.0804
    -1.0230  -0.9718  -0.9572  -0.9492  -0.9454  -0.9279  -0.9267  -0.9256
    -0.9071  -0.8992  -0.8903  -0.8898  -0.8829  -0.8816  -0.8789  -0.8754
    -0.8751  -0.8665  -0.8634  -0.8441  -0.8433  -0.8407  -0.8372  -0.8235
    -0.8050  -0.7945  -0.7942  -0.7831  -0.7829  -0.7744  -0.7688  -0.7620
    -0.7564  -0.7347  -0.7310  -0.7293  -0.7251  -0.7209  -0.7148  -0.6516
    -0.6464  -0.5700  -0.5493  -0.5485  -0.5468  -0.5405  -0.4933  -0.4760
    -0.4345  -0.4248  -0.3572  -0.3556  -0.3496  -0.3461  -0.3412  -0.3364
    -0.3287  -0.3107  -0.3033  -0.2717  -0.2704  -0.2512  -0.2402  -0.2344
    -0.2258  -0.2220  -0.2101  -0.2088  -0.2024  -0.2007  -0.1989  -0.1907
    -0.1819  -0.1427  -0.1391  -0.1146  -0.1065  -0.0507  -0.0458  -0.0453
    -0.0447  -0.0227   0.0014   0.0058   0.0128   0.0186   0.0295   0.0411
     0.0712   0.0719   0.0721   0.1005   0.1036   0.1059   0.1066   0.1079
     0.1409   0.1477   0.1544   0.1755   0.1909   0.1984   0.2029   0.2046
     0.2175   0.2226   0.2327   0.2341   0.2345   0.2371   0.2571   0.2615
     0.2911   0.2941   0.3572   0.3626   0.3666   0.4735   0.4791   0.6225
     0.6369   0.6446   0.7545   0.7600   0.7629   0.7717   0.7736   0.7797
     0.7901   0.7932   0.8054   0.8255   0.8320   0.8344   0.8475   0.8561
     0.8978   0.9020   0.9092   0.9328   0.9333   0.9481   0.9581   0.9600
     0.9675   0.9762   0.9766   0.9839   0.9867   0.9953   1.0205   1.0225
     1.0367   1.0431   1.0530   1.0596   1.0696   1.0724   1.0800   1.0818
     1.1038   1.1056   1.1117   1.1169   1.1172   1.1224   1.1364   1.1386
     1.1405   1.1660   1.1719   1.1801   1.1809   1.1814   1.1856   1.1901
     1.1928   1.1981   1.2017   1.2035   1.2035   1.2077   1.2100   1.2162
     1.2169   1.2221   1.2286   1.2349   1.2384   1.2390   1.2486   1.2550
     1.2581   1.2716   1.2767   1.2792   1.2886   1.2961   1.3084   1.3127
     1.3154   1.3173   1.3215   1.3226   1.3266   1.3334   1.3396   1.3417
     1.3616   1.3662   1.3959   1.4056   1.4121   1.4210   1.4397   1.4420
     1.4510   1.4613   1.4648   1.4732   1.5390   1.5456   1.5687   1.5699
     1.5763   1.5839   1.5920   1.5997   1.6067   1.6095   1.6120   1.6170
     1.6211   1.6379   1.6385   1.6408   1.6565   1.6709   1.6740   1.6765
     1.6767   1.6874   1.7422   1.7669   1.8692   1.9280   2.0743   2.0760
     2.0776   2.0927   2.1645   2.1676   2.1903   2.2014   2.2056   2.2336
     2.2675   2.2956   2.3019   2.3289   2.3378   2.3426   2.3646   2.3981
     2.4166   2.4205   2.4525   2.5320   2.5488   2.5835   2.5852   2.6528
     2.6768   2.7551   2.9180   2.9434   3.0215   3.3640   3.3897   3.4023
     3.4116   3.6337   3.6880   3.9059   4.2140   4.2477   4.2977   4.2993
     4.2996   4.3058

          k = 0.0000 0.2652 0.0000 (128375 PWs)   bands (ev):

   -85.8488 -85.8459 -85.8083 -85.8014 -85.7987 -85.7983 -85.7941 -85.7920
   -85.7911 -85.7883 -85.7852 -85.7828 -85.7790 -85.7757 -85.7723 -85.7689
   -85.7687 -85.7667 -85.7656 -85.7621 -85.7616 -85.7600 -85.7530 -85.7479
   -85.7451 -85.7429 -85.7416 -85.7391 -85.7359 -85.7281 -85.7045 -85.6987
   -85.6906 -85.6720 -85.6650 -85.6591 -85.6556 -85.6514 -85.6464 -85.6434
   -85.6409 -85.6388 -85.6374 -85.6364 -85.6339 -85.6326 -85.6321 -85.6285
   -85.6273 -85.6252 -85.6235 -85.6213 -85.6191 -85.6179 -85.6162 -85.6134
   -85.6121 -85.6079 -85.6050 -85.6032 -85.5962 -85.5939 -85.5869 -85.5796
   -52.0368 -52.0259 -52.0012 -51.9907 -51.9897 -51.9856 -51.9845 -51.9824
   -51.9810 -51.9792 -51.9776 -51.9747 -51.9717 -51.9689 -51.9665 -51.9641
   -51.9623 -51.9589 -51.9565 -51.9546 -51.9520 -51.9505 -51.9492 -51.9478
   -51.9461 -51.9405 -51.9384 -51.9365 -51.9361 -51.9336 -51.9331 -51.9306
   -51.9236 -51.9226 -51.9148 -51.9106 -51.9060 -51.9048 -51.9007 -51.8940
   -51.8910 -51.8885 -51.8850 -51.8820 -51.8797 -51.8743 -51.8562 -51.8538
   -51.8470 -51.8395 -51.8379 -51.8353 -51.8349 -51.8312 -51.8276 -51.8242
   -51.8215 -51.8170 -51.8135 -51.8124 -51.8097 -51.8093 -51.8089 -51.8060
   -51.8040 -51.8029 -51.8017 -51.7981 -51.7959 -51.7933 -51.7907 -51.7879
   -51.7854 -51.7836 -51.7827 -51.7803 -51.7777 -51.7699 -51.7684 -51.7663
   -51.7635 -51.7614 -51.7585 -51.7576 -51.7554 -51.7515 -51.7457 -51.7453
   -51.7434 -51.7403 -51.7367 -51.7353 -51.7325 -51.7302 -51.7283 -51.7280
   -51.7260 -51.7224 -51.7212 -51.7185 -51.7182 -51.7164 -51.7128 -51.7092
   -51.7081 -51.7053 -51.7034 -51.7006 -51.6983 -51.6973 -51.6961 -51.6937
   -51.6926 -51.6894 -51.6887 -51.6868 -51.6853 -51.6821 -51.6789 -51.6772
   -51.6767 -51.6734 -51.6697 -51.6689 -51.6647 -51.6632 -51.6626 -51.6610
   -51.6581 -51.6548 -51.6546 -51.6538 -51.6507 -51.6484 -51.6454 -51.6430
   -51.6417 -51.6397 -51.6390 -51.6347 -51.6331 -51.6324 -51.6292 -51.6264
   -51.6234 -51.6202 -51.6200 -51.6173 -51.6105 -51.6085 -51.6067 -51.6045
   -51.6028 -51.5990 -51.5988 -51.5962 -51.5924 -51.5919 -51.5887 -51.5866
   -51.5824 -51.5811 -51.5791 -51.5767 -51.5731 -51.5703 -51.5673 -51.5650
   -51.5632 -51.5609 -51.5584 -51.5550 -51.5525 -51.5509 -51.5502 -51.5481
   -51.5464 -51.5443 -51.5422 -51.5405 -51.5367 -51.5363 -51.5355 -51.5325
   -51.5321 -51.5313 -51.5304 -51.5278 -51.5266 -51.5238 -51.5214 -51.5163
   -13.8819  -5.7168  -5.3371  -4.5747  -4.1704  -4.0501  -3.7881  -3.6181
    -3.4926  -3.2426  -3.2307  -3.0301  -2.9316  -2.8716  -2.7672  -2.7185
    -2.5741  -2.5275  -2.4503  -2.3728  -2.3252  -2.2522  -2.2234  -2.1940
    -2.1762  -2.1620  -2.1343  -2.1129  -2.0887  -1.9792  -1.9129  -1.8728
    -1.8456  -1.8288  -1.8239  -1.8136  -1.8002  -1.7951  -1.7839  -1.7670
    -1.7550  -1.7357  -1.7180  -1.7026  -1.6882  -1.6786  -1.6608  -1.6534
    -1.6315  -1.6229  -1.6153  -1.6008  -1.5689  -1.5390  -1.5335  -1.5277
    -1.5212  -1.5167  -1.4753  -1.4355  -1.4292  -1.3733  -1.3539  -1.3253
    -1.3185  -1.2844  -1.2315  -1.2122  -1.1720  -1.1332  -1.0977  -1.0629
    -1.0461  -1.0303  -1.0102  -0.9559  -0.9449  -0.9320  -0.9254  -0.9124
    -0.9087  -0.9011  -0.8911  -0.8813  -0.8807  -0.8710  -0.8668  -0.8568
    -0.8481  -0.8405  -0.8308  -0.8303  -0.8166  -0.8135  -0.8033  -0.7940
    -0.7899  -0.7846  -0.7796  -0.7703  -0.7693  -0.7610  -0.7524  -0.7322
    -0.7042  -0.6989  -0.6907  -0.6795  -0.6754  -0.6588  -0.6391  -0.6310
    -0.6247  -0.6181  -0.5947  -0.5673  -0.5234  -0.5104  -0.4789  -0.4637
    -0.4452  -0.4331  -0.4278  -0.4143  -0.4045  -0.3566  -0.3353  -0.3325
    -0.3186  -0.3130  -0.3097  -0.2943  -0.2876  -0.2843  -0.2746  -0.2695
    -0.2595  -0.2385  -0.2282  -0.2245  -0.2228  -0.1981  -0.1847  -0.1733
    -0.1684  -0.1307  -0.1117  -0.1019  -0.0735  -0.0662  -0.0612  -0.0547
    -0.0416  -0.0328  -0.0295  -0.0250  -0.0176  -0.0085   0.0003   0.0085
     0.0144   0.0243   0.0365   0.0402   0.0499   0.0702   0.0812   0.1225
     0.1350   0.1428   0.1633   0.1714   0.1887   0.2009   0.2023   0.2263
     0.2321   0.2431   0.2588   0.2786   0.3068   0.3227   0.3441   0.3740
     0.3754   0.4055   0.4309   0.4365   0.4518   0.5078   0.6080   0.6353
     0.6445   0.6452   0.6911   0.7063   0.7138   0.7259   0.7565   0.7619
     0.7847   0.7917   0.7956   0.8041   0.8176   0.8281   0.8289   0.8410
     0.8522   0.8727   0.8829   0.8862   0.9093   0.9247   0.9494   0.9658
     0.9679   0.9760   0.9805   0.9861   0.9900   0.9983   1.0082   1.0158
     1.0175   1.0257   1.0357   1.0416   1.0710   1.0864   1.0918   1.0941
     1.0991   1.1053   1.1171   1.1202   1.1240   1.1328   1.1411   1.1421
     1.1494   1.1527   1.1593   1.1666   1.1719   1.1749   1.1839   1.1946
     1.1975   1.2128   1.2173   1.2198   1.2286   1.2333   1.2386   1.2416
     1.2451   1.2488   1.2515   1.2622   1.2650   1.2706   1.2716   1.2858
     1.2914   1.2932   1.3072   1.3101   1.3124   1.3160   1.3178   1.3195
     1.3290   1.3326   1.3572   1.3581   1.3621   1.3706   1.3812   1.3865
     1.3931   1.4146   1.4295   1.4490   1.4547   1.4563   1.4656   1.4739
     1.4826   1.4890   1.4996   1.5073   1.5141   1.5176   1.5264   1.5383
     1.5555   1.5640   1.5872   1.5876   1.5930   1.6015   1.6124   1.6181
     1.6339   1.6366   1.6388   1.6543   1.6638   1.6831   1.7296   1.7586
     1.7748   1.7830   1.8600   1.8960   1.9278   2.0163   2.0303   2.0540
     2.0559   2.0754   2.0942   2.0976   2.1164   2.1425   2.1766   2.1798
     2.1945   2.2038   2.2205   2.2290   2.2404   2.2557   2.2644   2.2962
     2.3025   2.3167   2.3707   2.3880   2.4183   2.4594   2.4727   2.6111
     2.6475   2.8651   3.0203   3.0529   3.1182   3.2409   3.3281   3.4201
     3.5279   3.5826   3.6605   3.7105   3.7696   3.9297   3.9725   4.0316
     4.1900   4.2560

          k = 0.0000-0.5303 0.0000 (128388 PWs)   bands (ev):

   -85.8488 -85.8459 -85.8060 -85.8025 -85.8003 -85.7999 -85.7924 -85.7923
   -85.7900 -85.7893 -85.7842 -85.7837 -85.7792 -85.7759 -85.7707 -85.7703
   -85.7692 -85.7654 -85.7640 -85.7633 -85.7618 -85.7612 -85.7506 -85.7497
   -85.7440 -85.7436 -85.7420 -85.7386 -85.7361 -85.7283 -85.7045 -85.6986
   -85.6905 -85.6709 -85.6678 -85.6596 -85.6542 -85.6482 -85.6481 -85.6430
   -85.6407 -85.6406 -85.6385 -85.6364 -85.6333 -85.6325 -85.6324 -85.6281
   -85.6268 -85.6245 -85.6239 -85.6209 -85.6196 -85.6184 -85.6153 -85.6132
   -85.6123 -85.6070 -85.6068 -85.6040 -85.5954 -85.5939 -85.5855 -85.5808
   -52.0357 -52.0261 -51.9967 -51.9964 -51.9899 -51.9854 -51.9847 -51.9834
   -51.9805 -51.9793 -51.9772 -51.9751 -51.9693 -51.9681 -51.9666 -51.9626
   -51.9614 -51.9612 -51.9560 -51.9527 -51.9525 -51.9509 -51.9498 -51.9478
   -51.9422 -51.9421 -51.9372 -51.9361 -51.9353 -51.9346 -51.9325 -51.9254
   -51.9197 -51.9134 -51.9103 -51.9087 -51.9084 -51.9071 -51.8991 -51.8928
   -51.8921 -51.8830 -51.8824 -51.8768 -51.8676 -51.8674 -51.8612 -51.8583
   -51.8507 -51.8499 -51.8498 -51.8413 -51.8403 -51.8385 -51.8349 -51.8339
   -51.8299 -51.8194 -51.8180 -51.8127 -51.8096 -51.8079 -51.8078 -51.8034
   -51.8018 -51.7982 -51.7966 -51.7966 -51.7931 -51.7923 -51.7903 -51.7890
   -51.7879 -51.7840 -51.7814 -51.7804 -51.7799 -51.7775 -51.7741 -51.7694
   -51.7691 -51.7684 -51.7650 -51.7623 -51.7614 -51.7592 -51.7589 -51.7575
   -51.7508 -51.7433 -51.7398 -51.7332 -51.7326 -51.7283 -51.7272 -51.7241
   -51.7238 -51.7218 -51.7171 -51.7151 -51.7145 -51.7124 -51.7089 -51.7069
   -51.6998 -51.6987 -51.6962 -51.6943 -51.6931 -51.6927 -51.6924 -51.6923
   -51.6910 -51.6892 -51.6873 -51.6872 -51.6827 -51.6819 -51.6765 -51.6755
   -51.6743 -51.6738 -51.6713 -51.6683 -51.6677 -51.6655 -51.6613 -51.6602
   -51.6579 -51.6565 -51.6549 -51.6508 -51.6470 -51.6453 -51.6438 -51.6393
   -51.6384 -51.6368 -51.6352 -51.6304 -51.6276 -51.6271 -51.6261 -51.6238
   -51.6193 -51.6192 -51.6180 -51.6174 -51.6155 -51.6128 -51.6127 -51.6077
   -51.6034 -51.6005 -51.5993 -51.5930 -51.5924 -51.5888 -51.5878 -51.5848
   -51.5806 -51.5775 -51.5706 -51.5686 -51.5682 -51.5669 -51.5659 -51.5617
   -51.5606 -51.5573 -51.5554 -51.5543 -51.5531 -51.5523 -51.5505 -51.5498
   -51.5492 -51.5476 -51.5451 -51.5438 -51.5431 -51.5416 -51.5408 -51.5406
   -51.5387 -51.5379 -51.5363 -51.5313 -51.5276 -51.5241 -51.5227 -51.5171
   -13.8819  -5.6699  -5.1376  -5.0061  -4.0430  -3.9965  -3.9598  -3.7681
    -3.3177  -3.1869  -3.1066  -3.0216  -2.9072  -2.7457  -2.6038  -2.5873
    -2.5312  -2.4929  -2.4478  -2.4300  -2.3316  -2.2761  -2.2575  -2.2208
    -2.1586  -2.1298  -2.0706  -2.0529  -2.0469  -2.0325  -2.0283  -2.0138
    -2.0092  -1.9961  -1.9806  -1.9695  -1.8990  -1.8900  -1.8359  -1.7870
    -1.7742  -1.7023  -1.6846  -1.6753  -1.6739  -1.6666  -1.5975  -1.5932
    -1.5892  -1.5791  -1.5751  -1.5636  -1.5575  -1.5559  -1.5462  -1.5415
    -1.4895  -1.4827  -1.4313  -1.4211  -1.4126  -1.3934  -1.3791  -1.3699
    -1.3090  -1.3047  -1.2702  -1.2499  -1.2133  -1.2061  -1.1981  -1.1498
    -1.1123  -1.0444  -0.9801  -0.9629  -0.9356  -0.9311  -0.9169  -0.9069
    -0.9009  -0.8840  -0.8786  -0.8697  -0.8684  -0.8582  -0.8549  -0.8548
    -0.8421  -0.8276  -0.8189  -0.8168  -0.8159  -0.8152  -0.7946  -0.7902
    -0.7749  -0.7701  -0.7190  -0.7182  -0.6997  -0.6850  -0.6793  -0.6681
    -0.6560  -0.6418  -0.6403  -0.6379  -0.6312  -0.6238  -0.6222  -0.6174
    -0.6040  -0.5995  -0.5951  -0.5728  -0.5616  -0.5521  -0.5484  -0.5226
    -0.5109  -0.4529  -0.4128  -0.3967  -0.3408  -0.3385  -0.3225  -0.3137
    -0.3052  -0.3001  -0.2932  -0.2891  -0.2822  -0.2817  -0.2772  -0.2688
    -0.2610  -0.2589  -0.2568  -0.2422  -0.2343  -0.2253  -0.2157  -0.2129
    -0.2011  -0.2000  -0.1870  -0.1862  -0.1477  -0.1438  -0.1233  -0.1146
    -0.0992  -0.0943  -0.0759  -0.0715  -0.0582  -0.0540  -0.0408  -0.0323
    -0.0048  -0.0012   0.0294   0.0323   0.0699   0.0739   0.1006   0.1329
     0.1645   0.1923   0.1997   0.2085   0.2185   0.2203   0.2358   0.2459
     0.2568   0.2659   0.3395   0.3487   0.4089   0.4982   0.5058   0.5141
     0.5167   0.5270   0.5608   0.5679   0.5740   0.5742   0.5974   0.6211
     0.6492   0.6519   0.6674   0.6684   0.6818   0.6845   0.7082   0.7139
     0.7209   0.7297   0.7339   0.7394   0.7666   0.7838   0.8206   0.8404
     0.8549   0.8655   0.8668   0.8763   0.8960   0.8999   0.9030   0.9097
     0.9467   0.9506   0.9738   0.9896   1.0065   1.0072   1.0092   1.0160
     1.0161   1.0178   1.0272   1.0288   1.0356   1.0428   1.0479   1.0492
     1.0525   1.0583   1.0621   1.0784   1.0884   1.0906   1.1461   1.1513
     1.1596   1.1648   1.1757   1.1827   1.1841   1.1876   1.1896   1.2074
     1.2095   1.2200   1.2231   1.2294   1.2300   1.2333   1.2434   1.2499
     1.2500   1.2570   1.2645   1.2684   1.2759   1.2844   1.2963   1.2975
     1.3047   1.3121   1.3343   1.3365   1.3511   1.3558   1.3706   1.3717
     1.3792   1.3866   1.3975   1.4147   1.4166   1.4184   1.4452   1.4528
     1.4594   1.4601   1.4623   1.4662   1.4680   1.4761   1.4805   1.4822
     1.4880   1.4917   1.4986   1.5010   1.5067   1.5105   1.5190   1.5207
     1.5216   1.5608   1.5786   1.5862   1.6000   1.6650   1.6676   1.6936
     1.7036   1.7386   1.7415   1.7546   1.7724   1.7945   1.8713   1.8735
     1.8952   1.9000   1.9154   1.9319   1.9385   1.9442   1.9732   1.9771
     1.9930   2.0061   2.0198   2.0275   2.0383   2.0460   2.0639   2.1207
     2.1445   2.1495   2.1772   2.1865   2.2118   2.2141   2.2174   2.2307
     2.2555   2.2589   2.2718   2.2877   2.2996   2.3081   2.3117   2.4729
     2.5680   2.6099   2.7636   2.8887   2.9627   3.0246   3.3020   3.3658
     3.6402   3.6707   3.9652   3.9919   4.0301   4.0804   4.1182   4.1325
     4.1826   4.1963

          k = 0.2500-0.0884 0.0000 (128371 PWs)   bands (ev):

   -85.8488 -85.8459 -85.8083 -85.8014 -85.7987 -85.7983 -85.7941 -85.7920
   -85.7911 -85.7883 -85.7852 -85.7828 -85.7790 -85.7757 -85.7723 -85.7689
   -85.7687 -85.7667 -85.7656 -85.7621 -85.7616 -85.7600 -85.7530 -85.7479
   -85.7451 -85.7429 -85.7416 -85.7390 -85.7359 -85.7281 -85.7045 -85.6987
   -85.6906 -85.6720 -85.6650 -85.6591 -85.6556 -85.6513 -85.6464 -85.6434
   -85.6409 -85.6388 -85.6374 -85.6364 -85.6339 -85.6326 -85.6321 -85.6285
   -85.6273 -85.6252 -85.6235 -85.6213 -85.6191 -85.6179 -85.6162 -85.6134
   -85.6121 -85.6079 -85.6050 -85.6032 -85.5962 -85.5939 -85.5869 -85.5796
   -52.0368 -52.0259 -52.0012 -51.9907 -51.9897 -51.9855 -51.9845 -51.9824
   -51.9810 -51.9792 -51.9776 -51.9747 -51.9717 -51.9689 -51.9665 -51.9641
   -51.9623 -51.9589 -51.9565 -51.9546 -51.9520 -51.9505 -51.9492 -51.9478
   -51.9461 -51.9405 -51.9384 -51.9365 -51.9361 -51.9336 -51.9331 -51.9306
   -51.9236 -51.9226 -51.9148 -51.9106 -51.9060 -51.9048 -51.9007 -51.8940
   -51.8910 -51.8885 -51.8850 -51.8820 -51.8797 -51.8743 -51.8562 -51.8538
   -51.8470 -51.8395 -51.8379 -51.8353 -51.8349 -51.8312 -51.8276 -51.8242
   -51.8215 -51.8170 -51.8135 -51.8124 -51.8097 -51.8093 -51.8089 -51.8060
   -51.8040 -51.8029 -51.8017 -51.7981 -51.7959 -51.7933 -51.7907 -51.7879
   -51.7854 -51.7836 -51.7827 -51.7803 -51.7777 -51.7699 -51.7684 -51.7663
   -51.7635 -51.7614 -51.7585 -51.7576 -51.7554 -51.7515 -51.7457 -51.7453
   -51.7434 -51.7403 -51.7367 -51.7353 -51.7325 -51.7302 -51.7283 -51.7280
   -51.7260 -51.7224 -51.7212 -51.7185 -51.7183 -51.7164 -51.7128 -51.7092
   -51.7081 -51.7053 -51.7034 -51.7006 -51.6983 -51.6972 -51.6961 -51.6937
   -51.6926 -51.6894 -51.6887 -51.6868 -51.6853 -51.6821 -51.6789 -51.6772
   -51.6767 -51.6734 -51.6697 -51.6689 -51.6647 -51.6632 -51.6626 -51.6610
   -51.6581 -51.6548 -51.6546 -51.6538 -51.6507 -51.6484 -51.6454 -51.6430
   -51.6417 -51.6397 -51.6390 -51.6347 -51.6331 -51.6324 -51.6292 -51.6264
   -51.6234 -51.6202 -51.6200 -51.6173 -51.6105 -51.6085 -51.6067 -51.6045
   -51.6029 -51.5990 -51.5988 -51.5962 -51.5924 -51.5919 -51.5887 -51.5866
   -51.5824 -51.5811 -51.5791 -51.5767 -51.5731 -51.5703 -51.5673 -51.5650
   -51.5632 -51.5609 -51.5584 -51.5550 -51.5525 -51.5509 -51.5502 -51.5481
   -51.5463 -51.5443 -51.5422 -51.5405 -51.5367 -51.5363 -51.5355 -51.5325
   -51.5321 -51.5313 -51.5304 -51.5278 -51.5266 -51.5238 -51.5214 -51.5163
   -13.8819  -5.7168  -5.3371  -4.5747  -4.1704  -4.0501  -3.7881  -3.6181
    -3.4926  -3.2426  -3.2307  -3.0301  -2.9316  -2.8716  -2.7672  -2.7185
    -2.5741  -2.5275  -2.4503  -2.3728  -2.3252  -2.2522  -2.2234  -2.1940
    -2.1762  -2.1620  -2.1343  -2.1129  -2.0887  -1.9792  -1.9129  -1.8728
    -1.8456  -1.8288  -1.8239  -1.8136  -1.8002  -1.7951  -1.7839  -1.7669
    -1.7550  -1.7357  -1.7180  -1.7025  -1.6882  -1.6786  -1.6607  -1.6534
    -1.6315  -1.6229  -1.6153  -1.6008  -1.5689  -1.5390  -1.5335  -1.5277
    -1.5212  -1.5167  -1.4754  -1.4356  -1.4292  -1.3732  -1.3539  -1.3253
    -1.3185  -1.2844  -1.2315  -1.2122  -1.1720  -1.1332  -1.0977  -1.0629
    -1.0461  -1.0303  -1.0102  -0.9559  -0.9449  -0.9320  -0.9254  -0.9124
    -0.9087  -0.9011  -0.8911  -0.8813  -0.8807  -0.8710  -0.8668  -0.8568
    -0.8481  -0.8405  -0.8308  -0.8303  -0.8166  -0.8135  -0.8033  -0.7940
    -0.7899  -0.7846  -0.7796  -0.7703  -0.7693  -0.7610  -0.7523  -0.7323
    -0.7042  -0.6989  -0.6907  -0.6795  -0.6754  -0.6589  -0.6391  -0.6310
    -0.6247  -0.6181  -0.5947  -0.5673  -0.5234  -0.5104  -0.4789  -0.4637
    -0.4452  -0.4331  -0.4278  -0.4143  -0.4045  -0.3566  -0.3353  -0.3325
    -0.3186  -0.3130  -0.3097  -0.2943  -0.2876  -0.2843  -0.2746  -0.2695
    -0.2595  -0.2385  -0.2283  -0.2246  -0.2228  -0.1981  -0.1847  -0.1732
    -0.1684  -0.1307  -0.1117  -0.1019  -0.0735  -0.0663  -0.0612  -0.0547
    -0.0416  -0.0328  -0.0295  -0.0250  -0.0176  -0.0085   0.0003   0.0085
     0.0144   0.0243   0.0365   0.0402   0.0499   0.0702   0.0813   0.1225
     0.1350   0.1428   0.1633   0.1714   0.1887   0.2009   0.2024   0.2263
     0.2321   0.2431   0.2588   0.2785   0.3068   0.3227   0.3441   0.3740
     0.3754   0.4055   0.4309   0.4364   0.4518   0.5078   0.6080   0.6353
     0.6445   0.6452   0.6911   0.7063   0.7138   0.7259   0.7565   0.7619
     0.7847   0.7917   0.7956   0.8041   0.8176   0.8281   0.8289   0.8410
     0.8522   0.8727   0.8829   0.8861   0.9093   0.9247   0.9493   0.9658
     0.9679   0.9760   0.9805   0.9861   0.9900   0.9983   1.0082   1.0158
     1.0175   1.0257   1.0357   1.0416   1.0710   1.0863   1.0919   1.0941
     1.0991   1.1053   1.1172   1.1202   1.1240   1.1328   1.1411   1.1421
     1.1494   1.1527   1.1593   1.1666   1.1719   1.1749   1.1839   1.1946
     1.1975   1.2128   1.2172   1.2198   1.2286   1.2334   1.2386   1.2415
     1.2451   1.2488   1.2515   1.2622   1.2650   1.2706   1.2716   1.2858
     1.2914   1.2932   1.3072   1.3101   1.3124   1.3160   1.3177   1.3195
     1.3290   1.3326   1.3572   1.3581   1.3621   1.3706   1.3812   1.3866
     1.3931   1.4146   1.4295   1.4490   1.4547   1.4563   1.4656   1.4739
     1.4826   1.4890   1.4996   1.5073   1.5141   1.5176   1.5263   1.5383
     1.5555   1.5640   1.5872   1.5876   1.5930   1.6015   1.6124   1.6181
     1.6339   1.6366   1.6388   1.6543   1.6638   1.6831   1.7296   1.7586
     1.7748   1.7829   1.8600   1.8960   1.9279   2.0163   2.0303   2.0540
     2.0559   2.0754   2.0942   2.0976   2.1164   2.1425   2.1766   2.1798
     2.1945   2.2038   2.2205   2.2290   2.2404   2.2557   2.2643   2.2962
     2.3025   2.3167   2.3707   2.3880   2.4183   2.4594   2.4727   2.6111
     2.6475   2.8651   3.0203   3.0529   3.1182   3.2408   3.3281   3.4201
     3.5279   3.5826   3.6605   3.7105   3.7696   3.9297   3.9726   4.0316
     4.1900   4.2560

          k = 0.2500 0.1768 0.0000 (128340 PWs)   bands (ev):

   -85.8487 -85.8459 -85.8074 -85.8015 -85.7986 -85.7971 -85.7956 -85.7925
   -85.7907 -85.7906 -85.7874 -85.7812 -85.7755 -85.7724 -85.7720 -85.7720
   -85.7693 -85.7693 -85.7642 -85.7636 -85.7616 -85.7583 -85.7517 -85.7492
   -85.7444 -85.7431 -85.7422 -85.7384 -85.7361 -85.7283 -85.7045 -85.6986
   -85.6905 -85.6718 -85.6644 -85.6602 -85.6566 -85.6529 -85.6468 -85.6410
   -85.6403 -85.6368 -85.6362 -85.6353 -85.6342 -85.6336 -85.6330 -85.6287
   -85.6279 -85.6248 -85.6247 -85.6234 -85.6194 -85.6165 -85.6149 -85.6139
   -85.6129 -85.6077 -85.6061 -85.6026 -85.5950 -85.5939 -85.5868 -85.5802
   -52.0361 -52.0261 -52.0007 -51.9918 -51.9889 -51.9842 -51.9830 -51.9823
   -51.9801 -51.9783 -51.9781 -51.9768 -51.9751 -51.9679 -51.9658 -51.9630
   -51.9597 -51.9585 -51.9571 -51.9559 -51.9536 -51.9522 -51.9489 -51.9460
   -51.9440 -51.9406 -51.9385 -51.9385 -51.9362 -51.9338 -51.9305 -51.9273
   -51.9217 -51.9170 -51.9082 -51.9073 -51.9066 -51.9059 -51.8884 -51.8874
   -51.8869 -51.8860 -51.8833 -51.8805 -51.8796 -51.8730 -51.8528 -51.8511
   -51.8509 -51.8482 -51.8448 -51.8420 -51.8384 -51.8366 -51.8358 -51.8295
   -51.8284 -51.8279 -51.8194 -51.8193 -51.8164 -51.8115 -51.8086 -51.8048
   -51.8044 -51.8042 -51.8034 -51.8019 -51.7987 -51.7961 -51.7916 -51.7909
   -51.7906 -51.7847 -51.7812 -51.7796 -51.7742 -51.7724 -51.7690 -51.7686
   -51.7665 -51.7632 -51.7592 -51.7590 -51.7532 -51.7528 -51.7510 -51.7463
   -51.7416 -51.7402 -51.7388 -51.7366 -51.7320 -51.7297 -51.7290 -51.7248
   -51.7243 -51.7233 -51.7168 -51.7159 -51.7157 -51.7157 -51.7111 -51.7100
   -51.7077 -51.7060 -51.7040 -51.7025 -51.7004 -51.6989 -51.6980 -51.6930
   -51.6927 -51.6918 -51.6848 -51.6819 -51.6787 -51.6785 -51.6770 -51.6758
   -51.6743 -51.6719 -51.6681 -51.6651 -51.6644 -51.6616 -51.6605 -51.6596
   -51.6567 -51.6562 -51.6504 -51.6477 -51.6450 -51.6449 -51.6436 -51.6402
   -51.6402 -51.6376 -51.6368 -51.6311 -51.6310 -51.6286 -51.6262 -51.6232
   -51.6223 -51.6172 -51.6169 -51.6160 -51.6149 -51.6114 -51.6087 -51.6076
   -51.6031 -51.5996 -51.5986 -51.5909 -51.5879 -51.5867 -51.5837 -51.5819
   -51.5814 -51.5795 -51.5782 -51.5747 -51.5710 -51.5696 -51.5676 -51.5665
   -51.5656 -51.5630 -51.5567 -51.5563 -51.5536 -51.5517 -51.5499 -51.5493
   -51.5479 -51.5448 -51.5446 -51.5422 -51.5404 -51.5381 -51.5358 -51.5352
   -51.5341 -51.5333 -51.5331 -51.5320 -51.5316 -51.5294 -51.5255 -51.5194
   -13.8819  -5.7046  -5.3086  -4.3082  -4.2779  -4.2650  -4.0813  -3.4493
    -3.4294  -3.2540  -3.2116  -3.1495  -2.9199  -2.8592  -2.7620  -2.6792
    -2.4789  -2.4677  -2.3607  -2.2491  -2.2434  -2.2412  -2.1901  -2.1777
    -2.1307  -2.1161  -2.1142  -2.0954  -2.0171  -2.0021  -1.9912  -1.9652
    -1.8827  -1.8800  -1.8671  -1.8425  -1.7938  -1.7886  -1.7762  -1.7543
    -1.7469  -1.7412  -1.7346  -1.7222  -1.7203  -1.7132  -1.7107  -1.7078
    -1.6674  -1.6593  -1.6332  -1.6294  -1.6134  -1.5949  -1.5685  -1.5365
    -1.5025  -1.4836  -1.4722  -1.3829  -1.3752  -1.3443  -1.3306  -1.3256
    -1.2579  -1.2530  -1.2369  -1.2328  -1.2032  -1.1803  -1.1493  -1.0697
    -1.0686  -1.0348  -0.9882  -0.9650  -0.9581  -0.9572  -0.9422  -0.9393
    -0.9329  -0.9300  -0.9230  -0.9171  -0.9153  -0.9090  -0.9056  -0.9034
    -0.8950  -0.8704  -0.8634  -0.8543  -0.8126  -0.7960  -0.7882  -0.7779
    -0.7589  -0.7459  -0.7286  -0.7272  -0.7233  -0.7117  -0.7104  -0.7044
    -0.6931  -0.6713  -0.6689  -0.6403  -0.6251  -0.5998  -0.5904  -0.5830
    -0.5676  -0.5568  -0.5354  -0.5263  -0.5200  -0.5163  -0.5112  -0.5042
    -0.5020  -0.4929  -0.4887  -0.4727  -0.4493  -0.4199  -0.4135  -0.3992
    -0.3814  -0.3379  -0.3193  -0.3164  -0.3105  -0.3092  -0.2940  -0.2786
    -0.2642  -0.2496  -0.2239  -0.2202  -0.2148  -0.2120  -0.1993  -0.1922
    -0.1645  -0.1595  -0.1483  -0.1390  -0.1170  -0.1123  -0.0899  -0.0680
    -0.0509  -0.0415  -0.0225  -0.0181  -0.0178  -0.0109   0.0088   0.0098
     0.0282   0.0594   0.0799   0.0810   0.0878   0.0917   0.1003   0.1053
     0.1180   0.1205   0.1295   0.1360   0.1416   0.1458   0.1493   0.1645
     0.1730   0.1999   0.2286   0.2509   0.2618   0.3915   0.4107   0.4345
     0.4433   0.4636   0.4689   0.5426   0.5600   0.5770   0.6127   0.6240
     0.6514   0.6743   0.6873   0.6923   0.6959   0.7230   0.7509   0.7704
     0.7735   0.7929   0.7952   0.8073   0.8097   0.8237   0.8302   0.8574
     0.8703   0.8704   0.8785   0.8847   0.8959   0.9138   0.9161   0.9230
     0.9272   0.9398   0.9676   0.9683   1.0056   1.0109   1.0277   1.0372
     1.0373   1.0427   1.0433   1.0552   1.0580   1.0652   1.0756   1.0800
     1.0904   1.0985   1.1199   1.1224   1.1298   1.1335   1.1361   1.1437
     1.1516   1.1535   1.1629   1.1686   1.1730   1.1826   1.2067   1.2112
     1.2172   1.2250   1.2251   1.2377   1.2439   1.2527   1.2630   1.2713
     1.2870   1.2918   1.2922   1.2957   1.2987   1.3101   1.3142   1.3326
     1.3408   1.3428   1.3535   1.3542   1.3622   1.3680   1.3720   1.3738
     1.3767   1.3825   1.3828   1.3880   1.3983   1.3984   1.4140   1.4152
     1.4244   1.4457   1.4535   1.4560   1.4572   1.4614   1.4635   1.4654
     1.4833   1.4877   1.4963   1.4964   1.5115   1.5195   1.5346   1.5378
     1.5452   1.5661   1.5691   1.5740   1.6131   1.6153   1.6333   1.6409
     1.6582   1.6746   1.6766   1.6878   1.6929   1.7452   1.7661   1.7845
     1.8055   1.8095   1.8341   1.8774   1.9656   1.9750   1.9823   2.0489
     2.0520   2.0833   2.0903   2.1443   2.1653   2.1823   2.1953   2.2053
     2.2149   2.2193   2.2271   2.2407   2.2430   2.2665   2.2751   2.3276
     2.3323   2.4015   2.4226   2.4300   2.5327   2.5369   2.5444   2.6318
     2.6618   2.8645   2.8692   3.0700   3.1149   3.2099   3.2132   3.2387
     3.2878   3.3396   3.3411   3.3921   3.4714   3.5520   3.5974   3.7992
     3.9364   4.0151

          k = 0.2500-0.6187 0.0000 (128424 PWs)   bands (ev):

   -85.8487 -85.8460 -85.8051 -85.8013 -85.8009 -85.7987 -85.7952 -85.7942
   -85.7911 -85.7901 -85.7846 -85.7783 -85.7782 -85.7747 -85.7730 -85.7701
   -85.7699 -85.7680 -85.7666 -85.7612 -85.7611 -85.7579 -85.7519 -85.7498
   -85.7444 -85.7436 -85.7414 -85.7382 -85.7364 -85.7285 -85.7045 -85.6986
   -85.6904 -85.6705 -85.6673 -85.6615 -85.6548 -85.6511 -85.6445 -85.6425
   -85.6404 -85.6391 -85.6372 -85.6368 -85.6340 -85.6329 -85.6316 -85.6289
   -85.6276 -85.6251 -85.6242 -85.6215 -85.6202 -85.6168 -85.6155 -85.6135
   -85.6119 -85.6082 -85.6071 -85.6035 -85.5953 -85.5924 -85.5856 -85.5815
   -52.0350 -52.0264 -51.9975 -51.9929 -51.9925 -51.9859 -51.9835 -51.9822
   -51.9801 -51.9790 -51.9784 -51.9745 -51.9724 -51.9662 -51.9652 -51.9626
   -51.9610 -51.9602 -51.9574 -51.9551 -51.9542 -51.9500 -51.9487 -51.9446
   -51.9424 -51.9414 -51.9399 -51.9368 -51.9356 -51.9342 -51.9298 -51.9241
   -51.9183 -51.9108 -51.9037 -51.9015 -51.8999 -51.8979 -51.8953 -51.8894
   -51.8861 -51.8828 -51.8784 -51.8755 -51.8724 -51.8645 -51.8620 -51.8602
   -51.8583 -51.8557 -51.8545 -51.8484 -51.8448 -51.8428 -51.8394 -51.8354
   -51.8331 -51.8284 -51.8250 -51.8190 -51.8156 -51.8148 -51.8118 -51.8079
   -51.8046 -51.8040 -51.8012 -51.7969 -51.7937 -51.7918 -51.7891 -51.7864
   -51.7856 -51.7844 -51.7831 -51.7825 -51.7815 -51.7795 -51.7776 -51.7720
   -51.7710 -51.7670 -51.7653 -51.7628 -51.7598 -51.7570 -51.7539 -51.7513
   -51.7482 -51.7471 -51.7459 -51.7406 -51.7374 -51.7320 -51.7290 -51.7276
   -51.7237 -51.7211 -51.7183 -51.7145 -51.7115 -51.7097 -51.7065 -51.7045
   -51.7022 -51.6991 -51.6970 -51.6957 -51.6952 -51.6916 -51.6911 -51.6893
   -51.6873 -51.6862 -51.6833 -51.6816 -51.6801 -51.6768 -51.6752 -51.6739
   -51.6715 -51.6706 -51.6678 -51.6667 -51.6652 -51.6634 -51.6621 -51.6603
   -51.6583 -51.6529 -51.6498 -51.6466 -51.6459 -51.6435 -51.6399 -51.6371
   -51.6364 -51.6342 -51.6322 -51.6293 -51.6283 -51.6262 -51.6241 -51.6238
   -51.6234 -51.6220 -51.6191 -51.6159 -51.6101 -51.6084 -51.6069 -51.6046
   -51.6019 -51.5991 -51.5976 -51.5940 -51.5932 -51.5844 -51.5810 -51.5789
   -51.5761 -51.5723 -51.5705 -51.5693 -51.5682 -51.5674 -51.5659 -51.5631
   -51.5613 -51.5598 -51.5580 -51.5556 -51.5549 -51.5541 -51.5522 -51.5500
   -51.5496 -51.5493 -51.5478 -51.5463 -51.5448 -51.5431 -51.5415 -51.5402
   -51.5401 -51.5383 -51.5375 -51.5351 -51.5323 -51.5312 -51.5295 -51.5226
   -13.8819  -5.6636  -5.1107  -4.8335  -4.5525  -3.9252  -3.8196  -3.6367
    -3.4715  -3.3256  -3.1170  -3.0486  -2.6817  -2.6439  -2.5459  -2.5210
    -2.5098  -2.4221  -2.4170  -2.3911  -2.2856  -2.2748  -2.2148  -2.2016
    -2.1791  -2.1444  -2.1120  -2.0857  -2.0616  -2.0499  -2.0210  -2.0135
    -2.0014  -1.9922  -1.9525  -1.9053  -1.8986  -1.8895  -1.8756  -1.8583
    -1.8309  -1.8021  -1.7816  -1.7785  -1.7573  -1.7044  -1.6642  -1.6551
    -1.6348  -1.5973  -1.5809  -1.5683  -1.5270  -1.5175  -1.4815  -1.4592
    -1.4359  -1.4268  -1.4066  -1.3967  -1.3732  -1.3578  -1.3500  -1.3348
    -1.3009  -1.2942  -1.2643  -1.2484  -1.2360  -1.2299  -1.1725  -1.1502
    -1.1255  -1.1187  -1.0705  -1.0121  -0.9840  -0.9673  -0.9541  -0.9472
    -0.9380  -0.9258  -0.9212  -0.9124  -0.9007  -0.8840  -0.8443  -0.8324
    -0.8134  -0.7996  -0.7921  -0.7829  -0.7678  -0.7585  -0.7454  -0.7348
    -0.7264  -0.7223  -0.7174  -0.7082  -0.6999  -0.6975  -0.6853  -0.6730
    -0.6583  -0.6465  -0.6353  -0.6334  -0.6106  -0.6029  -0.5998  -0.5837
    -0.5803  -0.5709  -0.5532  -0.5343  -0.5330  -0.5037  -0.4967  -0.4894
    -0.4823  -0.4708  -0.4630  -0.4621  -0.4482  -0.4414  -0.4316  -0.4205
    -0.4145  -0.4107  -0.4002  -0.3892  -0.3875  -0.3798  -0.3572  -0.3362
    -0.3231  -0.2952  -0.2810  -0.2599  -0.2083  -0.1864  -0.1730  -0.1609
    -0.1592  -0.1487  -0.1421  -0.1249  -0.1182  -0.1109  -0.1029  -0.0926
    -0.0797  -0.0782  -0.0722  -0.0672  -0.0528  -0.0472  -0.0361  -0.0129
    -0.0046   0.0001   0.0075   0.0096   0.0471   0.0652   0.1173   0.1272
     0.1528   0.1556   0.1898   0.1956   0.2223   0.2487   0.2606   0.2848
     0.3088   0.3481   0.3723   0.4040   0.4182   0.4297   0.4398   0.4700
     0.5094   0.5284   0.5336   0.5599   0.5912   0.5953   0.5983   0.6158
     0.6324   0.6435   0.6450   0.6549   0.6626   0.6798   0.7113   0.7326
     0.7436   0.7511   0.7729   0.7822   0.8004   0.8123   0.8201   0.8339
     0.8399   0.8684   0.8699   0.8833   0.8923   0.9015   0.9075   0.9103
     0.9278   0.9435   0.9546   0.9680   0.9799   0.9987   1.0040   1.0104
     1.0167   1.0241   1.0266   1.0389   1.0439   1.0543   1.0590   1.0650
     1.0739   1.0783   1.0911   1.1111   1.1209   1.1237   1.1330   1.1403
     1.1527   1.1600   1.1692   1.1751   1.1864   1.1944   1.1982   1.2116
     1.2175   1.2275   1.2373   1.2450   1.2511   1.2586   1.2600   1.2647
     1.2781   1.2877   1.3018   1.3062   1.3100   1.3170   1.3307   1.3313
     1.3400   1.3450   1.3473   1.3539   1.3620   1.3684   1.3750   1.3912
     1.3995   1.4025   1.4076   1.4119   1.4216   1.4253   1.4347   1.4388
     1.4439   1.4497   1.4565   1.4571   1.4653   1.4700   1.4809   1.4944
     1.5042   1.5178   1.5266   1.5370   1.5546   1.5691   1.5735   1.5772
     1.5917   1.6155   1.6306   1.6630   1.6760   1.6793   1.6931   1.7219
     1.7348   1.7669   1.7791   1.8114   1.8242   1.8366   1.8617   1.8762
     1.8833   1.8938   1.9004   1.9507   1.9590   1.9756   1.9816   2.0025
     2.0237   2.0360   2.0466   2.0797   2.0939   2.0979   2.1094   2.1187
     2.1384   2.1651   2.1826   2.1885   2.2032   2.2066   2.2126   2.2451
     2.2552   2.2739   2.2940   2.3043   2.3289   2.3801   2.4164   2.4301
     2.5516   2.6607   2.7107   2.8568   2.9503   3.0147   3.1006   3.1420
     3.1894   3.3480   3.4162   3.5345   3.6731   3.7336   3.8841   3.9613
     4.0221   4.1013

          k = 0.2500-0.3536 0.0000 (128397 PWs)   bands (ev):

   -85.8488 -85.8459 -85.8068 -85.8004 -85.7998 -85.7989 -85.7970 -85.7925
   -85.7923 -85.7849 -85.7839 -85.7808 -85.7806 -85.7773 -85.7729 -85.7694
   -85.7690 -85.7668 -85.7648 -85.7624 -85.7615 -85.7576 -85.7541 -85.7482
   -85.7452 -85.7432 -85.7410 -85.7389 -85.7361 -85.7283 -85.7045 -85.6986
   -85.6905 -85.6707 -85.6675 -85.6613 -85.6524 -85.6491 -85.6457 -85.6438
   -85.6426 -85.6408 -85.6375 -85.6361 -85.6351 -85.6318 -85.6306 -85.6303
   -85.6270 -85.6248 -85.6217 -85.6205 -85.6197 -85.6178 -85.6174 -85.6127
   -85.6112 -85.6087 -85.6059 -85.6041 -85.5967 -85.5920 -85.5863 -85.5806
   -52.0357 -52.0261 -51.9984 -51.9932 -51.9909 -51.9870 -51.9844 -51.9825
   -51.9819 -51.9790 -51.9785 -51.9725 -51.9684 -51.9668 -51.9666 -51.9657
   -51.9623 -51.9593 -51.9570 -51.9536 -51.9536 -51.9508 -51.9484 -51.9447
   -51.9444 -51.9411 -51.9382 -51.9375 -51.9354 -51.9337 -51.9316 -51.9265
   -51.9238 -51.9166 -51.9076 -51.9052 -51.9045 -51.8999 -51.8969 -51.8949
   -51.8889 -51.8856 -51.8848 -51.8842 -51.8816 -51.8738 -51.8572 -51.8570
   -51.8491 -51.8458 -51.8420 -51.8381 -51.8327 -51.8307 -51.8268 -51.8247
   -51.8237 -51.8230 -51.8185 -51.8180 -51.8142 -51.8128 -51.8127 -51.8117
   -51.8093 -51.8061 -51.8037 -51.8019 -51.7996 -51.7973 -51.7957 -51.7904
   -51.7901 -51.7842 -51.7836 -51.7768 -51.7738 -51.7735 -51.7693 -51.7681
   -51.7635 -51.7628 -51.7602 -51.7575 -51.7558 -51.7532 -51.7516 -51.7507
   -51.7433 -51.7430 -51.7392 -51.7368 -51.7349 -51.7324 -51.7280 -51.7256
   -51.7250 -51.7237 -51.7234 -51.7203 -51.7197 -51.7150 -51.7117 -51.7050
   -51.7042 -51.7000 -51.6981 -51.6948 -51.6932 -51.6926 -51.6921 -51.6911
   -51.6906 -51.6885 -51.6880 -51.6873 -51.6842 -51.6804 -51.6795 -51.6781
   -51.6761 -51.6753 -51.6692 -51.6666 -51.6650 -51.6625 -51.6621 -51.6615
   -51.6577 -51.6551 -51.6514 -51.6511 -51.6468 -51.6440 -51.6406 -51.6386
   -51.6370 -51.6333 -51.6328 -51.6290 -51.6289 -51.6250 -51.6249 -51.6228
   -51.6221 -51.6188 -51.6187 -51.6160 -51.6143 -51.6119 -51.6114 -51.6065
   -51.6043 -51.6015 -51.5987 -51.5969 -51.5950 -51.5934 -51.5844 -51.5824
   -51.5818 -51.5799 -51.5738 -51.5709 -51.5701 -51.5688 -51.5677 -51.5640
   -51.5629 -51.5616 -51.5557 -51.5538 -51.5530 -51.5515 -51.5511 -51.5509
   -51.5473 -51.5471 -51.5433 -51.5424 -51.5410 -51.5395 -51.5364 -51.5361
   -51.5340 -51.5334 -51.5322 -51.5319 -51.5303 -51.5287 -51.5234 -51.5232
   -13.8819  -5.6744  -5.2061  -4.6891  -4.6380  -4.0040  -3.6036  -3.4999
    -3.2685  -3.2617  -3.1558  -3.0659  -3.0267  -2.8525  -2.8268  -2.6127
    -2.3433  -2.3424  -2.3168  -2.3136  -2.2951  -2.2808  -2.2678  -2.2370
    -2.2349  -2.1584  -2.1520  -2.1514  -2.1013  -2.0744  -2.0519  -2.0472
    -2.0069  -1.9061  -1.8835  -1.8831  -1.8647  -1.8385  -1.8368  -1.8076
    -1.8062  -1.7930  -1.7924  -1.7457  -1.7352  -1.6843  -1.6783  -1.6559
    -1.6340  -1.6214  -1.6060  -1.5658  -1.5506  -1.4953  -1.4728  -1.4248
    -1.4208  -1.4152  -1.4103  -1.3873  -1.3755  -1.3674  -1.3616  -1.3493
    -1.3048  -1.2797  -1.2638  -1.2554  -1.2226  -1.1655  -1.1547  -1.1213
    -1.0745  -1.0550  -1.0130  -1.0011  -0.9588  -0.9582  -0.9415  -0.9397
    -0.9069  -0.8988  -0.8905  -0.8815  -0.8792  -0.8566  -0.8555  -0.8492
    -0.8394  -0.8327  -0.8265  -0.8246  -0.8187  -0.8151  -0.7790  -0.7720
    -0.7636  -0.7372  -0.7370  -0.7311  -0.7148  -0.7106  -0.7094  -0.6963
    -0.6855  -0.6774  -0.6656  -0.6548  -0.6508  -0.6066  -0.5745  -0.5662
    -0.5621  -0.5583  -0.5477  -0.5447  -0.5343  -0.5314  -0.5173  -0.5135
    -0.5054  -0.4898  -0.4868  -0.4581  -0.4381  -0.4198  -0.4147  -0.3800
    -0.3676  -0.3441  -0.3188  -0.2812  -0.2757  -0.2709  -0.2430  -0.2387
    -0.2183  -0.2164  -0.2050  -0.2003  -0.1983  -0.1923  -0.1885  -0.1838
    -0.1810  -0.1736  -0.1728  -0.1693  -0.1677  -0.1620  -0.1377  -0.1335
    -0.1323  -0.1221  -0.1162  -0.0779  -0.0675  -0.0582  -0.0131   0.0023
     0.0058   0.0299   0.0384   0.0662   0.0762   0.0959   0.1241   0.1573
     0.1687   0.1807   0.1906   0.2059   0.2141   0.2407   0.2872   0.2997
     0.3046   0.3728   0.3857   0.3994   0.4101   0.4349   0.4455   0.4565
     0.5105   0.5214   0.5336   0.5383   0.5590   0.5636   0.5797   0.5812
     0.5823   0.5979   0.5994   0.6257   0.6501   0.6669   0.6846   0.7335
     0.7400   0.7457   0.7637   0.7694   0.7946   0.8114   0.8139   0.8321
     0.8350   0.8483   0.8517   0.8568   0.8826   0.9155   0.9201   0.9521
     0.9531   0.9618   0.9669   0.9752   0.9798   0.9935   1.0132   1.0193
     1.0337   1.0500   1.0558   1.0667   1.0728   1.0756   1.0848   1.0880
     1.1137   1.1177   1.1203   1.1228   1.1293   1.1487   1.1568   1.1637
     1.1663   1.1674   1.1852   1.1856   1.1899   1.1920   1.2060   1.2080
     1.2172   1.2213   1.2243   1.2324   1.2386   1.2425   1.2496   1.2517
     1.2618   1.2625   1.2675   1.2767   1.2800   1.2869   1.2891   1.2916
     1.3001   1.3033   1.3139   1.3168   1.3184   1.3206   1.3239   1.3448
     1.3505   1.3585   1.3585   1.3815   1.3858   1.3890   1.3976   1.4009
     1.4019   1.4084   1.4172   1.4186   1.4212   1.4324   1.4524   1.4530
     1.4684   1.4995   1.5018   1.5172   1.5210   1.5226   1.5342   1.5518
     1.5740   1.5987   1.6145   1.6384   1.6509   1.6566   1.6733   1.6824
     1.6865   1.7058   1.7157   1.7216   1.7329   1.7424   1.7618   1.8085
     1.8185   1.8190   1.8513   1.8654   1.8772   1.9073   1.9301   1.9843
     2.0375   2.0428   2.0760   2.0987   2.1009   2.1036   2.1126   2.1244
     2.1475   2.1526   2.1588   2.1628   2.1801   2.1841   2.1906   2.1972
     2.2200   2.2286   2.2386   2.2469   2.4665   2.5031   2.6293   2.7645
     2.7733   2.8448   2.9981   3.0462   3.0672   3.0849   3.1572   3.1818
     3.2605   3.2912   3.3925   3.5428   3.7105   3.7836   3.8392   3.9898
     4.0783   4.4269

          k =-0.5000 0.1768 0.0000 (128388 PWs)   bands (ev):

   -85.8487 -85.8459 -85.8060 -85.8025 -85.8004 -85.7998 -85.7925 -85.7923
   -85.7900 -85.7893 -85.7842 -85.7837 -85.7792 -85.7759 -85.7707 -85.7703
   -85.7692 -85.7654 -85.7640 -85.7633 -85.7618 -85.7612 -85.7507 -85.7497
   -85.7440 -85.7436 -85.7420 -85.7386 -85.7361 -85.7283 -85.7045 -85.6986
   -85.6905 -85.6709 -85.6678 -85.6596 -85.6542 -85.6482 -85.6481 -85.6430
   -85.6407 -85.6406 -85.6385 -85.6364 -85.6333 -85.6325 -85.6324 -85.6281
   -85.6268 -85.6245 -85.6239 -85.6209 -85.6196 -85.6184 -85.6153 -85.6132
   -85.6123 -85.6070 -85.6068 -85.6040 -85.5954 -85.5939 -85.5855 -85.5808
   -52.0357 -52.0261 -51.9967 -51.9965 -51.9899 -51.9854 -51.9847 -51.9834
   -51.9806 -51.9793 -51.9772 -51.9751 -51.9693 -51.9681 -51.9666 -51.9626
   -51.9615 -51.9612 -51.9560 -51.9527 -51.9525 -51.9509 -51.9498 -51.9478
   -51.9422 -51.9421 -51.9372 -51.9361 -51.9353 -51.9346 -51.9325 -51.9254
   -51.9197 -51.9134 -51.9103 -51.9087 -51.9084 -51.9071 -51.8991 -51.8928
   -51.8921 -51.8830 -51.8824 -51.8768 -51.8676 -51.8674 -51.8611 -51.8583
   -51.8507 -51.8499 -51.8498 -51.8413 -51.8403 -51.8385 -51.8349 -51.8339
   -51.8299 -51.8194 -51.8180 -51.8127 -51.8096 -51.8079 -51.8078 -51.8034
   -51.8018 -51.7982 -51.7966 -51.7966 -51.7931 -51.7923 -51.7903 -51.7890
   -51.7879 -51.7840 -51.7814 -51.7804 -51.7799 -51.7775 -51.7741 -51.7694
   -51.7691 -51.7684 -51.7650 -51.7623 -51.7613 -51.7592 -51.7589 -51.7575
   -51.7508 -51.7433 -51.7398 -51.7332 -51.7326 -51.7283 -51.7272 -51.7241
   -51.7238 -51.7218 -51.7172 -51.7150 -51.7145 -51.7124 -51.7089 -51.7069
   -51.6998 -51.6987 -51.6963 -51.6943 -51.6932 -51.6927 -51.6924 -51.6923
   -51.6910 -51.6892 -51.6873 -51.6872 -51.6828 -51.6819 -51.6765 -51.6755
   -51.6743 -51.6738 -51.6713 -51.6683 -51.6677 -51.6655 -51.6613 -51.6602
   -51.6579 -51.6565 -51.6549 -51.6508 -51.6470 -51.6453 -51.6438 -51.6393
   -51.6384 -51.6368 -51.6352 -51.6304 -51.6277 -51.6271 -51.6261 -51.6238
   -51.6193 -51.6192 -51.6180 -51.6174 -51.6155 -51.6128 -51.6127 -51.6077
   -51.6034 -51.6005 -51.5993 -51.5930 -51.5925 -51.5888 -51.5878 -51.5848
   -51.5806 -51.5775 -51.5706 -51.5686 -51.5681 -51.5669 -51.5659 -51.5617
   -51.5606 -51.5573 -51.5554 -51.5543 -51.5531 -51.5523 -51.5505 -51.5498
   -51.5492 -51.5476 -51.5451 -51.5438 -51.5431 -51.5416 -51.5408 -51.5406
   -51.5386 -51.5379 -51.5363 -51.5313 -51.5276 -51.5241 -51.5227 -51.5171
   -13.8819  -5.6699  -5.1376  -5.0061  -4.0430  -3.9965  -3.9598  -3.7682
    -3.3176  -3.1869  -3.1066  -3.0215  -2.9072  -2.7457  -2.6039  -2.5873
    -2.5312  -2.4929  -2.4478  -2.4300  -2.3316  -2.2761  -2.2575  -2.2208
    -2.1586  -2.1298  -2.0706  -2.0529  -2.0469  -2.0325  -2.0283  -2.0137
    -2.0092  -1.9961  -1.9806  -1.9695  -1.8990  -1.8900  -1.8359  -1.7869
    -1.7742  -1.7023  -1.6846  -1.6753  -1.6739  -1.6666  -1.5975  -1.5932
    -1.5892  -1.5791  -1.5751  -1.5636  -1.5575  -1.5559  -1.5462  -1.5415
    -1.4896  -1.4827  -1.4313  -1.4211  -1.4125  -1.3934  -1.3791  -1.3699
    -1.3090  -1.3047  -1.2702  -1.2499  -1.2133  -1.2061  -1.1981  -1.1498
    -1.1123  -1.0444  -0.9801  -0.9629  -0.9356  -0.9311  -0.9169  -0.9069
    -0.9009  -0.8840  -0.8786  -0.8697  -0.8684  -0.8582  -0.8550  -0.8547
    -0.8421  -0.8276  -0.8189  -0.8169  -0.8159  -0.8151  -0.7946  -0.7902
    -0.7750  -0.7700  -0.7190  -0.7182  -0.6998  -0.6850  -0.6793  -0.6681
    -0.6560  -0.6418  -0.6403  -0.6380  -0.6312  -0.6238  -0.6222  -0.6174
    -0.6040  -0.5995  -0.5951  -0.5728  -0.5616  -0.5521  -0.5484  -0.5226
    -0.5109  -0.4529  -0.4129  -0.3967  -0.3408  -0.3385  -0.3225  -0.3137
    -0.3052  -0.3001  -0.2932  -0.2890  -0.2822  -0.2817  -0.2771  -0.2688
    -0.2611  -0.2590  -0.2568  -0.2421  -0.2343  -0.2253  -0.2156  -0.2129
    -0.2011  -0.2001  -0.1870  -0.1862  -0.1477  -0.1437  -0.1233  -0.1146
    -0.0992  -0.0943  -0.0759  -0.0715  -0.0582  -0.0540  -0.0407  -0.0322
[...]
     3.5388   3.5450   3.5618   3.5638   3.5708   3.5907   3.5993   3.6105
     3.6467   3.6614   3.6846   3.7148   3.7250   3.7429   3.7560   3.7764
     3.7868   3.7970   3.8095   3.8216   3.8336   3.8483   3.8611   3.8690
     3.8761   3.8865   3.8976   3.9186   3.9203   3.9287   3.9414   3.9575
     3.9648   3.9823   3.9922   4.0052   4.0189   4.0360   4.0435   4.0558
     4.0566   4.0706   4.0751   4.0766   4.0813   4.0923   4.0951   4.1090
     4.1184   4.1303   4.1411   4.1453   4.1516   4.1702   4.1750   4.1868
     4.1891   4.2042   4.2097   4.2206   4.2253   4.2446   4.2607   4.2717
     4.2790   4.2884   4.2940   4.2984   4.3042   4.3120   4.3142   4.3191
     4.3286   4.3345   4.3376   4.3578   4.3660   4.3725   4.3808   4.3955
     4.4045   4.4108   4.4200   4.4230   4.4309   4.4346   4.4394   4.4434
     4.4491   4.4580   4.4700   4.4742   4.4794   4.4931   4.4967   4.5095
     4.5128   4.5170   4.5308   4.5463   4.5572   4.5701   4.5923   4.6035
     4.6045   4.6229   4.6330   4.6422   4.6533   4.6576   4.6656   4.6746
     4.6829   4.6915   4.7248   4.7300   4.7396   4.7506   4.7613   4.7756
     4.7902   4.8112   4.8757   4.9176   4.9700   5.0171   5.0628   5.0991
     5.1817   5.2431   5.2657   5.3279   5.4103   5.4733   5.5350   5.6264
     5.6625   5.7416

          k =-0.5000-0.3536 0.0000 (128560 PWs)   bands (ev):

   -83.2639 -83.2622 -82.9112 -82.9088 -82.8445 -82.8426 -82.8145 -82.8092
   -82.7959 -82.7921 -82.7860 -82.7842 -82.7797 -82.7760 -82.7718 -82.7711
   -82.7673 -82.7668 -82.7663 -82.7645 -82.7629 -82.7575 -82.7538 -82.7535
   -82.7502 -82.7463 -82.7459 -82.7454 -82.7447 -82.7445 -82.7440 -82.7428
   -82.7269 -82.7233 -82.7232 -82.7223 -82.7168 -82.7156 -82.7138 -82.7036
   -82.7029 -82.7026 -82.7024 -82.7022 -82.7015 -82.6966 -82.6962 -82.6907
   -82.6906 -82.6820 -82.6806 -82.6806 -82.6801 -82.6800 -82.6794 -82.6787
   -82.6786 -82.6776 -82.6741 -82.6688 -82.6582 -82.6581 -82.6576 -82.6572
   -49.7002 -49.6847 -49.3553 -49.3502 -49.2025 -49.1860 -49.1422 -49.1387
   -49.0735 -49.0721 -49.0703 -49.0699 -49.0643 -49.0633 -49.0626 -49.0551
   -49.0544 -49.0518 -49.0510 -49.0473 -49.0459 -49.0458 -49.0432 -49.0431
   -49.0421 -49.0361 -49.0322 -49.0317 -49.0289 -49.0220 -49.0196 -49.0194
   -49.0181 -49.0093 -49.0035 -49.0034 -49.0032 -49.0023 -48.9970 -48.9944
   -48.9918 -48.9836 -48.9823 -48.9807 -48.9731 -48.9727 -48.9691 -48.9675
   -48.9669 -48.9662 -48.9621 -48.9614 -48.9591 -48.9564 -48.9557 -48.9551
   -48.9527 -48.9512 -48.9499 -48.9485 -48.9469 -48.9463 -48.9461 -48.9423
   -48.9357 -48.9337 -48.9335 -48.9309 -48.9233 -48.9202 -48.9201 -48.9151
   -48.9064 -48.9030 -48.9003 -48.8930 -48.8860 -48.8838 -48.8835 -48.8824
   -48.8804 -48.8728 -48.8727 -48.8691 -48.8641 -48.8602 -48.8568 -48.8536
   -48.8534 -48.8521 -48.8503 -48.8484 -48.8438 -48.8425 -48.8417 -48.8397
   -48.8394 -48.8374 -48.8373 -48.8341 -48.8225 -48.8203 -48.8180 -48.8154
   -48.8140 -48.8101 -48.8082 -48.8075 -48.8071 -48.8057 -48.8038 -48.8028
   -48.8018 -48.8018 -48.7967 -48.7957 -48.7957 -48.7940 -48.7929 -48.7895
   -48.7880 -48.7799 -48.7792 -48.7775 -48.7771 -48.7719 -48.7712 -48.7700
   -48.7672 -48.7659 -48.7657 -48.7653 -48.7586 -48.7550 -48.7528 -48.7521
   -48.7498 -48.7482 -48.7470 -48.7468 -48.7462 -48.7460 -48.7421 -48.7411
   -48.7402 -48.7401 -48.7369 -48.7366 -48.7348 -48.7342 -48.7340 -48.7313
   -48.7276 -48.7268 -48.7244 -48.7237 -48.7235 -48.7216 -48.7188 -48.7180
   -48.7177 -48.7160 -48.7152 -48.7144 -48.7140 -48.7139 -48.7129 -48.7124
   -48.7110 -48.7109 -48.7099 -48.7096 -48.7067 -48.7062 -48.7053 -48.7024
   -48.7018 -48.6994 -48.6993 -48.6990 -48.6987 -48.6920 -48.6911 -48.6908
   -48.6897 -48.6882 -48.6876 -48.6854 -48.6853 -48.6843 -48.6810 -48.6806
   -13.9409  -5.4563  -4.7597  -4.6721  -4.2023  -4.1207  -3.5109  -3.3508
    -3.0871  -2.8087  -2.6960  -2.5466  -2.1735  -2.1559  -2.1086  -2.0587
    -1.7030  -1.6775  -1.3416  -1.3324  -1.3212  -1.3018  -1.2785  -1.2440
    -1.2238  -1.2055  -1.1891  -1.1477  -1.1352  -1.0844  -0.7844  -0.7623
    -0.7541  -0.7524  -0.7188  -0.7091  -0.5602  -0.5187  -0.3024  -0.2844
    -0.2783  -0.2547  -0.2427  -0.2245  -0.2163  -0.1937  -0.1550  -0.1416
    -0.1269  -0.0425  -0.0122  -0.0052   0.0101   0.0164   0.0404   0.1090
     0.2555   0.2626   0.2841   0.2993   0.3109   0.3167   0.5200   0.5400
     0.5523   0.5802   0.5850   0.6088   0.6972   0.7198   0.7410   0.7653
     0.7696   0.8017   0.8102   0.8133   0.8159   0.8234   0.8381   0.8431
     0.8708   0.8787   0.9152   0.9224   0.9291   0.9333   0.9402   0.9443
     0.9471   0.9635   0.9855   1.0572   1.0701   1.1492   1.1543   1.1630
     1.2266   1.2693   1.2869   1.2873   1.2917   1.2987   1.3058   1.3210
     1.3288   1.3346   1.3420   1.3640   1.3659   1.3703   1.3716   1.3787
     1.3874   1.3963   1.4058   1.4130   1.4193   1.4310   1.4319   1.4378
     1.4410   1.4413   1.4462   1.4501   1.4654   1.4675   1.4789   1.4980
     1.5154   1.5196   1.5223   1.5230   1.5339   1.5422   1.5526   1.5543
     1.5560   1.5866   1.5887   1.5939   1.6434   1.6553   1.7394   1.7594
     1.7898   1.8057   1.8158   1.8173   1.8305   1.8354   1.8472   1.8582
     1.8692   1.9233   1.9242   1.9685   1.9715   1.9872   1.9945   2.0012
     2.0122   2.0284   2.0519   2.0608   2.0721   2.0769   2.1096   2.1622
     2.2088   2.2314   2.2537   2.2784   2.3214   2.3250   2.3266   2.3277
     2.3422   2.3459   2.3521   2.3731   2.3755   2.3885   2.4064   2.4295
     2.4365   2.4389   2.4437   2.4742   2.4899   2.7129   2.7247   2.7389
     2.7914   2.8328   2.8355   2.8663   3.0042   3.0468   3.1049   3.1133
     3.1363   3.1793   3.1801   3.2051   3.2097   3.2325   3.2347   3.2760
     3.2790   3.2866   3.2894   3.3305   3.3797   3.3803   3.3974   3.4005
     3.4180   3.4408   3.4422   3.4724   3.4818   3.4909   3.5179   3.5705
     3.5714   3.5841   3.5926   3.6027   3.6060   3.6098   3.6130   3.6271
     3.6329   3.6382   3.6856   3.6878   3.6882   3.7044   3.7540   3.7621
     3.7766   3.7821   3.7931   3.8039   3.8198   3.8399   3.8924   3.9078
     3.9177   3.9224   3.9619   3.9655   3.9974   4.0064   4.0267   4.0356
     4.0367   4.0368   4.0419   4.0550   4.0665   4.0730   4.0864   4.0958
     4.1065   4.1071   4.1095   4.1098   4.1112   4.1258   4.1292   4.1519
     4.1573   4.1596   4.1674   4.1777   4.1852   4.1922   4.2020   4.2082
     4.2096   4.2112   4.2156   4.2168   4.2194   4.2391   4.2461   4.2476
     4.2629   4.2786   4.2801   4.2810   4.2830   4.2927   4.2937   4.2962
     4.3050   4.3266   4.3296   4.3414   4.3762   4.3962   4.4014   4.4028
     4.4126   4.4223   4.4244   4.4330   4.4434   4.4482   4.4627   4.4716
     4.4728   4.4756   4.4813   4.4885   4.4929   4.4955   4.4988   4.5069
     4.5108   4.5117   4.5119   4.5376   4.5402   4.5480   4.5482   4.5576
     4.5587   4.5640   4.5720   4.5763   4.5781   4.5867   4.5894   4.6074
     4.6352   4.6565   4.6566   4.6813   4.6848   4.7023   4.7709   4.8037
     4.8903   4.8959   4.8975   4.9185   5.0970   5.1073   5.1100   5.1141
     5.1609   5.1757   5.1831   5.1838   5.2035   5.2075   5.2131   5.3388
     5.4562   5.4718

     the Fermi energy is     2.3540 ev

!    total energy              =  -21093.73454701 Ry
     Harris-Foulkes estimate   =  -21093.73454649 Ry
     estimated scf accuracy    <          9.4E-11 Ry

     The total energy is the sum of the following terms:

     one-electron contribution = -167904.51933817 Ry
     hartree contribution      =   84036.64958460 Ry
     xc contribution           =   -2234.27989245 Ry
     ewald contribution        =   69883.24923022 Ry
     Dispersion Correction     =      -1.39263708 Ry
     one-center paw contrib.   =   -4873.44299385 Ry
     smearing contrib. (-TS)   =       0.00149972 Ry

     total magnetization       =   160.97 Bohr mag/cell
     absolute magnetization    =   167.57 Bohr mag/cell

     convergence has been achieved in  11 iterations

     negative rho (up, down):  2.515E-02 1.793E-02

     Forces acting on atoms (cartesian axes, Ry/au):

     atom    1 type  1   force =     0.00051400   -0.00033347    0.00930404
     atom    2 type  1   force =     0.00171224   -0.00240674   -0.01313310
     atom    3 type  1   force =    -0.00035470   -0.00031016    0.00898210
     atom    4 type  1   force =     0.00046190    0.00058216   -0.00826802
     atom    5 type  1   force =    -0.00004713    0.00000139    0.00001988
     atom    6 type  1   force =    -0.00003039    0.00002762    0.00000461
     atom    7 type  1   force =     0.00001131   -0.00004924    0.00000387
     atom    8 type  1   force =     0.00004053    0.00000268    0.00002529
     atom    9 type  1   force =     0.00000475    0.00001475    0.00964039
     atom   10 type  1   force =    -0.00019194   -0.00012979    0.00937185
     atom   11 type  1   force =    -0.00033735    0.00129489   -0.00718704
     atom   12 type  1   force =     0.00094095    0.00076332   -0.01141855
     atom   13 type  1   force =    -0.00000339   -0.00001323    0.00006052
     atom   14 type  1   force =     0.00005429    0.00002912    0.00004916
     atom   15 type  1   force =     0.00010555    0.00004628    0.00002784
     atom   16 type  1   force =    -0.00004618   -0.00005431   -0.00011718
     atom   17 type  1   force =    -0.00040271   -0.00021688    0.00893543
     atom   18 type  1   force =     0.00069557    0.00032445   -0.00826656
     atom   19 type  1   force =     0.00035542    0.00029988    0.00893279
     atom   20 type  1   force =     0.00058856   -0.00078024   -0.01143165
     atom   21 type  1   force =    -0.00003300   -0.00000321    0.00000596
     atom   22 type  1   force =     0.00003199   -0.00000422    0.00002115
     atom   23 type  1   force =     0.00000091    0.00002769    0.00000804
     atom   24 type  1   force =     0.00006290   -0.00010596    0.00002210
     atom   25 type  1   force =     0.00002013   -0.00000641    0.00795722
     atom   26 type  1   force =    -0.00069883    0.00097402    0.00970691
     atom   27 type  1   force =    -0.00010944   -0.00008382   -0.00660631
     atom   28 type  1   force =    -0.00107776    0.00079784   -0.00717830
     atom   29 type  1   force =     0.00000951   -0.00001892   -0.00007361
     atom   30 type  1   force =     0.00000926   -0.00002086    0.00002899
     atom   31 type  1   force =    -0.00002673   -0.00005249   -0.00006340
     atom   32 type  1   force =    -0.00008771   -0.00009317    0.00003014
     atom   33 type  1   force =    -0.00051105    0.00031984    0.00929590
     atom   34 type  1   force =    -0.00050270   -0.00054577   -0.00826046
     atom   35 type  1   force =    -0.00014356    0.00057830    0.00931533
     atom   36 type  1   force =    -0.00183190    0.00258550   -0.01314268
     atom   37 type  1   force =     0.00004912   -0.00001630    0.00002750
     atom   38 type  1   force =    -0.00001925   -0.00003880    0.00002851
     atom   39 type  1   force =    -0.00000093   -0.00005884    0.00002681
     atom   40 type  1   force =     0.00004592   -0.00006992    0.00003789
     atom   41 type  1   force =     0.00000505   -0.00000391    0.00815334
     atom   42 type  1   force =     0.00069909   -0.00095314    0.00977845
     atom   43 type  1   force =    -0.00101857   -0.00061025   -0.01142291
     atom   44 type  1   force =     0.00032813   -0.00122591   -0.00717322
     atom   45 type  1   force =     0.00000666   -0.00001801   -0.00003522
     atom   46 type  1   force =     0.00000072   -0.00000368    0.00004858
     atom   47 type  1   force =     0.00006083    0.00002030   -0.00011254
     atom   48 type  1   force =    -0.00007502   -0.00008868    0.00001038
     atom   49 type  1   force =     0.00041327    0.00022265    0.00899805
     atom   50 type  1   force =    -0.00050988    0.00075614   -0.01147927
     atom   51 type  1   force =     0.00015333   -0.00060683    0.00931074
     atom   52 type  1   force =    -0.00069504   -0.00019869   -0.00826016
     atom   53 type  1   force =     0.00003492   -0.00002802   -0.00000088
     atom   54 type  1   force =    -0.00004973    0.00005736    0.00002533
     atom   55 type  1   force =     0.00000911    0.00004004    0.00002215
     atom   56 type  1   force =    -0.00002452   -0.00004764    0.00002380
     atom   57 type  1   force =    -0.00004413   -0.00001707    0.00964452
     atom   58 type  1   force =     0.00018358    0.00014623    0.00936372
     atom   59 type  1   force =     0.00106982   -0.00068127   -0.00717025
     atom   60 type  1   force =     0.00014303    0.00010746   -0.00661436
     atom   61 type  1   force =     0.00000106   -0.00000095    0.00006076
     atom   62 type  1   force =    -0.00005580   -0.00004591    0.00005234
     atom   63 type  1   force =     0.00009744    0.00002387    0.00000740
     atom   64 type  1   force =     0.00003510   -0.00000642   -0.00006333
     atom   65 type  2   force =    -0.00001479   -0.00004663    0.00001442
     atom   66 type  3   force =    -0.00001185   -0.00004804    0.00009481

     Total force =     0.000460     Total SCF correction =     0.000048
     SCF correction compared to forces is large: reduce conv_thr to get better values

     bfgs converged in  15 scf cycles and  14 bfgs steps
     (criteria: energy <  7.3E-07 Ry, force <  3.9E-04 Ry/Bohr)

     End of BFGS Geometry Optimization

     Final energy   =  -21093.7345470074 Ry
Begin final coordinates

ATOMIC_POSITIONS (angstrom)
Fe       1.654912953   1.170200133   0.000000000    0   0   0
Fe       0.000000000   0.000000000   2.026984232    0   0   0
Fe       4.964738858   3.510600399   0.000000000    0   0   0
Fe       3.309825906   2.340400266   2.026984232    0   0   0
Fe       1.674679919   1.170053949   4.024411147
Fe       3.317801728   9.351269853   5.993436626
Fe       4.975106178   3.522498291   4.040468915
Fe       3.364323758   2.337116375   6.011570520
Fe       2.482363858   3.510600399   0.000000000    0   0   0
Fe       4.137287953   1.170200133   0.000000000    0   0   0
Fe       0.827450906   2.340400266   2.026984232    0   0   0
Fe       2.482375000   0.000000000   2.026984232    0   0   0
Fe       2.482386627   3.510976849   4.039163398
Fe       4.160746440   1.187307773   4.031725372
Fe       0.858930488   2.322989476   5.996829394
Fe       2.495285462   0.009558553   6.011073605
Fe       6.619662953   1.170200133   0.000000000    0   0   0
Fe       4.964750000   0.000000000   2.026984232    0   0   0
Fe       9.929488858   3.510600399   0.000000000    0   0   0
Fe       8.274575906   2.340400266   2.026984232    0   0   0
Fe       6.633968580   1.176700994   4.040234488
Fe       4.979631427   0.053402158   6.011854785
Fe       9.919367934   3.499741984   4.040201213
Fe       8.361155758   2.219376755   5.978767999
Fe       7.447113858   3.510600399   0.000000000    0   0   0
Fe       9.102037953   1.170200133   0.000000000    0   0   0
Fe       5.792200906   2.340400266   2.026984232    0   0   0
Fe       7.447125000   0.000000000   2.026984232    0   0   0
Fe       7.447359676   3.511010964   3.999610575
Fe       9.119204612   1.146597481   4.006210360
Fe       5.881133685   2.403969580   6.051209801
Fe      10.763925137   9.327156784   5.996840154
Fe       3.309814764   5.851000664   0.000000000    0   0   0
Fe       1.654901811   4.680800531   2.026984232    0   0   0
Fe       6.619640670   8.191400930   0.000000000    0   0   0
Fe       4.964727717   7.021200797   2.026984232    0   0   0
Fe       3.290354959   5.851811766   4.024457302
Fe      11.530561855   4.685244835   6.011771178
Fe       6.625954851   8.210523307   4.024439285
Fe       4.957169753   7.032788554   5.992235275
Fe       4.137265670   8.191400930   0.000000000    0   0   0
Fe       5.792189764   5.851000664   0.000000000    0   0   0
Fe      12.411852717   7.021200797   2.026984232    0   0   0
Fe       4.137276811   4.680800531   2.026984232    0   0   0
Fe       4.137290376   8.192009146   4.021148719
Fe       5.775466288   5.875302535   4.005907459
Fe      12.399440533   7.012910195   6.010975865
Fe       4.106168386   4.699621818   5.997526219
Fe       8.274564764   5.851000664   0.000000000    0   0   0
Fe       6.619651811   4.680800531   2.026984232    0   0   0
Fe      11.584390670   8.191400930   0.000000000    0   0   0
Fe       9.929477717   7.021200797   2.026984232    0   0   0
Fe       8.260634086   5.845751495   4.040490928
Fe       6.533566359   4.804030381   5.978692073
Fe      11.578533510   8.173229531   4.024390693
Fe       9.915498686   6.969762047   6.011449514
Fe       9.102015670   8.191400930   0.000000000    0   0   0
Fe      10.756939764   5.851000664   0.000000000    0   0   0
Fe       7.447102717   7.021200797   2.026984232    0   0   0
Fe       9.102026811   4.680800531   2.026984232    0   0   0
Fe       9.102294244   8.192084710   4.039168267
Fe      10.733756719   5.835068683   4.031726277
Fe       7.440762206   7.057972158   5.997514618
Fe       9.014331283   4.619330483   6.051015249
H        7.449048210   3.513524238   8.026133271
N        7.448923264   3.512949664   6.997874877
End final coordinates



     Writing output data file Fe_NH_paper_480c.save/

     init_run     :    169.85s CPU    171.97s WALL (       1 calls)
     electrons    :  85784.01s CPU  86688.10s WALL (      15 calls)
     update_pot   :    503.70s CPU    505.96s WALL (      14 calls)
     forces       :   1141.39s CPU   1150.81s WALL (      15 calls)

     Called by init_run:
     wfcinit      :    127.31s CPU    129.04s WALL (       1 calls)
     potinit      :     17.63s CPU     17.69s WALL (       1 calls)
     hinit0       :     20.88s CPU     20.98s WALL (       1 calls)

     Called by electrons:
     c_bands      :  70993.98s CPU  71726.38s WALL (     224 calls)
     sum_band     :   8216.30s CPU   8327.81s WALL (     224 calls)
     v_of_rho     :    667.40s CPU    670.99s WALL (     225 calls)
     newd         :    132.07s CPU    139.40s WALL (     225 calls)
     PAW_pot      :    195.05s CPU    195.90s WALL (     239 calls)
     mix_rho      :   5498.51s CPU   5539.68s WALL (     224 calls)

     Called by c_bands:
     init_us_2    :    229.37s CPU    233.42s WALL (    1434 calls)
     cegterg      :  67295.96s CPU  67817.03s WALL (     672 calls)

     Called by sum_band:
     sum_band:bec :      7.04s CPU      7.10s WALL (     714 calls)
     addusdens    :    158.02s CPU    170.50s WALL (     224 calls)

     Called by *egterg:
     h_psi        :  31227.34s CPU  31466.55s WALL (    2513 calls)
     s_psi        :   5529.89s CPU   5541.76s WALL (    2513 calls)
     g_psi        :     68.85s CPU     69.04s WALL (    1838 calls)
     cdiaghg      :  13381.42s CPU  13443.21s WALL (    2426 calls)

     Called by h_psi:
     h_psi:pot    :  31117.62s CPU  31271.28s WALL (    2513 calls)
     h_psi:calbec :   5491.12s CPU   5504.22s WALL (    2513 calls)
     vloc_psi     :  20089.37s CPU  20215.88s WALL (    2513 calls)
     add_vuspsi   :   5537.09s CPU   5551.17s WALL (    2513 calls)

     General routines
     calbec       :   8616.13s CPU   8638.24s WALL (    3407 calls)
     fft          :    470.79s CPU    472.90s WALL (    5862 calls)
     ffts         :   3088.06s CPU   3105.77s WALL (  127717 calls)
     fftw         :  21755.88s CPU  21885.06s WALL ( 2334586 calls)
     interpolate  :     49.58s CPU     49.83s WALL (     450 calls)
     davcio       :      0.74s CPU    244.76s WALL (    5115 calls)

     Parallel routines
     fft_scatt_xy :   3370.76s CPU   3392.96s WALL ( 2468165 calls)
     fft_scatt_yz :  13230.36s CPU  13308.67s WALL ( 2468165 calls)

     PWSCF        :   1d 0h23m CPU   1d 0h38m WALL


   This run was terminated on:  15:10:57   2Jun2022            

=------------------------------------------------------------------------------=
   JOB DONE.
=------------------------------------------------------------------------------=
