
     Program PWSCF v.6.4.1 starts on 12Jun2022 at 21: 2:11 

     This program is part of the open-source Quantum ESPRESSO suite
     for quantum simulation of materials; please cite
         "P. Giannozzi et al., J. Phys.:Condens. Matter 21 395502 (2009);
         "P. Giannozzi et al., J. Phys.:Condens. Matter 29 465901 (2017);
          URL http://www.quantum-espresso.org", 
     in publications or presentations arising from this work. More details at
     http://www.quantum-espresso.org/quote

     Parallel version (MPI), running on   160 processors

     MPI processes distributed on     8 nodes
     K-points division:     npool     =       8
     R & G space division:  proc/nbgrp/npool/nimage =      20
     Waiting for input...
     Reading input from standard input
Warning: card &CELL ignored
Warning: card / ignored

     Current dimensions of program PWSCF are:
     Max number of different atomic species (ntypx) = 10
     Max number of k-points (npk) =  40000
     Max angular momentum in pseudopotentials (lmaxx) =  3

     IMPORTANT: XC functional enforced from input :
     Exchange-correlation      = PBE ( 1  4  3  4 0 0)
     Any further DFT definition will be discarded
     Please, verify this is what you really want

               file Fe.pbe-spn-kjpaw_psl.0.2.1.UPF: wavefunction(s)  3D renormalized

     -------------------------------------------------
     Parameters for Dispersion (Grimme-D2) Correction:
     -------------------------------------------------
       atom      VdW radius       C_6     

        Fe         2.952        374.666
        N          2.640         42.670
        H          1.892          4.857

     Subspace diagonalization in iterative solution of the eigenvalue problem:
     one sub-group per band group will be used
     scalapack distributed-memory algorithm (size of sub-group:  3*  3 procs)


     Parallelization info
     --------------------
     sticks:   dense  smooth     PW     G-vecs:    dense   smooth      PW
     Min         634     317     83               145278    51361    6989
     Max         635     318     84               145287    51370    7000
     Sum       12685    6351   1677              2905599  1027285  139897



     bravais-lattice index     =            0
     lattice parameter (alat)  =      18.7640  a.u.
     unit-cell volume          =   16360.3163 (a.u.)^3
     number of atoms/cell      =           67
     number of atomic types    =            3
     number of electrons       =      1031.00
     number of Kohn-Sham states=          619
     kinetic-energy cutoff     =      60.0000  Ry
     charge density cutoff     =     480.0000  Ry
     convergence threshold     =      1.0E-08
     mixing beta               =       0.2000
     number of iterations used =           10  local-TF  mixing
     Exchange-correlation      = PBE ( 1  4  3  4 0 0)
     nstep                     =           50


     Effective Screening Medium Method
     =================================
     Boundary Conditions: Metal-Slab-Metal
     field strength                   =    -0.01 Ry/a.u.
     grid points for fit at edges     =        4 


     celldm(1)=  18.764036  celldm(2)=   0.000000  celldm(3)=   0.000000
     celldm(4)=   0.000000  celldm(5)=   0.000000  celldm(6)=   0.000000

     crystal axes: (cart. coord. in units of alat)
               a(1) = (   1.000000   0.000000   0.000000 )  
               a(2) = (   0.333330   0.942807   0.000000 )  
               a(3) = (   0.000000   0.000000   2.626577 )  

     reciprocal axes: (cart. coord. in units 2 pi/alat)
               b(1) = (  1.000000 -0.353551  0.000000 )  
               b(2) = (  0.000000  1.060663  0.000000 )  
               b(3) = (  0.000000  0.000000  0.380724 )  


     PseudoPot. # 1 for Fe read from file:
     ../../SSSP/Fe.pbe-spn-kjpaw_psl.0.2.1.UPF
     MD5 check sum: e86618425769142926afa95317d90200
     Pseudo is Projector augmented-wave + core cor, Zval = 16.0
     Generated using "atomic" code by A. Dal Corso v.5.0.99 svn rev. 10869
     Shape of augmentation charge: PSQ
     Using radial grid of 1191 points,  6 beta functions with: 
                l(1) =   0
                l(2) =   0
                l(3) =   1
                l(4) =   1
                l(5) =   2
                l(6) =   2
     Q(r) pseudized with 0 coefficients 


     PseudoPot. # 2 for N  read from file:
     ../../SSSP/N.pbe-n-radius_5.UPF
     MD5 check sum: 16739722b17309cd8fe442a2ace49922
     Pseudo is Ultrasoft + core correction, Zval =  5.0
     Generated using "atomic" code by A. Dal Corso v.5.1
     Using radial grid of 1085 points,  4 beta functions with: 
                l(1) =   0
                l(2) =   0
                l(3) =   1
                l(4) =   1
     Q(r) pseudized with 0 coefficients 


     PseudoPot. # 3 for H  read from file:
     ../../SSSP/H.pbe-rrkjus_psl.1.0.0.UPF
     MD5 check sum: f52b6d4d1c606e5624b1dc7b2218f220
     Pseudo is Ultrasoft, Zval =  1.0
     Generated using "atomic" code by A. Dal Corso v.5.1
     Using radial grid of  929 points,  2 beta functions with: 
                l(1) =   0
                l(2) =   0
     Q(r) pseudized with 0 coefficients 


     atomic species   valence    mass     pseudopotential
        Fe            16.00    55.84500     Fe( 1.00)
        N              5.00    14.00700     N ( 1.00)
        H              1.00     1.00800     H ( 1.00)

     Starting magnetic structure 
     atomic species   magnetization
        Fe           0.100
        N            0.100
        H            0.100

     No symmetry found



   Cartesian axes

     site n.     atom                  positions (alat units)
         1           Fe  tau(   1) = (   0.1666663   0.1178509   0.0000000  )
         2           Fe  tau(   2) = (   0.0000000   0.0000000   0.2041376  )
         3           Fe  tau(   3) = (   0.4999989   0.3535526   0.0000000  )
         4           Fe  tau(   4) = (   0.3333326   0.2357017   0.2041376  )
         5           Fe  tau(   5) = (   0.1659469   0.1176111   0.4051778  )
         6           Fe  tau(   6) = (   0.3326774   0.9437552   0.6041133  )
         7           Fe  tau(   7) = (   0.4995314   0.3539857   0.4039182  )
         8           Fe  tau(   8) = (   0.3327696   0.2348883   0.6042468  )
         9           Fe  tau(   9) = (   0.2499989   0.3535526   0.0000000  )
        10           Fe  tau(  10) = (   0.4166663   0.1178509   0.0000000  )
        11           Fe  tau(  11) = (   0.0833326   0.2357017   0.2041376  )
        12           Fe  tau(  12) = (   0.2500000   0.0000000   0.2041376  )
        13           Fe  tau(  13) = (   0.2500040   0.3535498   0.4054794  )
        14           Fe  tau(  14) = (   0.4158894   0.1173033   0.4045494  )
        15           Fe  tau(  15) = (   0.0820556   0.2361265   0.6031108  )
        16           Fe  tau(  16) = (   0.2495625  -0.0002917   0.6052245  )
        17           Fe  tau(  17) = (   0.6666663   0.1178509   0.0000000  )
        18           Fe  tau(  18) = (   0.5000000   0.0000000   0.2041376  )
        19           Fe  tau(  19) = (   0.9999989   0.3535526   0.0000000  )
        20           Fe  tau(  20) = (   0.8333326   0.2357017   0.2041376  )
        21           Fe  tau(  21) = (   0.6669204   0.1172533   0.4039212  )
        22           Fe  tau(  22) = (   0.4990531  -0.0002644   0.6042086  )
        23           Fe  tau(  23) = (   1.0004862   0.3531177   0.4039164  )
        24           Fe  tau(  24) = (   0.8337778   0.2351175   0.6127879  )
        25           Fe  tau(  25) = (   0.7499989   0.3535526   0.0000000  )
        26           Fe  tau(  26) = (   0.9166663   0.1178509   0.0000000  )
        27           Fe  tau(  27) = (   0.5833326   0.2357017   0.2041376  )
        28           Fe  tau(  28) = (   0.7500000   0.0000000   0.2041376  )
        29           Fe  tau(  29) = (   0.7500131   0.3535440   0.4072842  )
        30           Fe  tau(  30) = (   0.9155831   0.1193857   0.4075395  )
        31           Fe  tau(  31) = (   0.5783441   0.2321719   0.5970314  )
        32           Fe  tau(  32) = (   1.0833832   0.9441686   0.6031127  )
        33           Fe  tau(  33) = (   0.3333315   0.5892543   0.0000000  )
        34           Fe  tau(  34) = (   0.1666652   0.4714034   0.2041376  )
        35           Fe  tau(  35) = (   0.6666640   0.8249560   0.0000000  )
        36           Fe  tau(  36) = (   0.4999978   0.7071052   0.2041376  )
        37           Fe  tau(  37) = (   0.3340416   0.5895146   0.4051839  )
        38           Fe  tau(  38) = (   1.1672537   0.4722186   0.6042084  )
        39           Fe  tau(  39) = (   0.6661837   0.8243868   0.4051812  )
        40           Fe  tau(  40) = (   0.5006285   0.7062097   0.6040795  )
        41           Fe  tau(  41) = (   0.4166640   0.8249560   0.0000000  )
        42           Fe  tau(  42) = (   0.5833315   0.5892543   0.0000000  )
        43           Fe  tau(  43) = (   0.2499978   0.7071052   0.2041376  )
        44           Fe  tau(  44) = (   0.4166652   0.4714034   0.2041376  )
        45           Fe  tau(  45) = (   0.4166452   0.8249897   0.4057805  )
        46           Fe  tau(  46) = (   0.5844057   0.5877497   0.4075311  )
        47           Fe  tau(  47) = (   1.2504327   0.7074244   0.6052235  )
        48           Fe  tau(  48) = (   0.4179751   0.4709968   0.6031410  )
        49           Fe  tau(  49) = (   0.8333315   0.5892543   0.0000000  )
        50           Fe  tau(  50) = (   0.6666652   0.4714034   0.2041376  )
        51           Fe  tau(  51) = (   1.1666640   0.8249560   0.0000000  )
        52           Fe  tau(  52) = (   0.9999978   0.7071052   0.2041376  )
        53           Fe  tau(  53) = (   0.8330940   0.5898506   0.4039165  )
        54           Fe  tau(  54) = (   0.6663009   0.4719620   0.6127536  )
        55           Fe  tau(  55) = (   1.1671405   0.8255567   0.4051807  )
        56           Fe  tau(  56) = (   1.0009605   0.7073708   0.6042382  )
        57           Fe  tau(  57) = (   0.9166640   0.8249560   0.0000000  )
        58           Fe  tau(  58) = (   1.0833315   0.5892543   0.0000000  )
        59           Fe  tau(  59) = (   0.7499978   0.7071052   0.2041376  )
        60           Fe  tau(  60) = (   0.9166652   0.4714034   0.2041376  )
        61           Fe  tau(  61) = (   0.9166718   0.8249618   0.4054780  )
        62           Fe  tau(  62) = (   1.0841179   0.5898081   0.4045489  )
        63           Fe  tau(  63) = (   0.7499449   0.7057654   0.6031249  )
        64           Fe  tau(  64) = (   0.9216800   0.4749338   0.5970275  )
        65           N   tau(  65) = (   0.7501346   0.3536354   0.7529466  )
        66           H   tau(  66) = (   0.8168477   0.4009022   0.8166592  )
        67           H   tau(  67) = (   0.6834358   0.3064220   0.8167099  )

     number of k points=    10  Methfessel-Paxton smearing, width (Ry)=  0.0100
                       cart. coord. in units 2pi/alat
        k(    1) = (   0.0000000   0.0000000   0.0000000), wk =   0.0625000
        k(    2) = (   0.0000000   0.2651656   0.0000000), wk =   0.1250000
        k(    3) = (   0.0000000  -0.5303313   0.0000000), wk =   0.0625000
        k(    4) = (   0.2500000  -0.0883878   0.0000000), wk =   0.1250000
        k(    5) = (   0.2500000   0.1767779   0.0000000), wk =   0.1250000
        k(    6) = (   0.2500000  -0.6187190   0.0000000), wk =   0.1250000
        k(    7) = (   0.2500000  -0.3535534   0.0000000), wk =   0.1250000
        k(    8) = (  -0.5000000   0.1767755   0.0000000), wk =   0.0625000
        k(    9) = (  -0.5000000   0.4419412   0.0000000), wk =   0.1250000
        k(   10) = (  -0.5000000  -0.3535558   0.0000000), wk =   0.0625000

     Dense  grid:  2905599 G-vectors     FFT dimensions: ( 135, 135, 360)

     Smooth grid:  1027285 G-vectors     FFT dimensions: (  96,  96, 243)

     Estimated max dynamical RAM per process >       1.01 GB

     Estimated total dynamical RAM >     162.06 GB
     Generating pointlists ...
     new r_m :   0.0832 (alat units)  1.5612 (a.u.) for type    1
     new r_m :   0.0428 (alat units)  0.8023 (a.u.) for type    2
     new r_m :   0.0428 (alat units)  0.8023 (a.u.) for type    3

     Check: negative core charge=   -0.000039

     Initial potential from superposition of free atoms

     starting charge 1030.97192, renormalised to 1031.00000

     negative rho (up, down):  2.438E-02 2.557E-03
     Starting wfcs are  838 randomized atomic wfcs
     Checking if some PAW data can be deallocated... 

     total cpu time spent up to now is       89.0 secs

     Self-consistent Calculation

     iteration #  1     ecut=    60.00 Ry     beta= 0.20
     Davidson diagonalization with overlap
     c_bands:  1 eigenvalues not converged
     c_bands:  1 eigenvalues not converged
     ethr =  1.00E-04,  avg # of iterations = 18.9

     negative rho (up, down):  1.282E-02 3.415E-03

     total cpu time spent up to now is     1101.9 secs

     total energy              =  -21089.93133446 Ry
     Harris-Foulkes estimate   =  -21096.82670925 Ry
     estimated scf accuracy    <     338.09816870 Ry

     total magnetization       =   107.17 Bohr mag/cell
     absolute magnetization    =   108.04 Bohr mag/cell

     iteration #  2     ecut=    60.00 Ry     beta= 0.20
     Davidson diagonalization with overlap
     ethr =  1.00E-02,  avg # of iterations =  1.0

     negative rho (up, down):  9.749E-03 4.045E-02

     total cpu time spent up to now is     1245.3 secs

     total energy              =  -21093.59569298 Ry
     Harris-Foulkes estimate   =  -21096.24421092 Ry
     estimated scf accuracy    <     140.07003350 Ry

     total magnetization       =   108.44 Bohr mag/cell
     absolute magnetization    =   109.39 Bohr mag/cell

     iteration #  3     ecut=    60.00 Ry     beta= 0.20
     Davidson diagonalization with overlap
     ethr =  1.00E-02,  avg # of iterations =  1.0

     negative rho (up, down):  4.945E-03 1.786E-02

     total cpu time spent up to now is     1375.7 secs

     total energy              =  -21094.89405627 Ry
     Harris-Foulkes estimate   =  -21095.00657750 Ry
     estimated scf accuracy    <      10.08531986 Ry

     total magnetization       =   133.44 Bohr mag/cell
     absolute magnetization    =   133.85 Bohr mag/cell

     iteration #  4     ecut=    60.00 Ry     beta= 0.20
     Davidson diagonalization with overlap
     ethr =  9.78E-04,  avg # of iterations =  1.0

     negative rho (up, down):  3.160E-03 1.947E-02

     total cpu time spent up to now is     1514.7 secs

     total energy              =  -21094.92963777 Ry
     Harris-Foulkes estimate   =  -21094.98656417 Ry
     estimated scf accuracy    <      15.25983948 Ry

     total magnetization       =   140.26 Bohr mag/cell
     absolute magnetization    =   140.75 Bohr mag/cell

     iteration #  5     ecut=    60.00 Ry     beta= 0.20
     Davidson diagonalization with overlap
     ethr =  9.78E-04,  avg # of iterations =  1.0

     negative rho (up, down):  1.637E-02 2.037E-01

     total cpu time spent up to now is     1642.1 secs

     total energy              =  -21093.02806037 Ry
     Harris-Foulkes estimate   =  -21094.96237425 Ry
     estimated scf accuracy    <      15.69710892 Ry

     total magnetization       =   143.32 Bohr mag/cell
     absolute magnetization    =   143.91 Bohr mag/cell

     iteration #  6     ecut=    60.00 Ry     beta= 0.20
     Davidson diagonalization with overlap
     ethr =  9.78E-04,  avg # of iterations =  7.7

     negative rho (up, down):  2.608E-03 1.014E-01

     total cpu time spent up to now is     1874.1 secs

     total energy              =  -21094.32060845 Ry
     Harris-Foulkes estimate   =  -21094.15830962 Ry
     estimated scf accuracy    <       3.89442979 Ry

     total magnetization       =   156.63 Bohr mag/cell
     absolute magnetization    =   160.11 Bohr mag/cell

     iteration #  7     ecut=    60.00 Ry     beta= 0.20
     Davidson diagonalization with overlap
     ethr =  3.78E-04,  avg # of iterations =  5.7

     negative rho (up, down):  8.205E-04 3.836E-02

     total cpu time spent up to now is     2081.1 secs

     total energy              =  -21094.59305080 Ry
     Harris-Foulkes estimate   =  -21094.64323169 Ry
     estimated scf accuracy    <       0.91589805 Ry

     total magnetization       =   149.97 Bohr mag/cell
     absolute magnetization    =   153.21 Bohr mag/cell

     iteration #  8     ecut=    60.00 Ry     beta= 0.20
     Davidson diagonalization with overlap
     c_bands:  1 eigenvalues not converged
     ethr =  8.88E-05,  avg # of iterations = 15.4

     negative rho (up, down):  2.735E-04 1.972E-02

     total cpu time spent up to now is     2978.6 secs

     total energy              =  -21094.94813751 Ry
     Harris-Foulkes estimate   =  -21095.04127413 Ry
     estimated scf accuracy    <       2.01311531 Ry

     total magnetization       =   150.11 Bohr mag/cell
     absolute magnetization    =   155.29 Bohr mag/cell

     iteration #  9     ecut=    60.00 Ry     beta= 0.20
     Davidson diagonalization with overlap
     ethr =  8.88E-05,  avg # of iterations =  1.6

     negative rho (up, down):  1.013E-04 1.885E-02

     total cpu time spent up to now is     3121.7 secs

     total energy              =  -21094.93416551 Ry
     Harris-Foulkes estimate   =  -21094.98101277 Ry
     estimated scf accuracy    <       0.45027985 Ry

     total magnetization       =   150.94 Bohr mag/cell
     absolute magnetization    =   155.65 Bohr mag/cell

     iteration # 10     ecut=    60.00 Ry     beta= 0.20
     Davidson diagonalization with overlap
     ethr =  4.37E-05,  avg # of iterations =  5.8

     negative rho (up, down):  2.139E-04 2.399E-02

     total cpu time spent up to now is     3363.7 secs

     total energy              =  -21094.95202618 Ry
     Harris-Foulkes estimate   =  -21094.96700840 Ry
     estimated scf accuracy    <       0.60054482 Ry

     total magnetization       =   153.29 Bohr mag/cell
     absolute magnetization    =   157.68 Bohr mag/cell

     iteration # 11     ecut=    60.00 Ry     beta= 0.20
     Davidson diagonalization with overlap
     ethr =  4.37E-05,  avg # of iterations =  1.6

     negative rho (up, down):  2.044E-04 2.417E-02

     total cpu time spent up to now is     3510.8 secs

     total energy              =  -21094.96728723 Ry
     Harris-Foulkes estimate   =  -21094.98089736 Ry
     estimated scf accuracy    <       0.22936542 Ry

     total magnetization       =   156.92 Bohr mag/cell
     absolute magnetization    =   161.43 Bohr mag/cell

     iteration # 12     ecut=    60.00 Ry     beta= 0.20
     Davidson diagonalization with overlap
     ethr =  2.22E-05,  avg # of iterations =  8.3

     negative rho (up, down):  1.269E-04 1.693E-02

     total cpu time spent up to now is     3777.0 secs

     total energy              =  -21094.97246667 Ry
     Harris-Foulkes estimate   =  -21094.98517674 Ry
     estimated scf accuracy    <       0.19341195 Ry

     total magnetization       =   159.32 Bohr mag/cell
     absolute magnetization    =   164.17 Bohr mag/cell

     iteration # 13     ecut=    60.00 Ry     beta= 0.20
     Davidson diagonalization with overlap
     c_bands:  4 eigenvalues not converged
     ethr =  1.88E-05,  avg # of iterations = 12.1

     negative rho (up, down):  2.563E-04 2.086E-02

     total cpu time spent up to now is     4214.6 secs

     total energy              =  -21094.98327869 Ry
     Harris-Foulkes estimate   =  -21094.99428447 Ry
     estimated scf accuracy    <       0.21152271 Ry

     total magnetization       =   160.76 Bohr mag/cell
     absolute magnetization    =   165.68 Bohr mag/cell

     iteration # 14     ecut=    60.00 Ry     beta= 0.20
     Davidson diagonalization with overlap
     ethr =  1.88E-05,  avg # of iterations =  6.7

     negative rho (up, down):  4.699E-02 3.703E-02

     total cpu time spent up to now is     4455.5 secs

     total energy              =  -21094.97945482 Ry
     Harris-Foulkes estimate   =  -21094.99039759 Ry
     estimated scf accuracy    <       0.14399278 Ry

     total magnetization       =   159.71 Bohr mag/cell
     absolute magnetization    =   164.60 Bohr mag/cell

     iteration # 15     ecut=    60.00 Ry     beta= 0.20
     Davidson diagonalization with overlap
     c_bands:  3 eigenvalues not converged
     ethr =  1.40E-05,  avg # of iterations =  9.7

     negative rho (up, down):  2.927E-02 3.033E-02

     total cpu time spent up to now is     4821.2 secs

     total energy              =  -21094.98884561 Ry
     Harris-Foulkes estimate   =  -21094.99413677 Ry
     estimated scf accuracy    <       0.12842882 Ry

     total magnetization       =   161.37 Bohr mag/cell
     absolute magnetization    =   166.55 Bohr mag/cell

     iteration # 16     ecut=    60.00 Ry     beta= 0.20
     Davidson diagonalization with overlap
     ethr =  1.25E-05,  avg # of iterations =  7.5

     negative rho (up, down):  1.047E-01 2.219E-02

     total cpu time spent up to now is     5095.1 secs

     total energy              =  -21094.97301278 Ry
     Harris-Foulkes estimate   =  -21094.99257631 Ry
     estimated scf accuracy    <       0.08641685 Ry

     total magnetization       =   161.72 Bohr mag/cell
     absolute magnetization    =   166.98 Bohr mag/cell

     iteration # 17     ecut=    60.00 Ry     beta= 0.20
     Davidson diagonalization with overlap
     ethr =  8.38E-06,  avg # of iterations = 14.7

     negative rho (up, down):  1.763E-01 1.760E-02

     total cpu time spent up to now is     5475.1 secs

     total energy              =  -21094.96890617 Ry
     Harris-Foulkes estimate   =  -21094.98254080 Ry
     estimated scf accuracy    <       0.03746392 Ry

     total magnetization       =   161.52 Bohr mag/cell
     absolute magnetization    =   166.98 Bohr mag/cell

     iteration # 18     ecut=    60.00 Ry     beta= 0.20
     Davidson diagonalization with overlap
     c_bands:  3 eigenvalues not converged
     c_bands:  4 eigenvalues not converged
     c_bands:  1 eigenvalues not converged
     ethr =  3.63E-06,  avg # of iterations = 27.1

     negative rho (up, down):  1.461E-01 1.673E-02

     total cpu time spent up to now is     7078.9 secs

     total energy              =  -21094.97915860 Ry
     Harris-Foulkes estimate   =  -21094.98514058 Ry
     estimated scf accuracy    <       0.04829885 Ry

     total magnetization       =   161.31 Bohr mag/cell
     absolute magnetization    =   167.37 Bohr mag/cell

     iteration # 19     ecut=    60.00 Ry     beta= 0.20
     Davidson diagonalization with overlap
     c_bands:  2 eigenvalues not converged
     ethr =  3.63E-06,  avg # of iterations = 14.2

     negative rho (up, down):  8.448E-02 2.312E-02

     total cpu time spent up to now is     7422.6 secs

     total energy              =  -21094.92078403 Ry
     Harris-Foulkes estimate   =  -21094.98047431 Ry
     estimated scf accuracy    <       0.03321110 Ry

     total magnetization       =   161.33 Bohr mag/cell
     absolute magnetization    =   167.37 Bohr mag/cell

     iteration # 20     ecut=    60.00 Ry     beta= 0.20
     Davidson diagonalization with overlap
     c_bands:  1 eigenvalues not converged
     ethr =  3.22E-06,  avg # of iterations = 18.6

     negative rho (up, down):  1.407E-01 2.264E-02

     total cpu time spent up to now is     8516.5 secs

     total energy              =  -21094.92244990 Ry
     Harris-Foulkes estimate   =  -21094.94011402 Ry
     estimated scf accuracy    <       0.07573715 Ry

     total magnetization       =   160.69 Bohr mag/cell
     absolute magnetization    =   167.16 Bohr mag/cell

     iteration # 21     ecut=    60.00 Ry     beta= 0.20
     Davidson diagonalization with overlap
     ethr =  3.22E-06,  avg # of iterations = 15.4

     negative rho (up, down):  1.566E-01 2.449E-02

     total cpu time spent up to now is     9273.5 secs

     total energy              =  -21094.91697566 Ry
     Harris-Foulkes estimate   =  -21094.92416093 Ry
     estimated scf accuracy    <       0.04792034 Ry

     total magnetization       =   161.17 Bohr mag/cell
     absolute magnetization    =   167.66 Bohr mag/cell

     iteration # 22     ecut=    60.00 Ry     beta= 0.20
     Davidson diagonalization with overlap
     ethr =  3.22E-06,  avg # of iterations = 13.6

     negative rho (up, down):  1.496E-01 2.450E-02

     total cpu time spent up to now is    10126.4 secs

     total energy              =  -21094.91621190 Ry
     Harris-Foulkes estimate   =  -21094.91803111 Ry
     estimated scf accuracy    <       0.02915605 Ry

     total magnetization       =   161.41 Bohr mag/cell
     absolute magnetization    =   167.91 Bohr mag/cell

     iteration # 23     ecut=    60.00 Ry     beta= 0.20
     Davidson diagonalization with overlap
     ethr =  2.83E-06,  avg # of iterations =  4.1

     negative rho (up, down):  1.174E-01 2.324E-02

     total cpu time spent up to now is    10384.7 secs

     total energy              =  -21094.91053891 Ry
     Harris-Foulkes estimate   =  -21094.91667401 Ry
     estimated scf accuracy    <       0.02444047 Ry

     total magnetization       =   161.42 Bohr mag/cell
     absolute magnetization    =   167.92 Bohr mag/cell

     iteration # 24     ecut=    60.00 Ry     beta= 0.20
     Davidson diagonalization with overlap
     ethr =  2.37E-06,  avg # of iterations =  6.3

     negative rho (up, down):  9.865E-02 2.095E-02

     total cpu time spent up to now is    10720.7 secs

     total energy              =  -21094.91001890 Ry
     Harris-Foulkes estimate   =  -21094.91188583 Ry
     estimated scf accuracy    <       0.01301440 Ry

     total magnetization       =   161.71 Bohr mag/cell
     absolute magnetization    =   168.23 Bohr mag/cell

     iteration # 25     ecut=    60.00 Ry     beta= 0.20
     Davidson diagonalization with overlap
     ethr =  1.26E-06,  avg # of iterations =  8.8

     negative rho (up, down):  4.744E-02 2.758E-02

     total cpu time spent up to now is    11172.0 secs

     total energy              =  -21094.89940876 Ry
     Harris-Foulkes estimate   =  -21094.91079070 Ry
     estimated scf accuracy    <       0.00736080 Ry

     total magnetization       =   161.94 Bohr mag/cell
     absolute magnetization    =   168.49 Bohr mag/cell

     iteration # 26     ecut=    60.00 Ry     beta= 0.20
     Davidson diagonalization with overlap
     c_bands:  1 eigenvalues not converged
     ethr =  7.14E-07,  avg # of iterations = 24.8

     negative rho (up, down):  4.269E-02 2.465E-02

     total cpu time spent up to now is    12295.2 secs

     total energy              =  -21094.90039685 Ry
     Harris-Foulkes estimate   =  -21094.90132418 Ry
     estimated scf accuracy    <       0.00113367 Ry

     total magnetization       =   162.10 Bohr mag/cell
     absolute magnetization    =   168.65 Bohr mag/cell

     iteration # 27     ecut=    60.00 Ry     beta= 0.20
     Davidson diagonalization with overlap
     c_bands:  1 eigenvalues not converged
     ethr =  1.10E-07,  avg # of iterations = 19.3

     negative rho (up, down):  3.793E-02 2.253E-02

     total cpu time spent up to now is    13191.0 secs

     total energy              =  -21094.90156809 Ry
     Harris-Foulkes estimate   =  -21094.90119102 Ry
     estimated scf accuracy    <       0.00066560 Ry

     total magnetization       =   161.87 Bohr mag/cell
     absolute magnetization    =   168.44 Bohr mag/cell

     iteration # 28     ecut=    60.00 Ry     beta= 0.20
     Davidson diagonalization with overlap
     c_bands:  3 eigenvalues not converged
     ethr =  6.46E-08,  avg # of iterations = 10.5

     negative rho (up, down):  2.830E-02 2.043E-02

     total cpu time spent up to now is    13493.5 secs

     total energy              =  -21094.90578266 Ry
     Harris-Foulkes estimate   =  -21094.90161448 Ry
     estimated scf accuracy    <       0.00042938 Ry

     total magnetization       =   161.78 Bohr mag/cell
     absolute magnetization    =   168.34 Bohr mag/cell

     iteration # 29     ecut=    60.00 Ry     beta= 0.20
     Davidson diagonalization with overlap
     c_bands:  3 eigenvalues not converged
     ethr =  4.16E-08,  avg # of iterations = 12.6

     negative rho (up, down):  2.746E-02 2.072E-02

     total cpu time spent up to now is    14523.6 secs

     total energy              =  -21094.90579283 Ry
     Harris-Foulkes estimate   =  -21094.90607396 Ry
     estimated scf accuracy    <       0.00081815 Ry

     total magnetization       =   161.78 Bohr mag/cell
     absolute magnetization    =   168.32 Bohr mag/cell

     iteration # 30     ecut=    60.00 Ry     beta= 0.20
     Davidson diagonalization with overlap
     c_bands:  1 eigenvalues not converged
     ethr =  4.16E-08,  avg # of iterations = 12.6

     negative rho (up, down):  2.619E-02 2.012E-02

     total cpu time spent up to now is    15165.3 secs

     total energy              =  -21094.90711912 Ry
     Harris-Foulkes estimate   =  -21094.90588267 Ry
     estimated scf accuracy    <       0.00022336 Ry

     total magnetization       =   161.77 Bohr mag/cell
     absolute magnetization    =   168.31 Bohr mag/cell

     iteration # 31     ecut=    60.00 Ry     beta= 0.20
     Davidson diagonalization with overlap
     c_bands:  1 eigenvalues not converged
     c_bands:  4 eigenvalues not converged
     ethr =  2.17E-08,  avg # of iterations =  9.6

     negative rho (up, down):  2.518E-02 2.009E-02

     total cpu time spent up to now is    15919.1 secs

     total energy              =  -21094.90794071 Ry
     Harris-Foulkes estimate   =  -21094.90719267 Ry
     estimated scf accuracy    <       0.00019901 Ry

     total magnetization       =   161.68 Bohr mag/cell
     absolute magnetization    =   168.20 Bohr mag/cell

     iteration # 32     ecut=    60.00 Ry     beta= 0.20
     Davidson diagonalization with overlap
     c_bands:  1 eigenvalues not converged
     ethr =  1.93E-08,  avg # of iterations =  5.8

     negative rho (up, down):  2.232E-02 1.993E-02

     total cpu time spent up to now is    16210.1 secs

     total energy              =  -21094.91017301 Ry
     Harris-Foulkes estimate   =  -21094.90795926 Ry
     estimated scf accuracy    <       0.00010430 Ry

     total magnetization       =   161.70 Bohr mag/cell
     absolute magnetization    =   168.21 Bohr mag/cell

     iteration # 33     ecut=    60.00 Ry     beta= 0.20
     Davidson diagonalization with overlap
     ethr =  1.01E-08,  avg # of iterations =  8.9

     negative rho (up, down):  2.152E-02 2.002E-02

     total cpu time spent up to now is    16879.1 secs

     total energy              =  -21094.91216138 Ry
     Harris-Foulkes estimate   =  -21094.91020744 Ry
     estimated scf accuracy    <       0.00014508 Ry

     total magnetization       =   161.67 Bohr mag/cell
     absolute magnetization    =   168.18 Bohr mag/cell

     iteration # 34     ecut=    60.00 Ry     beta= 0.20
     Davidson diagonalization with overlap
     ethr =  1.01E-08,  avg # of iterations =  7.2

     negative rho (up, down):  2.129E-02 2.012E-02

     total cpu time spent up to now is    17187.1 secs

     total energy              =  -21094.91254156 Ry
     Harris-Foulkes estimate   =  -21094.91219870 Ry
     estimated scf accuracy    <       0.00003220 Ry

     total magnetization       =   161.57 Bohr mag/cell
     absolute magnetization    =   168.09 Bohr mag/cell

     iteration # 35     ecut=    60.00 Ry     beta= 0.20
     Davidson diagonalization with overlap
     c_bands:  3 eigenvalues not converged
     ethr =  3.12E-09,  avg # of iterations = 10.9

     negative rho (up, down):  2.151E-02 2.015E-02

     total cpu time spent up to now is    17757.8 secs

     total energy              =  -21094.91245783 Ry
     Harris-Foulkes estimate   =  -21094.91254823 Ry
     estimated scf accuracy    <       0.00002332 Ry

     total magnetization       =   161.56 Bohr mag/cell
     absolute magnetization    =   168.08 Bohr mag/cell

     iteration # 36     ecut=    60.00 Ry     beta= 0.20
     Davidson diagonalization with overlap
     c_bands:  2 eigenvalues not converged
     ethr =  2.26E-09,  avg # of iterations = 10.1

     negative rho (up, down):  2.308E-02 2.025E-02

     total cpu time spent up to now is    18023.4 secs

     total energy              =  -21094.91181660 Ry
     Harris-Foulkes estimate   =  -21094.91246005 Ry
     estimated scf accuracy    <       0.00001558 Ry

     total magnetization       =   161.56 Bohr mag/cell
     absolute magnetization    =   168.08 Bohr mag/cell

     iteration # 37     ecut=    60.00 Ry     beta= 0.20
     Davidson diagonalization with overlap
     ethr =  1.51E-09,  avg # of iterations = 10.4

     negative rho (up, down):  2.377E-02 2.026E-02

     total cpu time spent up to now is    18771.3 secs

     total energy              =  -21094.91171748 Ry
     Harris-Foulkes estimate   =  -21094.91182309 Ry
     estimated scf accuracy    <       0.00000772 Ry

     total magnetization       =   161.56 Bohr mag/cell
     absolute magnetization    =   168.08 Bohr mag/cell

     iteration # 38     ecut=    60.00 Ry     beta= 0.20
     Davidson diagonalization with overlap
     ethr =  7.49E-10,  avg # of iterations =  9.0

     negative rho (up, down):  2.422E-02 2.025E-02

     total cpu time spent up to now is    19299.0 secs

     total energy              =  -21094.91150157 Ry
     Harris-Foulkes estimate   =  -21094.91171977 Ry
     estimated scf accuracy    <       0.00000170 Ry

     total magnetization       =   161.56 Bohr mag/cell
     absolute magnetization    =   168.08 Bohr mag/cell

     iteration # 39     ecut=    60.00 Ry     beta= 0.20
     Davidson diagonalization with overlap
     ethr =  1.65E-10,  avg # of iterations = 15.2

     negative rho (up, down):  2.423E-02 2.026E-02

     total cpu time spent up to now is    19964.5 secs

     total energy              =  -21094.91148515 Ry
     Harris-Foulkes estimate   =  -21094.91150247 Ry
     estimated scf accuracy    <       0.00000043 Ry

     total magnetization       =   161.56 Bohr mag/cell
     absolute magnetization    =   168.09 Bohr mag/cell

     iteration # 40     ecut=    60.00 Ry     beta= 0.20
     Davidson diagonalization with overlap
     ethr =  4.18E-11,  avg # of iterations = 12.2

     negative rho (up, down):  2.434E-02 2.027E-02

     total cpu time spent up to now is    20611.9 secs

     total energy              =  -21094.91142582 Ry
     Harris-Foulkes estimate   =  -21094.91148537 Ry
     estimated scf accuracy    <       0.00000029 Ry

     total magnetization       =   161.56 Bohr mag/cell
     absolute magnetization    =   168.09 Bohr mag/cell

     iteration # 41     ecut=    60.00 Ry     beta= 0.20
     Davidson diagonalization with overlap
     ethr =  2.84E-11,  avg # of iterations =  9.8

     negative rho (up, down):  2.438E-02 2.027E-02

     total cpu time spent up to now is    20966.6 secs

     total energy              =  -21094.91140294 Ry
     Harris-Foulkes estimate   =  -21094.91142588 Ry
     estimated scf accuracy    <       0.00000018 Ry

     total magnetization       =   161.56 Bohr mag/cell
     absolute magnetization    =   168.09 Bohr mag/cell

     iteration # 42     ecut=    60.00 Ry     beta= 0.20
     Davidson diagonalization with overlap
     ethr =  1.76E-11,  avg # of iterations =  9.0

     negative rho (up, down):  2.440E-02 2.028E-02

     total cpu time spent up to now is    21461.0 secs

     total energy              =  -21094.91140440 Ry
     Harris-Foulkes estimate   =  -21094.91140298 Ry
     estimated scf accuracy    <       0.00000005 Ry

     total magnetization       =   161.56 Bohr mag/cell
     absolute magnetization    =   168.09 Bohr mag/cell

     iteration # 43     ecut=    60.00 Ry     beta= 0.20
     Davidson diagonalization with overlap
     ethr =  4.72E-12,  avg # of iterations = 11.7

     negative rho (up, down):  2.440E-02 2.027E-02

     total cpu time spent up to now is    22259.9 secs

     total energy              =  -21094.91141325 Ry
     Harris-Foulkes estimate   =  -21094.91140444 Ry
     estimated scf accuracy    <       0.00000002 Ry

     total magnetization       =   161.56 Bohr mag/cell
     absolute magnetization    =   168.09 Bohr mag/cell

     iteration # 44     ecut=    60.00 Ry     beta= 0.20
     Davidson diagonalization with overlap
     ethr =  2.37E-12,  avg # of iterations =  8.8

     negative rho (up, down):  2.439E-02 2.027E-02

     total cpu time spent up to now is    22650.3 secs

     total energy              =  -21094.91141594 Ry
     Harris-Foulkes estimate   =  -21094.91141325 Ry
     estimated scf accuracy    <       0.00000001 Ry

     total magnetization       =   161.56 Bohr mag/cell
     absolute magnetization    =   168.09 Bohr mag/cell

     iteration # 45     ecut=    60.00 Ry     beta= 0.20
     Davidson diagonalization with overlap
     ethr =  9.88E-13,  avg # of iterations =  8.8

     negative rho (up, down):  2.439E-02 2.026E-02

     Magnetic moment per site:
     atom:    1    charge:   13.2655    magn:    2.4997    constr:    0.0000
     atom:    2    charge:   13.2683    magn:    2.3396    constr:    0.0000
     atom:    3    charge:   13.2657    magn:    2.5079    constr:    0.0000
     atom:    4    charge:   13.2708    magn:    2.3108    constr:    0.0000
     atom:    5    charge:   13.2745    magn:    2.2896    constr:    0.0000
     atom:    6    charge:   13.2718    magn:    2.4948    constr:    0.0000
     atom:    7    charge:   13.2803    magn:    2.2517    constr:    0.0000
     atom:    8    charge:   13.2723    magn:    2.4904    constr:    0.0000
     atom:    9    charge:   13.2660    magn:    2.4995    constr:    0.0000
     atom:   10    charge:   13.2658    magn:    2.5035    constr:    0.0000
     atom:   11    charge:   13.2707    magn:    2.3031    constr:    0.0000
     atom:   12    charge:   13.2701    magn:    2.3076    constr:    0.0000
     atom:   13    charge:   13.2749    magn:    2.3026    constr:    0.0000
     atom:   14    charge:   13.2742    magn:    2.2887    constr:    0.0000
     atom:   15    charge:   13.2710    magn:    2.4999    constr:    0.0000
     atom:   16    charge:   13.2727    magn:    2.4955    constr:    0.0000
     atom:   17    charge:   13.2656    magn:    2.5078    constr:    0.0000
     atom:   18    charge:   13.2710    magn:    2.3109    constr:    0.0000
     atom:   19    charge:   13.2656    magn:    2.5078    constr:    0.0000
     atom:   20    charge:   13.2688    magn:    2.3466    constr:    0.0000
     atom:   21    charge:   13.2803    magn:    2.2515    constr:    0.0000
     atom:   22    charge:   13.2723    magn:    2.4902    constr:    0.0000
     atom:   23    charge:   13.2803    magn:    2.2515    constr:    0.0000
     atom:   24    charge:   13.2664    magn:    2.1752    constr:    0.0000
     atom:   25    charge:   13.2651    magn:    2.5103    constr:    0.0000
     atom:   26    charge:   13.2658    magn:    2.5063    constr:    0.0000
     atom:   27    charge:   13.2712    magn:    2.3195    constr:    0.0000
     atom:   28    charge:   13.2707    magn:    2.3031    constr:    0.0000
     atom:   29    charge:   13.2654    magn:    2.4157    constr:    0.0000
     atom:   30    charge:   13.2698    magn:    2.2332    constr:    0.0000
     atom:   31    charge:   13.2851    magn:    2.4626    constr:    0.0000
     atom:   32    charge:   13.2710    magn:    2.5000    constr:    0.0000
     atom:   33    charge:   13.2657    magn:    2.4997    constr:    0.0000
     atom:   34    charge:   13.2710    magn:    2.3109    constr:    0.0000
     atom:   35    charge:   13.2657    magn:    2.4997    constr:    0.0000
     atom:   36    charge:   13.2685    magn:    2.3397    constr:    0.0000
     atom:   37    charge:   13.2746    magn:    2.2900    constr:    0.0000
     atom:   38    charge:   13.2723    magn:    2.4902    constr:    0.0000
     atom:   39    charge:   13.2746    magn:    2.2899    constr:    0.0000
     atom:   40    charge:   13.2718    magn:    2.4947    constr:    0.0000
     atom:   41    charge:   13.2653    magn:    2.5216    constr:    0.0000
     atom:   42    charge:   13.2660    magn:    2.5064    constr:    0.0000
     atom:   43    charge:   13.2701    magn:    2.3076    constr:    0.0000
     atom:   44    charge:   13.2709    magn:    2.3032    constr:    0.0000
     atom:   45    charge:   13.2754    magn:    2.2725    constr:    0.0000
     atom:   46    charge:   13.2698    magn:    2.2334    constr:    0.0000
     atom:   47    charge:   13.2727    magn:    2.4955    constr:    0.0000
     atom:   48    charge:   13.2709    magn:    2.5004    constr:    0.0000
     atom:   49    charge:   13.2657    magn:    2.5079    constr:    0.0000
     atom:   50    charge:   13.2690    magn:    2.3467    constr:    0.0000
     atom:   51    charge:   13.2655    magn:    2.4997    constr:    0.0000
     atom:   52    charge:   13.2708    magn:    2.3109    constr:    0.0000
     atom:   53    charge:   13.2803    magn:    2.2517    constr:    0.0000
     atom:   54    charge:   13.2664    magn:    2.1750    constr:    0.0000
     atom:   55    charge:   13.2745    magn:    2.2897    constr:    0.0000
     atom:   56    charge:   13.2723    magn:    2.4905    constr:    0.0000
     atom:   57    charge:   13.2660    magn:    2.4995    constr:    0.0000
     atom:   58    charge:   13.2658    magn:    2.5035    constr:    0.0000
     atom:   59    charge:   13.2709    magn:    2.3032    constr:    0.0000
     atom:   60    charge:   13.2712    magn:    2.3195    constr:    0.0000
     atom:   61    charge:   13.2749    magn:    2.3026    constr:    0.0000
     atom:   62    charge:   13.2742    magn:    2.2887    constr:    0.0000
     atom:   63    charge:   13.2709    magn:    2.5003    constr:    0.0000
     atom:   64    charge:   13.2851    magn:    2.4624    constr:    0.0000
     atom:   65    charge:    1.3522    magn:   -0.0017    constr:    0.0000
     atom:   66    charge:    0.4367    magn:    0.0079    constr:    0.0000
     atom:   67    charge:    0.4366    magn:    0.0079    constr:    0.0000

     total cpu time spent up to now is    23118.6 secs

     End of self-consistent calculation

 ------ SPIN UP ------------


          k = 0.0000 0.0000 0.0000 (128403 PWs)   bands (ev):

   -94.7745 -94.7703 -94.7613 -94.7600 -94.7586 -94.7564 -94.7546 -94.7520
   -94.7517 -94.7510 -94.7502 -94.7414 -94.7407 -94.7375 -94.7349 -94.7349
   -94.7321 -94.7319 -94.7313 -94.7304 -94.7253 -94.7249 -94.7233 -94.7214
   -94.7206 -94.7201 -94.7196 -94.7193 -94.7191 -94.7118 -94.7095 -94.7036
   -94.6933 -94.6378 -94.6245 -94.6198 -94.6149 -94.6139 -94.6124 -94.6086
   -94.6024 -94.5984 -94.5939 -94.5921 -94.5915 -94.5896 -94.5888 -94.5886
   -94.5880 -94.5869 -94.5842 -94.5829 -94.5806 -94.5787 -94.5784 -94.5722
   -94.5685 -94.5654 -94.5648 -94.5503 -94.5460 -94.5459 -94.5449 -94.5364
   -60.9868 -60.9682 -60.9602 -60.9595 -60.9499 -60.9446 -60.9434 -60.9403
   -60.9396 -60.9352 -60.9351 -60.9341 -60.9337 -60.9325 -60.9279 -60.9259
   -60.9245 -60.9244 -60.9241 -60.9217 -60.9159 -60.9154 -60.9138 -60.9136
   -60.9114 -60.9094 -60.9048 -60.9047 -60.9040 -60.9005 -60.8949 -60.8946
   -60.8909 -60.8885 -60.8827 -60.8798 -60.8793 -60.8788 -60.8623 -60.8602
   -60.8575 -60.8575 -60.8549 -60.8536 -60.8524 -60.8514 -60.8242 -60.8054
   -60.8046 -60.8036 -60.7984 -60.7915 -60.7900 -60.7868 -60.7854 -60.7831
   -60.7824 -60.7815 -60.7806 -60.7759 -60.7738 -60.7731 -60.7724 -60.7718
   -60.7666 -60.7659 -60.7612 -60.7581 -60.7578 -60.7570 -60.7543 -60.7532
   -60.7507 -60.7463 -60.7448 -60.7401 -60.7297 -60.7284 -60.7253 -60.7213
   -60.7212 -60.7200 -60.7200 -60.7168 -60.7127 -60.7125 -60.7121 -60.7121
   -60.7089 -60.7088 -60.7077 -60.7063 -60.7037 -60.7016 -60.7008 -60.6963
   -60.6936 -60.6923 -60.6888 -60.6873 -60.6791 -60.6777 -60.6727 -60.6700
   -60.6698 -60.6696 -60.6652 -60.6612 -60.6592 -60.6585 -60.6560 -60.6533
   -60.6532 -60.6513 -60.6510 -60.6484 -60.6442 -60.6423 -60.6420 -60.6417
   -60.6396 -60.6395 -60.6368 -60.6345 -60.6337 -60.6304 -60.6289 -60.6286
   -60.6276 -60.6219 -60.6210 -60.6191 -60.6156 -60.6153 -60.6125 -60.6083
   -60.6047 -60.6044 -60.6018 -60.6010 -60.6001 -60.5987 -60.5956 -60.5940
   -60.5934 -60.5890 -60.5857 -60.5833 -60.5820 -60.5802 -60.5800 -60.5710
   -60.5668 -60.5640 -60.5610 -60.5586 -60.5569 -60.5566 -60.5555 -60.5555
   -60.5513 -60.5452 -60.5436 -60.5376 -60.5372 -60.5347 -60.5324 -60.5320
   -60.5305 -60.5261 -60.5195 -60.5194 -60.5189 -60.5150 -60.5146 -60.5056
   -60.5048 -60.4964 -60.4936 -60.4932 -60.4931 -60.4928 -60.4922 -60.4898
   -60.4862 -60.4859 -60.4856 -60.4829 -60.4828 -60.4789 -60.4773 -60.4772
   -23.8854 -15.0435 -14.5699 -13.7211 -13.1686 -12.8823 -12.8677 -12.8649
   -12.7936 -12.3933 -12.3556 -11.9569 -11.9035 -11.8752 -11.8648 -11.7575
   -11.4533 -11.4379 -11.3823 -11.2976 -11.2433 -11.2423 -11.2118 -11.2009
   -11.1463 -11.1372 -11.1350 -11.0661 -11.0287 -10.8013 -10.7971 -10.7759
   -10.7585 -10.7340 -10.6976 -10.6853 -10.6717 -10.6709 -10.6669 -10.6602
   -10.6510 -10.6482 -10.6452 -10.6390 -10.6331 -10.6314 -10.6299 -10.6242
   -10.6021 -10.5891 -10.5844 -10.5794 -10.5645 -10.5592 -10.5582 -10.5202
   -10.5128 -10.4653 -10.4529 -10.4470 -10.4274 -10.4008 -10.3828 -10.3787
   -10.3655 -10.3429 -10.0996 -10.0726 -10.0692 -10.0659 -10.0649 -10.0556
    -9.9589  -9.9459  -9.9432  -9.9026  -9.8888  -9.8865  -9.8862  -9.8818
    -9.8812  -9.8657  -9.8646  -9.8575  -9.8501  -9.8435  -9.8431  -9.8338
    -9.8323  -9.8305  -9.8281  -9.8058  -9.8055  -9.8045  -9.7928  -9.7818
    -9.7801  -9.7744  -9.7741  -9.7516  -9.7501  -9.7497  -9.7434  -9.7339
    -9.7195  -9.7101  -9.7041  -9.6850  -9.6845  -9.6811  -9.6611  -9.6568
    -9.6146  -9.5403  -9.5284  -9.5132  -9.5061  -9.4954  -9.4883  -9.4760
    -9.4228  -9.3644  -9.3132  -9.3127  -9.3116  -9.3037  -9.2953  -9.2950
    -9.2896  -9.2711  -9.2659  -9.2459  -9.2262  -9.2227  -9.2226  -9.2169
    -9.2090  -9.1805  -9.1777  -9.1753  -9.1698  -9.1683  -9.1668  -9.1605
    -9.1539  -9.1254  -9.1001  -9.0915  -9.0411  -9.0367  -9.0280  -9.0036
    -9.0028  -9.0026  -9.0000  -8.9922  -8.9623  -8.9519  -8.9433  -8.9107
    -8.8995  -8.8882  -8.8710  -8.8694  -8.8635  -8.8631  -8.8300  -8.8280
    -8.8160  -8.7923  -8.7885  -8.7767  -8.7764  -8.7696  -8.7623  -8.7456
    -8.7450  -8.7445  -8.7397  -8.7248  -8.7222  -8.7221  -8.7093  -8.7056
    -8.6963  -8.6854  -8.6305  -8.5946  -8.5905  -8.5641  -8.4956  -8.4867
    -8.3634  -8.3360  -8.2374  -8.2043  -8.2028  -8.1938  -8.1901  -8.1886
    -8.1879  -8.1767  -8.1728  -8.1713  -8.1511  -8.1283  -8.1107  -8.1072
    -8.1006  -8.0824  -8.0818  -8.0635  -8.0507  -8.0420  -8.0286  -8.0158
    -8.0147  -7.9997  -7.9978  -7.9892  -7.9860  -7.9832  -7.9537  -7.9472
    -7.9307  -7.9211  -7.9089  -7.8928  -7.8883  -7.8837  -7.8826  -7.8704
    -7.8657  -7.8605  -7.8548  -7.8505  -7.8491  -7.8430  -7.8383  -7.8225
    -7.8102  -7.8039  -7.7997  -7.7940  -7.7887  -7.7872  -7.7772  -7.7728
    -7.7718  -7.7685  -7.7658  -7.7655  -7.7629  -7.7625  -7.7495  -7.7487
    -7.7425  -7.7344  -7.7320  -7.7298  -7.7272  -7.7238  -7.7203  -7.7149
    -7.7071  -7.6985  -7.6973  -7.6935  -7.6869  -7.6834  -7.6615  -7.6608
    -7.6586  -7.6570  -7.6516  -7.6457  -7.6434  -7.6387  -7.6378  -7.6309
    -7.6255  -7.6009  -7.6005  -7.6004  -7.5813  -7.5583  -7.5447  -7.5337
    -7.5274  -7.5271  -7.5036  -7.4962  -7.4954  -7.4594  -7.4397  -7.3937
    -7.3848  -7.3782  -7.3741  -7.3710  -7.3694  -7.3560  -7.3512  -7.3479
    -7.3448  -7.3440  -7.3268  -7.3201  -7.3197  -7.3112  -7.3079  -7.3059
    -7.2933  -7.2892  -7.2804  -7.1939  -7.1915  -7.1855  -7.0443  -6.8933
    -6.8807  -6.8578  -6.8321  -6.8115  -6.7919  -6.7638  -6.7636  -6.7538
    -6.6982  -6.6960  -6.6638  -6.6323  -6.6260  -6.6247  -6.6132  -6.5671
    -6.5431  -6.5413  -6.5221  -6.5060  -6.4086  -6.4027  -6.3832  -6.3079
    -6.3053  -6.2327  -6.2249  -6.2103  -6.0349  -5.9395  -5.6037  -5.5872
    -5.5771  -5.5746  -5.4680  -5.3920  -5.1808  -4.7512  -4.6850  -4.6638
    -4.6620  -4.6497  -4.6113

          k = 0.0000 0.2652 0.0000 (128375 PWs)   bands (ev):

   -94.7733 -94.7690 -94.7645 -94.7602 -94.7598 -94.7564 -94.7545 -94.7530
   -94.7521 -94.7493 -94.7466 -94.7444 -94.7401 -94.7376 -94.7363 -94.7349
   -94.7332 -94.7305 -94.7282 -94.7281 -94.7273 -94.7250 -94.7233 -94.7227
   -94.7220 -94.7213 -94.7203 -94.7179 -94.7164 -94.7114 -94.7104 -94.7040
   -94.6933 -94.6367 -94.6271 -94.6187 -94.6172 -94.6139 -94.6100 -94.6079
   -94.6009 -94.5973 -94.5959 -94.5941 -94.5918 -94.5900 -94.5893 -94.5885
   -94.5878 -94.5868 -94.5840 -94.5815 -94.5801 -94.5793 -94.5772 -94.5726
   -94.5698 -94.5661 -94.5634 -94.5505 -94.5472 -94.5456 -94.5430 -94.5372
   -60.9852 -60.9691 -60.9614 -60.9569 -60.9511 -60.9455 -60.9442 -60.9427
   -60.9396 -60.9367 -60.9357 -60.9344 -60.9309 -60.9293 -60.9284 -60.9264
   -60.9242 -60.9234 -60.9220 -60.9191 -60.9185 -60.9179 -60.9137 -60.9115
   -60.9099 -60.9091 -60.9074 -60.9049 -60.9011 -60.8991 -60.8951 -60.8909
   -60.8890 -60.8830 -60.8812 -60.8773 -60.8745 -60.8699 -60.8670 -60.8604
   -60.8599 -60.8555 -60.8538 -60.8489 -60.8459 -60.8401 -60.8249 -60.8195
   -60.8123 -60.8049 -60.8028 -60.7992 -60.7974 -60.7959 -60.7943 -60.7871
   -60.7843 -60.7807 -60.7787 -60.7753 -60.7749 -60.7730 -60.7712 -60.7701
   -60.7690 -60.7663 -60.7656 -60.7636 -60.7620 -60.7579 -60.7546 -60.7531
   -60.7504 -60.7500 -60.7469 -60.7448 -60.7434 -60.7374 -60.7359 -60.7311
   -60.7293 -60.7248 -60.7213 -60.7203 -60.7183 -60.7177 -60.7121 -60.7083
   -60.7045 -60.7022 -60.6997 -60.6974 -60.6957 -60.6939 -60.6920 -60.6902
   -60.6888 -60.6862 -60.6841 -60.6808 -60.6801 -60.6771 -60.6754 -60.6731
   -60.6679 -60.6668 -60.6660 -60.6621 -60.6609 -60.6600 -60.6581 -60.6560
   -60.6543 -60.6536 -60.6521 -60.6504 -60.6473 -60.6460 -60.6439 -60.6425
   -60.6408 -60.6372 -60.6349 -60.6333 -60.6287 -60.6269 -60.6246 -60.6233
   -60.6206 -60.6202 -60.6190 -60.6133 -60.6120 -60.6106 -60.6095 -60.6067
   -60.6063 -60.6027 -60.6014 -60.5983 -60.5977 -60.5963 -60.5932 -60.5906
   -60.5878 -60.5866 -60.5841 -60.5837 -60.5804 -60.5784 -60.5764 -60.5701
   -60.5664 -60.5655 -60.5634 -60.5598 -60.5588 -60.5568 -60.5557 -60.5535
   -60.5500 -60.5475 -60.5432 -60.5378 -60.5359 -60.5343 -60.5314 -60.5303
   -60.5231 -60.5210 -60.5200 -60.5185 -60.5164 -60.5140 -60.5130 -60.5066
   -60.5057 -60.4997 -60.4984 -60.4972 -60.4959 -60.4951 -60.4949 -60.4930
   -60.4916 -60.4888 -60.4885 -60.4852 -60.4840 -60.4828 -60.4801 -60.4782
   -23.8854 -15.0442 -14.4564 -13.7456 -13.4916 -13.0939 -12.9690 -12.7264
   -12.5426 -12.3625 -12.1497 -11.9724 -11.9179 -11.7736 -11.6829 -11.6417
   -11.5463 -11.4927 -11.3628 -11.2987 -11.2700 -11.1984 -11.1769 -11.1534
   -11.1419 -11.1162 -11.0922 -11.0674 -11.0582 -10.9437 -10.8652 -10.8225
   -10.8106 -10.8031 -10.7791 -10.7761 -10.7586 -10.7549 -10.7429 -10.7402
   -10.7078 -10.7047 -10.6838 -10.6708 -10.6604 -10.6456 -10.6340 -10.6260
   -10.6033 -10.5890 -10.5785 -10.5659 -10.5287 -10.5183 -10.5060 -10.4915
   -10.4829 -10.4798 -10.4714 -10.4362 -10.4220 -10.3483 -10.3170 -10.3063
   -10.3021 -10.2671 -10.2598 -10.1726 -10.1313 -10.1085 -10.0693 -10.0343
   -10.0131 -10.0061  -9.9674  -9.9171  -9.9059  -9.9034  -9.8941  -9.8736
    -9.8684  -9.8535  -9.8486  -9.8463  -9.8431  -9.8400  -9.8306  -9.8220
    -9.8155  -9.8070  -9.7993  -9.7889  -9.7819  -9.7740  -9.7655  -9.7583
    -9.7512  -9.7478  -9.7447  -9.7406  -9.7365  -9.7284  -9.7229  -9.7031
    -9.6761  -9.6669  -9.6471  -9.6443  -9.6366  -9.6168  -9.6121  -9.6045
    -9.5984  -9.5839  -9.5744  -9.5517  -9.5003  -9.4783  -9.4648  -9.4485
    -9.4083  -9.3993  -9.3876  -9.3828  -9.3657  -9.3083  -9.3030  -9.2944
    -9.2858  -9.2772  -9.2761  -9.2623  -9.2558  -9.2492  -9.2451  -9.2395
    -9.2236  -9.2155  -9.1987  -9.1934  -9.1879  -9.1575  -9.1488  -9.1402
    -9.1380  -9.1013  -9.0899  -9.0613  -9.0522  -9.0465  -9.0299  -9.0204
    -9.0111  -9.0028  -8.9993  -8.9846  -8.9806  -8.9774  -8.9647  -8.9511
    -8.9485  -8.9464  -8.9368  -8.9300  -8.9152  -8.8916  -8.8751  -8.8460
    -8.8216  -8.8188  -8.7984  -8.7925  -8.7812  -8.7648  -8.7563  -8.7425
    -8.7380  -8.7194  -8.7012  -8.6966  -8.6776  -8.6423  -8.6311  -8.6164
    -8.5995  -8.5718  -8.5355  -8.5260  -8.5167  -8.4928  -8.4257  -8.3513
    -8.3284  -8.3227  -8.2862  -8.2701  -8.2614  -8.2366  -8.2206  -8.2121
    -8.1923  -8.1850  -8.1778  -8.1610  -8.1565  -8.1527  -8.1362  -8.1327
    -8.1213  -8.1080  -8.0970  -8.0784  -8.0708  -8.0465  -8.0269  -8.0210
    -8.0149  -7.9969  -7.9862  -7.9812  -7.9703  -7.9682  -7.9589  -7.9547
    -7.9503  -7.9410  -7.9332  -7.9250  -7.9168  -7.9043  -7.8913  -7.8734
    -7.8690  -7.8597  -7.8508  -7.8430  -7.8386  -7.8312  -7.8293  -7.8232
    -7.8142  -7.8094  -7.8058  -7.8013  -7.7928  -7.7838  -7.7832  -7.7745
    -7.7704  -7.7605  -7.7558  -7.7498  -7.7454  -7.7309  -7.7261  -7.7244
    -7.7219  -7.7149  -7.7131  -7.7109  -7.7066  -7.7030  -7.6957  -7.6877
    -7.6812  -7.6784  -7.6700  -7.6679  -7.6610  -7.6539  -7.6496  -7.6457
    -7.6402  -7.6365  -7.6297  -7.6197  -7.6172  -7.6076  -7.5928  -7.5894
    -7.5857  -7.5640  -7.5608  -7.5441  -7.5250  -7.5105  -7.5078  -7.4948
    -7.4870  -7.4845  -7.4802  -7.4661  -7.4573  -7.4534  -7.4511  -7.4486
    -7.4278  -7.4115  -7.3868  -7.3810  -7.3713  -7.3678  -7.3623  -7.3557
    -7.3397  -7.3376  -7.3243  -7.3205  -7.3140  -7.3049  -7.2832  -7.2424
    -7.2225  -7.1864  -7.1722  -7.1496  -7.0980  -6.9535  -6.9370  -6.9314
    -6.9123  -6.9016  -6.8869  -6.8729  -6.8583  -6.8479  -6.8090  -6.7858
    -6.7753  -6.7608  -6.7487  -6.7433  -6.7291  -6.7193  -6.7024  -6.6913
    -6.6581  -6.6518  -6.6352  -6.5914  -6.5686  -6.5431  -6.5384  -6.4755
    -6.3860  -6.1620  -6.1248  -5.9282  -5.9218  -5.8900  -5.7497  -5.7057
    -5.5677  -5.4431  -5.4328  -5.3229  -5.2616  -5.2077  -5.1287  -5.0633
    -4.9716  -4.7973  -4.7555

          k = 0.0000-0.5303 0.0000 (128388 PWs)   bands (ev):

   -94.7713 -94.7679 -94.7653 -94.7651 -94.7599 -94.7553 -94.7549 -94.7521
   -94.7518 -94.7493 -94.7465 -94.7442 -94.7398 -94.7386 -94.7378 -94.7336
   -94.7325 -94.7306 -94.7272 -94.7268 -94.7257 -94.7256 -94.7243 -94.7233
   -94.7231 -94.7230 -94.7199 -94.7181 -94.7130 -94.7128 -94.7108 -94.7045
   -94.6933 -94.6347 -94.6302 -94.6180 -94.6172 -94.6136 -94.6125 -94.6019
   -94.6013 -94.5991 -94.5964 -94.5937 -94.5930 -94.5911 -94.5897 -94.5884
   -94.5870 -94.5864 -94.5855 -94.5805 -94.5789 -94.5783 -94.5770 -94.5735
   -94.5707 -94.5664 -94.5626 -94.5506 -94.5478 -94.5455 -94.5408 -94.5389
   -60.9830 -60.9709 -60.9611 -60.9530 -60.9520 -60.9510 -60.9440 -60.9430
   -60.9394 -60.9366 -60.9349 -60.9346 -60.9321 -60.9296 -60.9261 -60.9248
   -60.9232 -60.9228 -60.9222 -60.9191 -60.9177 -60.9164 -60.9148 -60.9122
   -60.9104 -60.9082 -60.9066 -60.9063 -60.8985 -60.8968 -60.8963 -60.8920
   -60.8807 -60.8752 -60.8747 -60.8739 -60.8696 -60.8687 -60.8669 -60.8663
   -60.8562 -60.8538 -60.8438 -60.8398 -60.8376 -60.8343 -60.8285 -60.8280
   -60.8245 -60.8179 -60.8116 -60.8106 -60.8082 -60.8030 -60.7993 -60.7967
   -60.7921 -60.7845 -60.7780 -60.7765 -60.7750 -60.7712 -60.7711 -60.7695
   -60.7653 -60.7646 -60.7637 -60.7616 -60.7592 -60.7546 -60.7537 -60.7530
   -60.7486 -60.7477 -60.7469 -60.7450 -60.7432 -60.7418 -60.7371 -60.7344
   -60.7325 -60.7324 -60.7297 -60.7280 -60.7248 -60.7242 -60.7215 -60.7202
   -60.7169 -60.7116 -60.7006 -60.6977 -60.6933 -60.6911 -60.6910 -60.6869
   -60.6835 -60.6835 -60.6820 -60.6768 -60.6747 -60.6708 -60.6686 -60.6647
   -60.6629 -60.6612 -60.6589 -60.6572 -60.6557 -60.6548 -60.6541 -60.6532
   -60.6528 -60.6520 -60.6513 -60.6471 -60.6455 -60.6440 -60.6435 -60.6399
   -60.6390 -60.6366 -60.6362 -60.6339 -60.6327 -60.6319 -60.6287 -60.6274
   -60.6236 -60.6186 -60.6151 -60.6144 -60.6130 -60.6123 -60.6073 -60.6061
   -60.6052 -60.6029 -60.6009 -60.5945 -60.5921 -60.5916 -60.5882 -60.5866
   -60.5859 -60.5842 -60.5805 -60.5798 -60.5775 -60.5773 -60.5747 -60.5744
   -60.5704 -60.5687 -60.5669 -60.5612 -60.5576 -60.5573 -60.5550 -60.5505
   -60.5475 -60.5439 -60.5418 -60.5364 -60.5355 -60.5275 -60.5227 -60.5202
   -60.5201 -60.5156 -60.5151 -60.5150 -60.5139 -60.5120 -60.5108 -60.5102
   -60.5102 -60.5076 -60.5072 -60.5060 -60.5019 -60.5006 -60.5000 -60.4987
   -60.4965 -60.4959 -60.4905 -60.4865 -60.4860 -60.4841 -60.4802 -60.4792
   -23.8854 -15.0449 -14.1663 -14.0867 -13.6096 -12.9704 -12.9529 -12.8850
   -12.6875 -12.0931 -12.0670 -11.9215 -11.8578 -11.6000 -11.5625 -11.5396
   -11.4558 -11.4555 -11.3990 -11.3893 -11.2903 -11.2724 -11.2484 -11.1378
   -11.1187 -11.0780 -11.0250 -11.0102 -11.0032 -11.0002 -10.9915 -10.9638
   -10.9636 -10.9570 -10.9402 -10.9293 -10.8606 -10.8551 -10.7848 -10.7846
   -10.7236 -10.6897 -10.6417 -10.6409 -10.6388 -10.6335 -10.5717 -10.5557
   -10.5529 -10.5478 -10.5350 -10.5302 -10.5288 -10.5121 -10.5066 -10.5036
   -10.4752 -10.4521 -10.3942 -10.3803 -10.3704 -10.3684 -10.3556 -10.3543
   -10.3067 -10.2983 -10.2668 -10.2448 -10.1965 -10.1880 -10.1476 -10.1467
   -10.0866 -10.0327  -9.9513  -9.9332  -9.8927  -9.8927  -9.8792  -9.8697
    -9.8583  -9.8575  -9.8449  -9.8408  -9.8295  -9.8192  -9.8183  -9.8150
    -9.7992  -9.7950  -9.7926  -9.7865  -9.7830  -9.7749  -9.7704  -9.7629
    -9.7286  -9.7280  -9.6821  -9.6788  -9.6562  -9.6521  -9.6388  -9.6364
    -9.6173  -9.6079  -9.6036  -9.6011  -9.5959  -9.5878  -9.5810  -9.5799
    -9.5756  -9.5724  -9.5660  -9.5620  -9.5306  -9.5214  -9.5195  -9.5074
    -9.4896  -9.4658  -9.3821  -9.3582  -9.3294  -9.3105  -9.2746  -9.2735
    -9.2660  -9.2641  -9.2582  -9.2553  -9.2446  -9.2445  -9.2413  -9.2359
    -9.2262  -9.2190  -9.2146  -9.2073  -9.2069  -9.2010  -9.1792  -9.1787
    -9.1685  -9.1635  -9.1479  -9.1428  -9.1093  -9.1044  -9.0991  -9.0930
    -9.0750  -9.0741  -9.0422  -9.0405  -9.0362  -9.0244  -9.0083  -8.9990
    -8.9704  -8.9601  -8.9461  -8.9259  -8.9099  -8.9058  -8.8922  -8.7977
    -8.7817  -8.7774  -8.7576  -8.7548  -8.7531  -8.7449  -8.7265  -8.7245
    -8.7040  -8.6981  -8.6652  -8.6577  -8.5909  -8.5189  -8.4610  -8.4500
    -8.4458  -8.4399  -8.4133  -8.4086  -8.4036  -8.3994  -8.3721  -8.3406
    -8.3074  -8.3029  -8.2980  -8.2770  -8.2732  -8.2730  -8.2683  -8.2611
    -8.2500  -8.2472  -8.2358  -8.2308  -8.2228  -8.2196  -8.1886  -8.1359
    -8.1285  -8.1190  -8.1180  -8.0860  -8.0847  -8.0733  -8.0660  -8.0616
    -8.0427  -8.0267  -7.9947  -7.9769  -7.9675  -7.9643  -7.9570  -7.9560
    -7.9485  -7.9423  -7.9385  -7.9340  -7.9316  -7.9259  -7.9224  -7.9199
    -7.9089  -7.9064  -7.9041  -7.8974  -7.8898  -7.8772  -7.8399  -7.8355
    -7.8233  -7.8101  -7.7820  -7.7819  -7.7814  -7.7732  -7.7702  -7.7598
    -7.7584  -7.7491  -7.7457  -7.7419  -7.7357  -7.7344  -7.7315  -7.7306
    -7.7235  -7.7187  -7.7161  -7.6992  -7.6937  -7.6829  -7.6752  -7.6625
    -7.6609  -7.6557  -7.6477  -7.6384  -7.6127  -7.6090  -7.5936  -7.5931
    -7.5878  -7.5851  -7.5688  -7.5664  -7.5515  -7.5456  -7.5268  -7.5081
    -7.5032  -7.5029  -7.5012  -7.4996  -7.4967  -7.4903  -7.4885  -7.4826
    -7.4796  -7.4767  -7.4683  -7.4670  -7.4644  -7.4591  -7.4559  -7.4514
    -7.4483  -7.4401  -7.4006  -7.3988  -7.3868  -7.3577  -7.3194  -7.3174
    -7.2643  -7.2636  -7.2424  -7.2118  -7.2072  -7.1924  -7.1908  -7.1337
    -7.0832  -7.0749  -7.0611  -7.0540  -7.0494  -7.0376  -6.9903  -6.9874
    -6.9807  -6.9800  -6.9601  -6.9381  -6.9207  -6.9159  -6.9098  -6.8943
    -6.8397  -6.8268  -6.8124  -6.7903  -6.7705  -6.7663  -6.7428  -6.7251
    -6.7065  -6.6992  -6.6853  -6.6770  -6.6728  -6.6572  -6.6563  -6.6378
    -6.5354  -6.3916  -6.3054  -6.2712  -6.1125  -5.9759  -5.6600  -5.6411
    -5.6063  -5.6056  -5.4188  -5.4146  -5.0176  -4.9939  -4.9520  -4.9151
    -4.8705  -4.8237  -4.8066

          k = 0.2500-0.0884 0.0000 (128371 PWs)   bands (ev):

   -94.7733 -94.7690 -94.7645 -94.7602 -94.7598 -94.7564 -94.7545 -94.7530
   -94.7521 -94.7493 -94.7466 -94.7444 -94.7400 -94.7376 -94.7363 -94.7349
   -94.7332 -94.7305 -94.7282 -94.7281 -94.7273 -94.7250 -94.7233 -94.7227
   -94.7220 -94.7213 -94.7203 -94.7179 -94.7164 -94.7114 -94.7104 -94.7040
   -94.6933 -94.6367 -94.6271 -94.6187 -94.6172 -94.6139 -94.6100 -94.6079
   -94.6009 -94.5973 -94.5959 -94.5941 -94.5918 -94.5900 -94.5893 -94.5885
   -94.5878 -94.5868 -94.5840 -94.5815 -94.5801 -94.5793 -94.5772 -94.5726
   -94.5698 -94.5661 -94.5634 -94.5505 -94.5472 -94.5456 -94.5430 -94.5372
   -60.9852 -60.9691 -60.9614 -60.9569 -60.9511 -60.9455 -60.9442 -60.9427
   -60.9396 -60.9367 -60.9357 -60.9344 -60.9309 -60.9293 -60.9284 -60.9264
   -60.9242 -60.9234 -60.9220 -60.9191 -60.9185 -60.9179 -60.9137 -60.9115
   -60.9099 -60.9091 -60.9074 -60.9049 -60.9011 -60.8991 -60.8951 -60.8909
   -60.8890 -60.8830 -60.8812 -60.8773 -60.8745 -60.8699 -60.8670 -60.8604
   -60.8599 -60.8555 -60.8538 -60.8489 -60.8459 -60.8401 -60.8249 -60.8195
   -60.8123 -60.8049 -60.8028 -60.7992 -60.7973 -60.7959 -60.7943 -60.7871
   -60.7843 -60.7807 -60.7787 -60.7753 -60.7749 -60.7730 -60.7712 -60.7701
   -60.7690 -60.7663 -60.7656 -60.7636 -60.7620 -60.7579 -60.7546 -60.7531
   -60.7504 -60.7500 -60.7469 -60.7448 -60.7434 -60.7374 -60.7359 -60.7311
   -60.7293 -60.7248 -60.7213 -60.7203 -60.7183 -60.7177 -60.7121 -60.7083
   -60.7045 -60.7022 -60.6997 -60.6974 -60.6957 -60.6939 -60.6920 -60.6902
   -60.6888 -60.6862 -60.6841 -60.6808 -60.6801 -60.6771 -60.6754 -60.6731
   -60.6679 -60.6668 -60.6660 -60.6621 -60.6609 -60.6600 -60.6581 -60.6560
   -60.6543 -60.6536 -60.6521 -60.6504 -60.6473 -60.6460 -60.6439 -60.6425
   -60.6408 -60.6372 -60.6349 -60.6333 -60.6287 -60.6269 -60.6246 -60.6232
   -60.6206 -60.6202 -60.6190 -60.6133 -60.6120 -60.6106 -60.6095 -60.6067
   -60.6063 -60.6027 -60.6014 -60.5983 -60.5977 -60.5963 -60.5932 -60.5906
   -60.5878 -60.5866 -60.5841 -60.5837 -60.5804 -60.5784 -60.5764 -60.5701
   -60.5664 -60.5655 -60.5634 -60.5598 -60.5588 -60.5568 -60.5557 -60.5535
   -60.5500 -60.5475 -60.5432 -60.5378 -60.5359 -60.5343 -60.5314 -60.5303
   -60.5231 -60.5210 -60.5200 -60.5185 -60.5164 -60.5140 -60.5130 -60.5066
   -60.5057 -60.4997 -60.4984 -60.4972 -60.4959 -60.4951 -60.4949 -60.4930
   -60.4916 -60.4888 -60.4885 -60.4852 -60.4840 -60.4828 -60.4801 -60.4782
   -23.8854 -15.0442 -14.4564 -13.7456 -13.4916 -13.0939 -12.9690 -12.7264
   -12.5426 -12.3626 -12.1497 -11.9723 -11.9179 -11.7736 -11.6829 -11.6416
   -11.5463 -11.4928 -11.3628 -11.2987 -11.2700 -11.1984 -11.1769 -11.1534
   -11.1419 -11.1162 -11.0922 -11.0674 -11.0582 -10.9437 -10.8652 -10.8225
   -10.8106 -10.8031 -10.7791 -10.7761 -10.7587 -10.7549 -10.7429 -10.7402
   -10.7078 -10.7047 -10.6838 -10.6707 -10.6603 -10.6456 -10.6340 -10.6260
   -10.6033 -10.5890 -10.5785 -10.5659 -10.5287 -10.5184 -10.5060 -10.4915
   -10.4829 -10.4798 -10.4713 -10.4362 -10.4220 -10.3483 -10.3170 -10.3063
   -10.3021 -10.2671 -10.2598 -10.1726 -10.1313 -10.1085 -10.0693 -10.0344
   -10.0131 -10.0061  -9.9674  -9.9171  -9.9059  -9.9034  -9.8941  -9.8737
    -9.8684  -9.8535  -9.8486  -9.8463  -9.8431  -9.8399  -9.8306  -9.8220
    -9.8155  -9.8070  -9.7994  -9.7889  -9.7820  -9.7740  -9.7655  -9.7583
    -9.7512  -9.7478  -9.7447  -9.7406  -9.7365  -9.7284  -9.7229  -9.7031
    -9.6761  -9.6669  -9.6471  -9.6443  -9.6366  -9.6168  -9.6121  -9.6045
    -9.5984  -9.5839  -9.5743  -9.5517  -9.5003  -9.4784  -9.4648  -9.4485
    -9.4084  -9.3993  -9.3876  -9.3828  -9.3657  -9.3083  -9.3030  -9.2945
    -9.2858  -9.2772  -9.2761  -9.2623  -9.2558  -9.2491  -9.2450  -9.2395
    -9.2236  -9.2155  -9.1987  -9.1934  -9.1879  -9.1575  -9.1489  -9.1402
    -9.1380  -9.1013  -9.0899  -9.0613  -9.0522  -9.0465  -9.0299  -9.0204
    -9.0111  -9.0028  -8.9993  -8.9846  -8.9806  -8.9774  -8.9647  -8.9511
    -8.9485  -8.9464  -8.9368  -8.9300  -8.9152  -8.8916  -8.8751  -8.8460
    -8.8216  -8.8188  -8.7983  -8.7926  -8.7812  -8.7648  -8.7563  -8.7425
    -8.7380  -8.7194  -8.7013  -8.6965  -8.6776  -8.6423  -8.6311  -8.6164
    -8.5995  -8.5718  -8.5355  -8.5260  -8.5167  -8.4928  -8.4257  -8.3513
    -8.3284  -8.3227  -8.2862  -8.2701  -8.2614  -8.2366  -8.2206  -8.2121
    -8.1924  -8.1850  -8.1778  -8.1610  -8.1565  -8.1527  -8.1362  -8.1327
    -8.1213  -8.1080  -8.0970  -8.0783  -8.0708  -8.0464  -8.0269  -8.0210
    -8.0148  -7.9969  -7.9862  -7.9812  -7.9703  -7.9682  -7.9589  -7.9547
    -7.9503  -7.9410  -7.9332  -7.9250  -7.9168  -7.9043  -7.8913  -7.8734
    -7.8690  -7.8597  -7.8508  -7.8430  -7.8386  -7.8312  -7.8293  -7.8232
    -7.8142  -7.8095  -7.8058  -7.8012  -7.7928  -7.7838  -7.7832  -7.7746
    -7.7703  -7.7605  -7.7558  -7.7498  -7.7454  -7.7309  -7.7261  -7.7244
    -7.7219  -7.7149  -7.7131  -7.7108  -7.7066  -7.7031  -7.6957  -7.6877
    -7.6812  -7.6784  -7.6700  -7.6679  -7.6610  -7.6539  -7.6496  -7.6457
    -7.6402  -7.6365  -7.6297  -7.6197  -7.6172  -7.6076  -7.5929  -7.5894
    -7.5857  -7.5640  -7.5608  -7.5441  -7.5250  -7.5105  -7.5078  -7.4948
    -7.4870  -7.4845  -7.4802  -7.4661  -7.4573  -7.4534  -7.4511  -7.4486
    -7.4278  -7.4115  -7.3868  -7.3810  -7.3712  -7.3678  -7.3623  -7.3557
    -7.3397  -7.3376  -7.3243  -7.3205  -7.3140  -7.3049  -7.2832  -7.2424
    -7.2225  -7.1864  -7.1721  -7.1496  -7.0980  -6.9535  -6.9370  -6.9314
    -6.9123  -6.9016  -6.8869  -6.8729  -6.8583  -6.8479  -6.8090  -6.7858
    -6.7753  -6.7608  -6.7487  -6.7433  -6.7291  -6.7193  -6.7024  -6.6913
    -6.6581  -6.6518  -6.6352  -6.5914  -6.5686  -6.5431  -6.5384  -6.4755
    -6.3860  -6.1621  -6.1248  -5.9282  -5.9219  -5.8900  -5.7497  -5.7057
    -5.5676  -5.4431  -5.4328  -5.3229  -5.2616  -5.2077  -5.1287  -5.0633
    -4.9716  -4.7972  -4.7552

          k = 0.2500 0.1768 0.0000 (128340 PWs)   bands (ev):

   -94.7726 -94.7681 -94.7632 -94.7630 -94.7591 -94.7564 -94.7551 -94.7545
   -94.7522 -94.7520 -94.7462 -94.7440 -94.7367 -94.7357 -94.7350 -94.7349
   -94.7335 -94.7315 -94.7304 -94.7269 -94.7266 -94.7260 -94.7245 -94.7233
   -94.7231 -94.7228 -94.7184 -94.7160 -94.7153 -94.7118 -94.7111 -94.7045
   -94.6933 -94.6359 -94.6260 -94.6223 -94.6183 -94.6110 -94.6109 -94.6083
   -94.5997 -94.5955 -94.5944 -94.5933 -94.5921 -94.5917 -94.5897 -94.5883
   -94.5869 -94.5865 -94.5855 -94.5842 -94.5802 -94.5788 -94.5765 -94.5737
   -94.5679 -94.5675 -94.5626 -94.5499 -94.5481 -94.5439 -94.5438 -94.5378
   -60.9843 -60.9693 -60.9604 -60.9566 -60.9536 -60.9440 -60.9423 -60.9417
   -60.9403 -60.9372 -60.9356 -60.9352 -60.9326 -60.9299 -60.9273 -60.9258
   -60.9249 -60.9235 -60.9222 -60.9179 -60.9174 -60.9159 -60.9156 -60.9134
   -60.9115 -60.9099 -60.9072 -60.9017 -60.9014 -60.8968 -60.8960 -60.8908
   -60.8833 -60.8783 -60.8762 -60.8718 -60.8704 -60.8694 -60.8575 -60.8551
   -60.8527 -60.8518 -60.8477 -60.8475 -60.8454 -60.8446 -60.8273 -60.8154
   -60.8145 -60.8108 -60.8103 -60.8074 -60.8068 -60.8028 -60.7998 -60.7966
   -60.7897 -60.7889 -60.7887 -60.7858 -60.7845 -60.7734 -60.7721 -60.7698
   -60.7696 -60.7663 -60.7649 -60.7636 -60.7625 -60.7623 -60.7568 -60.7552
   -60.7524 -60.7524 -60.7479 -60.7468 -60.7389 -60.7374 -60.7356 -60.7313
   -60.7298 -60.7276 -60.7212 -60.7181 -60.7168 -60.7151 -60.7113 -60.7105
   -60.7092 -60.7071 -60.7006 -60.6986 -60.6962 -60.6941 -60.6897 -60.6870
   -60.6837 -60.6808 -60.6800 -60.6764 -60.6737 -60.6731 -60.6727 -60.6717
   -60.6706 -60.6701 -60.6678 -60.6676 -60.6650 -60.6620 -60.6608 -60.6566
   -60.6552 -60.6539 -60.6495 -60.6470 -60.6463 -60.6422 -60.6405 -60.6390
   -60.6379 -60.6364 -60.6323 -60.6318 -60.6303 -60.6265 -60.6257 -60.6240
   -60.6214 -60.6168 -60.6154 -60.6104 -60.6092 -60.6087 -60.6051 -60.6041
   -60.6010 -60.6001 -60.5993 -60.5928 -60.5926 -60.5906 -60.5899 -60.5894
   -60.5870 -60.5867 -60.5843 -60.5831 -60.5829 -60.5785 -60.5763 -60.5716
   -60.5710 -60.5706 -60.5629 -60.5577 -60.5565 -60.5556 -60.5517 -60.5498
   -60.5445 -60.5401 -60.5395 -60.5374 -60.5371 -60.5323 -60.5296 -60.5283
   -60.5263 -60.5202 -60.5192 -60.5180 -60.5170 -60.5144 -60.5138 -60.5084
   -60.5058 -60.5019 -60.5010 -60.4992 -60.4981 -60.4965 -60.4964 -60.4958
   -60.4937 -60.4935 -60.4907 -60.4905 -60.4887 -60.4854 -60.4839 -60.4811
   -23.8854 -15.0451 -14.4174 -13.7176 -13.2481 -13.2347 -13.2054 -12.9778
   -12.3039 -12.2776 -12.1613 -12.1178 -12.0216 -11.7298 -11.6415 -11.5780
   -11.4882 -11.3418 -11.2627 -11.2043 -11.2023 -11.2013 -11.1576 -11.1224
   -11.0904 -11.0796 -11.0786 -11.0578 -10.9787 -10.9759 -10.9445 -10.9270
   -10.8522 -10.8392 -10.8236 -10.8049 -10.7641 -10.7513 -10.7362 -10.7198
   -10.7035 -10.6904 -10.6844 -10.6838 -10.6756 -10.6750 -10.6730 -10.6717
   -10.6561 -10.6242 -10.6146 -10.5939 -10.5821 -10.5581 -10.5446 -10.5078
   -10.4970 -10.4804 -10.4488 -10.4242 -10.3357 -10.3276 -10.2928 -10.2668
   -10.2240 -10.2134 -10.2117 -10.2016 -10.1933 -10.1708 -10.1458 -10.0444
   -10.0269  -9.9973  -9.9760  -9.9348  -9.9197  -9.9094  -9.9082  -9.9048
    -9.9004  -9.8936  -9.8920  -9.8916  -9.8844  -9.8718  -9.8706  -9.8687
    -9.8622  -9.8570  -9.8138  -9.8111  -9.7668  -9.7654  -9.7564  -9.7386
    -9.7310  -9.7008  -9.6949  -9.6916  -9.6884  -9.6809  -9.6767  -9.6612
    -9.6603  -9.6457  -9.6353  -9.6137  -9.5933  -9.5856  -9.5518  -9.5431
    -9.5329  -9.5267  -9.5135  -9.5004  -9.4872  -9.4851  -9.4719  -9.4655
    -9.4617  -9.4590  -9.4551  -9.4524  -9.4323  -9.3736  -9.3661  -9.3594
    -9.3536  -9.2938  -9.2865  -9.2795  -9.2789  -9.2643  -9.2633  -9.2513
    -9.2351  -9.2173  -9.1932  -9.1893  -9.1859  -9.1851  -9.1590  -9.1545
    -9.1287  -9.1268  -9.1224  -9.1119  -9.1078  -9.1008  -9.0794  -9.0456
    -9.0267  -9.0126  -9.0028  -9.0007  -8.9837  -8.9777  -8.9743  -8.9492
    -8.9314  -8.9023  -8.8838  -8.8743  -8.8719  -8.8673  -8.8635  -8.8586
    -8.8501  -8.8468  -8.8420  -8.8394  -8.8299  -8.8293  -8.8260  -8.8243
    -8.7915  -8.7743  -8.7273  -8.7130  -8.6952  -8.5745  -8.5492  -8.5425
    -8.5211  -8.5014  -8.4960  -8.4786  -8.4324  -8.3805  -8.3768  -8.3450
    -8.3346  -8.3064  -8.2802  -8.2761  -8.2724  -8.2538  -8.2284  -8.2220
    -8.1935  -8.1849  -8.1779  -8.1776  -8.1597  -8.1485  -8.1333  -8.1086
    -8.1037  -8.0974  -8.0848  -8.0754  -8.0725  -8.0600  -8.0566  -8.0344
    -8.0301  -8.0210  -8.0188  -8.0099  -7.9907  -7.9669  -7.9640  -7.9421
    -7.9403  -7.9272  -7.9136  -7.9134  -7.9029  -7.8988  -7.8979  -7.8865
    -7.8821  -7.8763  -7.8628  -7.8380  -7.8319  -7.8264  -7.8189  -7.8186
    -7.8148  -7.8079  -7.8048  -7.8016  -7.7891  -7.7834  -7.7613  -7.7575
    -7.7533  -7.7507  -7.7365  -7.7339  -7.7236  -7.7152  -7.7123  -7.6921
    -7.6858  -7.6856  -7.6836  -7.6726  -7.6638  -7.6627  -7.6543  -7.6536
    -7.6468  -7.6269  -7.6142  -7.6118  -7.6072  -7.6032  -7.6000  -7.5998
    -7.5931  -7.5929  -7.5875  -7.5825  -7.5767  -7.5679  -7.5574  -7.5544
    -7.5461  -7.5341  -7.5224  -7.5169  -7.5150  -7.5091  -7.5066  -7.5063
    -7.4995  -7.4959  -7.4849  -7.4725  -7.4714  -7.4540  -7.4519  -7.4378
    -7.4366  -7.4186  -7.4015  -7.3980  -7.3826  -7.3537  -7.3515  -7.3273
    -7.3223  -7.3087  -7.2920  -7.2869  -7.2741  -7.2694  -7.2167  -7.2004
    -7.1989  -7.1766  -7.1561  -7.1535  -7.1138  -7.0088  -6.9889  -6.9401
    -6.9084  -6.8929  -6.8895  -6.8350  -6.8198  -6.7874  -6.7716  -6.7663
    -6.7410  -6.7321  -6.7281  -6.7254  -6.7216  -6.7150  -6.7039  -6.6820
    -6.6395  -6.6157  -6.5439  -6.5331  -6.4872  -6.4838  -6.4253  -6.3248
    -6.3193  -6.1844  -6.1227  -6.0487  -5.8952  -5.8921  -5.7933  -5.7516
    -5.7411  -5.6930  -5.6269  -5.6235  -5.5796  -5.5699  -5.5481  -5.4383
    -5.2820  -5.1571  -4.9739

          k = 0.2500-0.6187 0.0000 (128424 PWs)   bands (ev):

   -94.7703 -94.7671 -94.7648 -94.7633 -94.7627 -94.7568 -94.7564 -94.7534
   -94.7525 -94.7517 -94.7435 -94.7403 -94.7388 -94.7374 -94.7370 -94.7347
   -94.7321 -94.7314 -94.7304 -94.7285 -94.7276 -94.7258 -94.7232 -94.7226
   -94.7224 -94.7211 -94.7194 -94.7159 -94.7147 -94.7129 -94.7113 -94.7048
   -94.6933 -94.6339 -94.6290 -94.6231 -94.6185 -94.6116 -94.6094 -94.6049
   -94.5990 -94.5970 -94.5955 -94.5950 -94.5931 -94.5912 -94.5897 -94.5885
   -94.5881 -94.5862 -94.5847 -94.5815 -94.5800 -94.5775 -94.5773 -94.5747
   -94.5694 -94.5666 -94.5624 -94.5499 -94.5485 -94.5442 -94.5413 -94.5394
   -60.9819 -60.9709 -60.9619 -60.9539 -60.9522 -60.9476 -60.9451 -60.9423
   -60.9401 -60.9367 -60.9358 -60.9339 -60.9315 -60.9294 -60.9276 -60.9239
   -60.9234 -60.9223 -60.9208 -60.9198 -60.9182 -60.9172 -60.9141 -60.9134
   -60.9125 -60.9099 -60.9051 -60.9025 -60.8985 -60.8981 -60.8950 -60.8915
   -60.8749 -60.8692 -60.8673 -60.8661 -60.8642 -60.8601 -60.8596 -60.8558
   -60.8552 -60.8504 -60.8447 -60.8435 -60.8383 -60.8327 -60.8318 -60.8296
   -60.8260 -60.8232 -60.8201 -60.8190 -60.8142 -60.8086 -60.8053 -60.8005
   -60.7971 -60.7930 -60.7891 -60.7831 -60.7792 -60.7779 -60.7775 -60.7738
   -60.7711 -60.7670 -60.7662 -60.7621 -60.7602 -60.7566 -60.7538 -60.7513
   -60.7486 -60.7469 -60.7452 -60.7443 -60.7430 -60.7418 -60.7396 -60.7383
   -60.7322 -60.7314 -60.7295 -60.7270 -60.7265 -60.7194 -60.7175 -60.7143
   -60.7125 -60.7108 -60.7083 -60.7051 -60.6997 -60.6946 -60.6895 -60.6870
   -60.6839 -60.6799 -60.6780 -60.6762 -60.6723 -60.6692 -60.6675 -60.6653
   -60.6640 -60.6615 -60.6593 -60.6583 -60.6568 -60.6555 -60.6537 -60.6528
   -60.6513 -60.6495 -60.6475 -60.6445 -60.6438 -60.6421 -60.6400 -60.6373
   -60.6363 -60.6359 -60.6332 -60.6320 -60.6296 -60.6274 -60.6267 -60.6258
   -60.6240 -60.6211 -60.6153 -60.6133 -60.6104 -60.6079 -60.6066 -60.6045
   -60.5997 -60.5961 -60.5952 -60.5927 -60.5918 -60.5911 -60.5900 -60.5880
   -60.5866 -60.5841 -60.5827 -60.5813 -60.5806 -60.5779 -60.5742 -60.5723
   -60.5659 -60.5658 -60.5636 -60.5582 -60.5568 -60.5540 -60.5517 -60.5466
   -60.5443 -60.5393 -60.5386 -60.5341 -60.5317 -60.5261 -60.5221 -60.5216
   -60.5199 -60.5172 -60.5168 -60.5161 -60.5144 -60.5128 -60.5122 -60.5109
   -60.5099 -60.5089 -60.5081 -60.5066 -60.5057 -60.5043 -60.5010 -60.4997
   -60.4980 -60.4966 -60.4944 -60.4917 -60.4913 -60.4896 -60.4861 -60.4829
   -23.8854 -15.0456 -14.1679 -13.8920 -13.6593 -13.4286 -12.8455 -12.7520
   -12.5797 -12.3252 -12.2612 -11.7415 -11.6408 -11.5573 -11.5064 -11.4858
   -11.4470 -11.3878 -11.3611 -11.3282 -11.2549 -11.2173 -11.1784 -11.1689
   -11.1476 -11.0988 -11.0813 -11.0387 -11.0273 -11.0009 -10.9868 -10.9813
   -10.9729 -10.9390 -10.8958 -10.8745 -10.8649 -10.8511 -10.8433 -10.8203
   -10.7854 -10.7671 -10.7433 -10.7339 -10.7155 -10.6788 -10.6585 -10.6034
   -10.5988 -10.5682 -10.5489 -10.5317 -10.5043 -10.4767 -10.4598 -10.4206
   -10.4059 -10.3973 -10.3862 -10.3678 -10.3439 -10.3371 -10.3175 -10.2978
   -10.2880 -10.2586 -10.2406 -10.2236 -10.2050 -10.1947 -10.1823 -10.1666
   -10.1027 -10.0917 -10.0478 -10.0081  -9.9424  -9.9317  -9.9211  -9.9070
    -9.9040  -9.8928  -9.8883  -9.8809  -9.8560  -9.8429  -9.8040  -9.8011
    -9.7738  -9.7606  -9.7564  -9.7493  -9.7307  -9.7174  -9.6950  -9.6931
    -9.6893  -9.6797  -9.6778  -9.6743  -9.6712  -9.6698  -9.6551  -9.6403
    -9.6360  -9.6187  -9.6048  -9.5991  -9.5884  -9.5742  -9.5612  -9.5529
    -9.5458  -9.5384  -9.5226  -9.5165  -9.5078  -9.4932  -9.4669  -9.4517
    -9.4469  -9.4345  -9.4323  -9.4215  -9.4123  -9.4075  -9.4000  -9.3867
    -9.3793  -9.3691  -9.3622  -9.3571  -9.3514  -9.3358  -9.3282  -9.3144
    -9.2894  -9.2852  -9.2542  -9.2419  -9.2311  -9.1560  -9.1313  -9.1282
    -9.1188  -9.1153  -9.1032  -9.0867  -9.0830  -9.0793  -9.0761  -9.0691
    -9.0546  -9.0482  -9.0348  -9.0318  -9.0283  -9.0190  -9.0166  -8.9807
    -8.9782  -8.9630  -8.9516  -8.9447  -8.9407  -8.9142  -8.8688  -8.8394
    -8.8186  -8.8017  -8.7784  -8.7708  -8.7504  -8.7236  -8.7042  -8.6980
    -8.6505  -8.6098  -8.6012  -8.5696  -8.5561  -8.5397  -8.5177  -8.4966
    -8.4691  -8.4421  -8.4329  -8.4205  -8.4042  -8.3746  -8.3582  -8.3523
    -8.3445  -8.3286  -8.3195  -8.3158  -8.3063  -8.2956  -8.2776  -8.2570
    -8.2271  -8.2195  -8.1911  -8.1872  -8.1737  -8.1562  -8.1525  -8.1333
    -8.1222  -8.1131  -8.1002  -8.0893  -8.0763  -8.0719  -8.0676  -8.0581
    -8.0427  -8.0277  -8.0122  -8.0074  -7.9961  -7.9859  -7.9675  -7.9575
    -7.9489  -7.9470  -7.9428  -7.9342  -7.9271  -7.9209  -7.9080  -7.9070
    -7.8949  -7.8915  -7.8770  -7.8669  -7.8512  -7.8455  -7.8256  -7.8186
    -7.8092  -7.7960  -7.7904  -7.7843  -7.7783  -7.7753  -7.7635  -7.7565
    -7.7540  -7.7469  -7.7434  -7.7220  -7.7183  -7.7104  -7.7035  -7.7008
    -7.6933  -7.6888  -7.6771  -7.6648  -7.6580  -7.6518  -7.6471  -7.6430
    -7.6375  -7.6269  -7.6164  -7.6141  -7.6110  -7.6042  -7.5978  -7.5836
    -7.5809  -7.5738  -7.5625  -7.5508  -7.5486  -7.5479  -7.5412  -7.5397
    -7.5296  -7.5240  -7.5174  -7.5036  -7.5006  -7.4941  -7.4902  -7.4899
    -7.4679  -7.4557  -7.4434  -7.4379  -7.4286  -7.4127  -7.4077  -7.3878
    -7.3816  -7.3700  -7.3504  -7.3387  -7.3026  -7.2893  -7.2749  -7.2519
    -7.2351  -7.2190  -7.2139  -7.1829  -7.1646  -7.1490  -7.1306  -7.0982
    -7.0885  -7.0791  -7.0714  -7.0601  -7.0215  -7.0054  -6.9933  -6.9827
    -6.9623  -6.9396  -6.9265  -6.9105  -6.8965  -6.8755  -6.8617  -6.8561
    -6.8302  -6.8298  -6.7805  -6.7739  -6.7685  -6.7545  -6.7479  -6.7343
    -6.7298  -6.7074  -6.6826  -6.6716  -6.6470  -6.6262  -6.6166  -6.5564
    -6.4810  -6.3654  -6.3047  -6.1356  -6.1092  -6.0133  -5.9800  -5.8408
    -5.7982  -5.7047  -5.6551  -5.6418  -5.5036  -5.3519  -5.3354  -5.2814
    -5.0894  -5.0213  -4.9491

          k = 0.2500-0.3536 0.0000 (128397 PWs)   bands (ev):

   -94.7719 -94.7673 -94.7655 -94.7629 -94.7605 -94.7580 -94.7549 -94.7544
   -94.7516 -94.7476 -94.7430 -94.7428 -94.7396 -94.7395 -94.7382 -94.7357
   -94.7320 -94.7310 -94.7305 -94.7282 -94.7256 -94.7254 -94.7231 -94.7220
   -94.7214 -94.7209 -94.7187 -94.7185 -94.7169 -94.7119 -94.7108 -94.7043
   -94.6933 -94.6352 -94.6283 -94.6229 -94.6151 -94.6126 -94.6106 -94.6025
   -94.6010 -94.6006 -94.5970 -94.5938 -94.5932 -94.5901 -94.5892 -94.5886
   -94.5880 -94.5866 -94.5836 -94.5799 -94.5791 -94.5787 -94.5777 -94.5732
   -94.5712 -94.5659 -94.5630 -94.5505 -94.5481 -94.5444 -94.5421 -94.5383
   -60.9832 -60.9697 -60.9634 -60.9536 -60.9509 -60.9475 -60.9462 -60.9436
   -60.9400 -60.9383 -60.9352 -60.9328 -60.9318 -60.9282 -60.9246 -60.9246
   -60.9230 -60.9227 -60.9223 -60.9209 -60.9208 -60.9166 -60.9139 -60.9120
   -60.9103 -60.9090 -60.9051 -60.9030 -60.9024 -60.8984 -60.8941 -60.8914
   -60.8831 -60.8779 -60.8758 -60.8716 -60.8675 -60.8626 -60.8625 -60.8613
   -60.8574 -60.8570 -60.8524 -60.8474 -60.8444 -60.8438 -60.8322 -60.8228
   -60.8131 -60.8111 -60.8074 -60.8038 -60.7976 -60.7973 -60.7919 -60.7907
   -60.7878 -60.7848 -60.7843 -60.7830 -60.7797 -60.7775 -60.7750 -60.7734
   -60.7718 -60.7709 -60.7704 -60.7651 -60.7640 -60.7638 -60.7585 -60.7577
   -60.7518 -60.7518 -60.7477 -60.7452 -60.7402 -60.7382 -60.7351 -60.7318
   -60.7295 -60.7261 -60.7231 -60.7217 -60.7172 -60.7148 -60.7140 -60.7114
   -60.7111 -60.7041 -60.7012 -60.6972 -60.6958 -60.6951 -60.6919 -60.6885
   -60.6880 -60.6861 -60.6839 -60.6810 -60.6783 -60.6746 -60.6727 -60.6699
   -60.6619 -60.6604 -60.6598 -60.6572 -60.6566 -60.6562 -60.6559 -60.6553
   -60.6536 -60.6526 -60.6517 -60.6503 -60.6472 -60.6471 -60.6448 -60.6411
   -60.6410 -60.6396 -60.6330 -60.6327 -60.6300 -60.6285 -60.6278 -60.6229
   -60.6226 -60.6198 -60.6187 -60.6135 -60.6092 -60.6063 -60.6051 -60.6047
   -60.6037 -60.5985 -60.5968 -60.5953 -60.5909 -60.5908 -60.5894 -60.5890
   -60.5845 -60.5836 -60.5806 -60.5803 -60.5788 -60.5755 -60.5750 -60.5728
   -60.5709 -60.5689 -60.5646 -60.5606 -60.5601 -60.5568 -60.5558 -60.5535
[...]
    -5.1774  -5.1711  -5.1643  -5.1492  -5.1382  -5.1359  -5.1204  -5.1062
    -5.1046  -5.0973  -5.0820  -5.0756  -5.0721  -5.0638  -5.0370  -5.0323
    -5.0172  -5.0085  -5.0067  -4.9874  -4.9808  -4.9641  -4.9586  -4.9447
    -4.9385  -4.9229  -4.9052  -4.8932  -4.8922  -4.8846  -4.8800  -4.8728
    -4.8610  -4.8509  -4.8446  -4.8335  -4.8283  -4.8259  -4.8095  -4.8046
    -4.7892  -4.7849  -4.7772  -4.7742  -4.7597  -4.7481  -4.7453  -4.7389
    -4.7210  -4.7004  -4.6953  -4.6803  -4.6743  -4.6697  -4.6597  -4.6509
    -4.6470  -4.6437  -4.6400  -4.6315  -4.6226  -4.6208  -4.6121  -4.6025
    -4.5915  -4.5842  -4.5757  -4.5596  -4.5503  -4.5467  -4.5380  -4.5313
    -4.5270  -4.5222  -4.5193  -4.5150  -4.5099  -4.5002  -4.4870  -4.4812
    -4.4774  -4.4617  -4.4455  -4.4430  -4.4414  -4.4317  -4.4212  -4.4078
    -4.3960  -4.3854  -4.3609  -4.3524  -4.3491  -4.3268  -4.3176  -4.3007
    -4.2991  -4.2960  -4.2890  -4.2821  -4.2742  -4.2681  -4.2433  -4.2236
    -4.2202  -4.2147  -4.2032  -4.1902  -4.1734  -4.1654  -4.1411  -4.1126
    -4.0907  -4.0218  -3.9544  -3.9413  -3.9172  -3.8816  -3.8044  -3.7796
    -3.7233  -3.6803  -3.5711

          k =-0.5000-0.3536 0.0000 (128560 PWs)   bands (ev):

   -92.0383 -92.0350 -91.8208 -91.8198 -91.7831 -91.7739 -91.7635 -91.7624
   -91.7547 -91.7516 -91.7437 -91.7402 -91.7399 -91.7356 -91.7329 -91.7326
   -91.7323 -91.7300 -91.7248 -91.7214 -91.7196 -91.7192 -91.7174 -91.7158
   -91.7107 -91.7082 -91.7062 -91.7043 -91.7030 -91.7025 -91.6944 -91.6917
   -91.6884 -91.6859 -91.6828 -91.6723 -91.6696 -91.6672 -91.6644 -91.6629
   -91.6611 -91.6607 -91.6577 -91.6576 -91.6520 -91.6432 -91.6432 -91.6426
   -91.6402 -91.6398 -91.6395 -91.6387 -91.6372 -91.6368 -91.6357 -91.6349
   -91.6293 -91.6281 -91.6236 -91.6180 -91.6162 -91.6146 -91.6139 -91.6129
   -58.3665 -58.3496 -58.1532 -58.1452 -58.0635 -58.0583 -58.0472 -58.0449
   -58.0414 -58.0316 -58.0287 -58.0278 -58.0247 -58.0203 -58.0196 -58.0164
   -58.0148 -58.0145 -58.0103 -58.0087 -58.0067 -58.0037 -58.0029 -57.9998
   -57.9988 -57.9972 -57.9959 -57.9929 -57.9848 -57.9841 -57.9713 -57.9679
   -57.9674 -57.9627 -57.9600 -57.9586 -57.9565 -57.9516 -57.9434 -57.9406
   -57.9405 -57.9405 -57.9404 -57.9337 -57.9316 -57.9294 -57.9274 -57.9262
   -57.9259 -57.9243 -57.9199 -57.9167 -57.9166 -57.9151 -57.9121 -57.9108
   -57.9067 -57.9057 -57.9054 -57.9046 -57.9036 -57.9014 -57.8998 -57.8986
   -57.8871 -57.8774 -57.8770 -57.8735 -57.8727 -57.8673 -57.8663 -57.8538
   -57.8537 -57.8536 -57.8457 -57.8434 -57.8424 -57.8419 -57.8364 -57.8287
   -57.8268 -57.8249 -57.8224 -57.8192 -57.8163 -57.8161 -57.8136 -57.8131
   -57.8128 -57.8105 -57.8068 -57.8025 -57.7994 -57.7993 -57.7964 -57.7924
   -57.7919 -57.7881 -57.7878 -57.7829 -57.7785 -57.7712 -57.7707 -57.7707
   -57.7690 -57.7656 -57.7655 -57.7638 -57.7632 -57.7624 -57.7600 -57.7551
   -57.7544 -57.7520 -57.7507 -57.7499 -57.7485 -57.7456 -57.7432 -57.7429
   -57.7422 -57.7416 -57.7397 -57.7336 -57.7313 -57.7301 -57.7289 -57.7264
   -57.7250 -57.7234 -57.7223 -57.7162 -57.7107 -57.7089 -57.7081 -57.7066
   -57.7043 -57.7039 -57.7025 -57.7013 -57.6988 -57.6988 -57.6981 -57.6965
   -57.6951 -57.6932 -57.6918 -57.6906 -57.6901 -57.6887 -57.6866 -57.6860
   -57.6829 -57.6826 -57.6804 -57.6797 -57.6794 -57.6760 -57.6755 -57.6745
   -57.6739 -57.6736 -57.6730 -57.6718 -57.6706 -57.6702 -57.6689 -57.6680
   -57.6669 -57.6653 -57.6644 -57.6640 -57.6617 -57.6600 -57.6589 -57.6585
   -57.6581 -57.6564 -57.6559 -57.6544 -57.6517 -57.6506 -57.6504 -57.6473
   -57.6463 -57.6442 -57.6441 -57.6439 -57.6419 -57.6412 -57.6410 -57.6394
   -23.8480 -14.8749 -13.8240 -13.7222 -13.3706 -13.1467 -13.0334 -12.4186
   -12.2757 -11.9227 -11.7800 -11.2038 -11.1407 -11.1338 -11.1204 -10.7904
   -10.7162 -10.6296 -10.2952 -10.2862 -10.2843 -10.2735 -10.2603 -10.2451
   -10.1655 -10.1620 -10.1606 -10.1548 -10.0836 -10.0577  -9.7378  -9.7360
    -9.7247  -9.7207  -9.6950  -9.6737  -9.5118  -9.4937  -9.2628  -9.2573
    -9.2278  -9.2099  -9.2063  -9.1906  -9.1640  -9.1560  -9.1332  -9.1120
    -9.1062  -9.0833  -8.9715  -8.9692  -8.9578  -8.9524  -8.9475  -8.8942
    -8.7060  -8.6897  -8.6794  -8.6759  -8.6649  -8.6559  -8.4525  -8.4227
    -8.4075  -8.3977  -8.3554  -8.3519  -8.2611  -8.2430  -8.1848  -8.1729
    -8.1713  -8.1610  -8.1514  -8.1506  -8.1447  -8.1409  -8.1393  -8.1342
    -8.0677  -8.0530  -8.0464  -8.0392  -8.0368  -8.0355  -8.0318  -8.0257
    -8.0219  -8.0157  -8.0130  -7.9480  -7.8212  -7.8116  -7.7975  -7.7958
    -7.6970  -7.6822  -7.6797  -7.6782  -7.6554  -7.6536  -7.6487  -7.6292
    -7.6263  -7.6159  -7.6072  -7.6027  -7.5991  -7.5965  -7.5863  -7.5783
    -7.5720  -7.5686  -7.5549  -7.5478  -7.5409  -7.5355  -7.5353  -7.5323
    -7.5281  -7.5232  -7.5206  -7.5112  -7.4914  -7.4776  -7.4722  -7.4477
    -7.4421  -7.4368  -7.4306  -7.4268  -7.4233  -7.4209  -7.4168  -7.4154
    -7.4133  -7.4046  -7.3948  -7.3543  -7.3454  -7.3391  -7.2223  -7.2117
    -7.1612  -7.1606  -7.1570  -7.1569  -7.1396  -7.1188  -7.1061  -7.0853
    -7.0849  -7.0616  -7.0131  -6.9967  -6.9850  -6.9757  -6.9699  -6.9608
    -6.9447  -6.9220  -6.9185  -6.9030  -6.8992  -6.8694  -6.8507  -6.8147
    -6.7423  -6.7200  -6.7183  -6.7093  -6.6501  -6.6444  -6.6441  -6.6423
    -6.6349  -6.6303  -6.6263  -6.6157  -6.5917  -6.5760  -6.5650  -6.5322
    -6.5192  -6.5161  -6.5114  -6.4976  -6.4681  -6.2545  -6.2352  -6.1686
    -6.1419  -6.1172  -6.1024  -6.0597  -6.0031  -5.8895  -5.8585  -5.8555
    -5.8510  -5.8173  -5.7951  -5.7804  -5.7420  -5.7016  -5.6994  -5.6898
    -5.6778  -5.6629  -5.6490  -5.6141  -5.6025  -5.5892  -5.5668  -5.5603
    -5.5562  -5.5163  -5.5067  -5.4719  -5.4701  -5.4676  -5.4375  -5.4263
    -5.4116  -5.3860  -5.3835  -5.3667  -5.3481  -5.3452  -5.3406  -5.3404
    -5.3363  -5.3259  -5.3221  -5.3143  -5.2981  -5.2924  -5.2637  -5.2596
    -5.2525  -5.2095  -5.1899  -5.1796  -5.1599  -5.1279  -5.1178  -5.1162
    -5.0857  -5.0683  -5.0561  -5.0203  -5.0113  -4.9997  -4.9524  -4.9410
    -4.9153  -4.9134  -4.9122  -4.9065  -4.9053  -4.8999  -4.8962  -4.8916
    -4.8910  -4.8907  -4.8836  -4.8711  -4.8642  -4.8568  -4.8559  -4.8503
    -4.8468  -4.8404  -4.8332  -4.8286  -4.8119  -4.7842  -4.7814  -4.7795
    -4.7702  -4.7679  -4.7627  -4.7600  -4.7537  -4.7475  -4.7428  -4.7303
    -4.7202  -4.7162  -4.7120  -4.7068  -4.7032  -4.6803  -4.6797  -4.6794
    -4.6695  -4.6665  -4.6632  -4.6612  -4.6605  -4.6601  -4.6375  -4.6253
    -4.6213  -4.6103  -4.5636  -4.5419  -4.5409  -4.5374  -4.5262  -4.5057
    -4.5041  -4.4958  -4.4854  -4.4820  -4.4780  -4.4769  -4.4710  -4.4700
    -4.4700  -4.4662  -4.4592  -4.4592  -4.4588  -4.4569  -4.4445  -4.4397
    -4.4364  -4.4085  -4.4078  -4.4022  -4.3992  -4.3944  -4.3936  -4.3893
    -4.3794  -4.3764  -4.3687  -4.3636  -4.3605  -4.3086  -4.2854  -4.2852
    -4.2758  -4.2755  -4.2657  -4.2434  -4.1343  -4.0957  -4.0754  -4.0570
    -3.9428  -3.9317  -3.8695  -3.8544  -3.8491  -3.8446  -3.7956  -3.7937
    -3.7807  -3.7660  -3.7585

     the Fermi energy is    -6.6033 ev

!    total energy              =  -21094.91144955 Ry
     Harris-Foulkes estimate   =  -21094.91145046 Ry
     estimated scf accuracy    <          5.1E-11 Ry

     The total energy is the sum of the following terms:

     one-electron contribution = -744843.60266419 Ry
     hartree contribution      =  372167.15156747 Ry
     xc contribution           =   -2235.08652231 Ry
     ewald contribution        =  358691.45904482 Ry
     Dispersion Correction     =      -1.39545450 Ry
     one-center paw contrib.   =   -4873.43776143 Ry
     smearing contrib. (-TS)   =       0.00034059 Ry

     total magnetization       =   161.54 Bohr mag/cell
     absolute magnetization    =   168.06 Bohr mag/cell

     convergence has been achieved in  13 iterations

     negative rho (up, down):  2.439E-02 2.024E-02

     Forces acting on atoms (cartesian axes, Ry/au):

     atom    1 type  1   force =     0.00030397    0.00001423    0.00989055
     atom    2 type  1   force =    -0.00091979    0.00130900   -0.00532014
     atom    3 type  1   force =     0.00016910    0.00013561    0.00953134
     atom    4 type  1   force =    -0.00053920    0.00009352   -0.01060016
     atom    5 type  1   force =    -0.00001446   -0.00000428   -0.00002900
     atom    6 type  1   force =     0.00000273    0.00000286    0.00000270
     atom    7 type  1   force =     0.00001805    0.00000247   -0.00004403
     atom    8 type  1   force =     0.00001495    0.00001776   -0.00001299
     atom    9 type  1   force =     0.00000335    0.00002385    0.00973678
     atom   10 type  1   force =    -0.00018029   -0.00016569    0.00898289
     atom   11 type  1   force =     0.00011206   -0.00004471   -0.01047130
     atom   12 type  1   force =    -0.00021561   -0.00006809   -0.00965216
     atom   13 type  1   force =     0.00000011   -0.00000184   -0.00005673
     atom   14 type  1   force =     0.00001911    0.00001242   -0.00008400
     atom   15 type  1   force =     0.00013445    0.00000870    0.00001141
     atom   16 type  1   force =     0.00001660    0.00000924   -0.00001163
     atom   17 type  1   force =     0.00021765    0.00009079    0.00949197
     atom   18 type  1   force =    -0.00004559   -0.00051921   -0.01060854
     atom   19 type  1   force =    -0.00016190   -0.00017726    0.00948665
     atom   20 type  1   force =    -0.00001755    0.00003306   -0.00695631
     atom   21 type  1   force =     0.00000727    0.00001260   -0.00004191
     atom   22 type  1   force =     0.00002477    0.00000440   -0.00001906
     atom   23 type  1   force =    -0.00001748   -0.00000402   -0.00004177
     atom   24 type  1   force =    -0.00006149    0.00007846    0.00027074
     atom   25 type  1   force =     0.00003197   -0.00004461    0.00874340
     atom   26 type  1   force =     0.00002036   -0.00003666    0.00922147
     atom   27 type  1   force =     0.00006817   -0.00005266   -0.01106577
     atom   28 type  1   force =     0.00001297   -0.00010773   -0.01046703
     atom   29 type  1   force =    -0.00000089    0.00000038    0.00001037
     atom   30 type  1   force =     0.00000201   -0.00000474   -0.00005333
     atom   31 type  1   force =    -0.00010469   -0.00007351    0.00002798
     atom   32 type  1   force =    -0.00005113   -0.00012126    0.00000973
     atom   33 type  1   force =    -0.00031503    0.00000782    0.00994309
     atom   34 type  1   force =     0.00050613   -0.00012177   -0.01060626
     atom   35 type  1   force =     0.00009961    0.00030169    0.00995324
     atom   36 type  1   force =     0.00083212   -0.00118048   -0.00527705
     atom   37 type  1   force =     0.00001372    0.00000184   -0.00003221
     atom   38 type  1   force =    -0.00001401   -0.00002121   -0.00001764
     atom   39 type  1   force =    -0.00000760   -0.00001387   -0.00002824
     atom   40 type  1   force =    -0.00000021   -0.00000698    0.00000373
     atom   41 type  1   force =    -0.00002568    0.00003926    0.00720222
     atom   42 type  1   force =    -0.00004340    0.00006462    0.00919987
     atom   43 type  1   force =     0.00013210    0.00018858   -0.00964359
     atom   44 type  1   force =    -0.00013159    0.00004816   -0.01042688
     atom   45 type  1   force =     0.00000071   -0.00000076   -0.00005933
     atom   46 type  1   force =    -0.00000084    0.00000260   -0.00005455
     atom   47 type  1   force =    -0.00001112   -0.00001776   -0.00001143
     atom   48 type  1   force =    -0.00013945   -0.00001368    0.00000372
     atom   49 type  1   force =    -0.00018076   -0.00011911    0.00953980
     atom   50 type  1   force =     0.00008130   -0.00012035   -0.00693515
     atom   51 type  1   force =    -0.00011141   -0.00028636    0.00990024
     atom   52 type  1   force =     0.00008645    0.00055300   -0.01059604
     atom   53 type  1   force =    -0.00000729   -0.00001450   -0.00004544
     atom   54 type  1   force =     0.00006097   -0.00008117    0.00026716
     atom   55 type  1   force =     0.00000996    0.00001361   -0.00002694
     atom   56 type  1   force =    -0.00002231   -0.00000548   -0.00001256
     atom   57 type  1   force =    -0.00002405    0.00000441    0.00975072
     atom   58 type  1   force =     0.00021892    0.00011721    0.00897716
     atom   59 type  1   force =    -0.00000453    0.00013783   -0.01043406
     atom   60 type  1   force =     0.00002427   -0.00007064   -0.01107244
     atom   61 type  1   force =     0.00000231   -0.00000099   -0.00005639
     atom   62 type  1   force =    -0.00002026   -0.00001187   -0.00008444
     atom   63 type  1   force =     0.00005716    0.00012321    0.00000301
     atom   64 type  1   force =     0.00010242    0.00007567    0.00002903
     atom   65 type  2   force =     0.00000962    0.00000824    0.00007645
     atom   66 type  3   force =     0.00000335   -0.00001143    0.00006665
     atom   67 type  3   force =    -0.00003117   -0.00001243    0.00007911

     Total force =     0.000583     Total SCF correction =     0.000066
     SCF correction compared to forces is large: reduce conv_thr to get better values

     bfgs converged in   9 scf cycles and   8 bfgs steps
     (criteria: energy <  7.3E-07 Ry, force <  3.9E-04 Ry/Bohr)

     End of BFGS Geometry Optimization

     Final energy   =  -21094.9114495486 Ry
Begin final coordinates

ATOMIC_POSITIONS (angstrom)
Fe       1.654912953   1.170200133   0.000000000    0   0   0
Fe       0.000000000   0.000000000   2.026984232    0   0   0
Fe       4.964738858   3.510600399   0.000000000    0   0   0
Fe       3.309825906   2.340400266   2.026984232    0   0   0
Fe       1.647660576   1.168017577   4.023458561
Fe       3.303426682   9.370722275   5.997769904
Fe       4.960173133   3.515074479   4.011084220
Fe       3.305228849   2.331763736   5.997891455
Fe       2.482363858   3.510600399   0.000000000    0   0   0
Fe       4.137287953   1.170200133   0.000000000    0   0   0
Fe       0.827450906   2.340400266   2.026984232    0   0   0
Fe       2.482375000   0.000000000   2.026984232    0   0   0
Fe       2.482384844   3.510542046   4.026495006
Fe       4.129506926   1.164735310   4.017056548
Fe       0.813156630   2.344218707   5.988506062
Fe       2.477787313  -0.003197616   6.008275880
Fe       6.619662953   1.170200133   0.000000000    0   0   0
Fe       4.964750000   0.000000000   2.026984232    0   0   0
Fe       9.929488858   3.510600399   0.000000000    0   0   0
Fe       8.274575906   2.340400266   2.026984232    0   0   0
Fe       6.622475656   1.164326214   4.011105589
Fe       4.955238685  -0.001518749   5.997348527
Fe       9.934236518   3.506043844   4.011069092
Fe       8.277625742   2.336642207   6.086049931
Fe       7.447113858   3.510600399   0.000000000    0   0   0
Fe       9.102037953   1.170200133   0.000000000    0   0   0
Fe       5.792200906   2.340400266   2.026984232    0   0   0
Fe       7.447125000   0.000000000   2.026984232    0   0   0
Fe       7.447256191   3.510530627   4.043543163
Fe       9.091178150   1.185646723   4.046933609
Fe       5.746017548   2.307664090   5.927404583
Fe      10.758239720   9.376603964   5.988582532
Fe       3.309814764   5.851000664   0.000000000    0   0   0
Fe       1.654901811   4.680800531   2.026984232    0   0   0
Fe       6.619640670   8.191400930   0.000000000    0   0   0
Fe       4.964727717   7.021200797   2.026984232    0   0   0
Fe       3.316944256   5.853383004   4.023473402
Fe      11.589158407   4.689378005   5.997324149
Fe       6.615077233   8.185562135   4.023414061
Fe       4.971011447   7.012418239   5.997312535
Fe       4.137265670   8.191400930   0.000000000    0   0   0
Fe       5.792189764   5.851000664   0.000000000    0   0   0
Fe       2.482352717   7.021200797   2.026984232    0   0   0
Fe       4.137276811   4.680800531   2.026984232    0   0   0
Fe       4.137087732   8.191712391   4.029376200
Fe       5.802971139   5.835830132   4.046759375
Fe      12.416468204   7.024597519   6.008255743
Fe       4.151909764   4.677080758   5.988625829
Fe       8.274564764   5.851000664   0.000000000    0   0   0
Fe       6.619651811   4.680800531   2.026984232    0   0   0
Fe      11.584390670   8.191400930   0.000000000    0   0   0
Fe       9.929477717   7.021200797   2.026984232    0   0   0
Fe       8.271977631   5.856868196   4.011056790
Fe       6.617316530   4.684407268   6.085785741
Fe      11.588915631   8.197574838   4.023472891
Fe       9.939254118   7.022794231   5.997852566
Fe       9.102015670   8.191400930   0.000000000    0   0   0
Fe      10.756939764   5.851000664   0.000000000    0   0   0
Fe       7.447102717   7.021200797   2.026984232    0   0   0
Fe       9.102026811   4.680800531   2.026984232    0   0   0
Fe       9.102137010   8.191469414   4.026468904
Fe      10.764794729   5.856556826   4.017064672
Fe       7.445836527   7.006379878   5.988516278
Fe       9.148471744   4.713543291   5.927346480
N        7.448386458   3.511376676   7.475644742
H        8.108288668   3.978674855   8.113796918
H        6.788654900   3.044519822   8.114244593
End final coordinates



     Writing output data file Fe_NH2_paper_480c_ESM_pn25.save/

     init_run     :     85.62s CPU     87.15s WALL (       1 calls)
     electrons    :  68286.46s CPU  68764.15s WALL (       9 calls)
     update_pot   :    148.80s CPU    148.96s WALL (       8 calls)
     forces       :    404.60s CPU    407.47s WALL (       9 calls)

     Called by init_run:
     wfcinit      :     58.27s CPU     59.47s WALL (       1 calls)
     potinit      :      8.84s CPU      8.90s WALL (       1 calls)
     hinit0       :     15.01s CPU     15.08s WALL (       1 calls)

     Called by electrons:
     c_bands      :  63460.79s CPU  63876.97s WALL (     171 calls)
     sum_band     :   2721.53s CPU   2762.15s WALL (     171 calls)
     v_of_rho     :    278.65s CPU    279.53s WALL (     172 calls)
     newd         :     51.27s CPU     52.78s WALL (     172 calls)
     PAW_pot      :     84.66s CPU     85.00s WALL (     180 calls)
     mix_rho      :   1603.82s CPU   1618.23s WALL (     171 calls)

     Called by c_bands:
     init_us_2    :     79.67s CPU     81.51s WALL (    1080 calls)
     cegterg      :  46997.29s CPU  47286.06s WALL (     519 calls)

     Called by sum_band:
     sum_band:bec :      5.16s CPU      5.18s WALL (     537 calls)
     addusdens    :     63.12s CPU     66.09s WALL (     171 calls)

     Called by *egterg:
     h_psi        :  13235.03s CPU  13351.03s WALL (    4789 calls)
     s_psi        :   2778.89s CPU   2786.21s WALL (    4789 calls)
     g_psi        :     37.90s CPU     38.10s WALL (    4267 calls)
     cdiaghg      :  19552.87s CPU  19632.76s WALL (    4738 calls)

     Called by h_psi:
     h_psi:pot    :  13168.47s CPU  13245.63s WALL (    4789 calls)
     h_psi:calbec :   2804.28s CPU   2810.41s WALL (    4789 calls)
     vloc_psi     :   7590.55s CPU   7656.34s WALL (    4789 calls)
     add_vuspsi   :   2773.58s CPU   2778.84s WALL (    4789 calls)

     General routines
     calbec       :   3966.89s CPU   3975.17s WALL (    5434 calls)
     fft          :    173.50s CPU    174.17s WALL (    4441 calls)
     ffts         :    829.07s CPU    834.89s WALL (   99238 calls)
     fftw         :   7176.05s CPU   7238.82s WALL ( 2129951 calls)
     interpolate  :     17.11s CPU     17.18s WALL (     344 calls)
     davcio       :      0.78s CPU    101.72s WALL (    4284 calls)

     Parallel routines
     fft_scatt_xy :   1411.72s CPU   1419.81s WALL ( 2233630 calls)
     fft_scatt_yz :   1960.57s CPU   1993.55s WALL ( 2233630 calls)

     PWSCF        :     19h10m CPU     19h18m WALL


   This run was terminated on:  16:20:42  13Jun2022            

=------------------------------------------------------------------------------=
   JOB DONE.
=------------------------------------------------------------------------------=
