
     Program PWSCF v.6.4.1 starts on  8Jun2022 at 16:16: 3 

     This program is part of the open-source Quantum ESPRESSO suite
     for quantum simulation of materials; please cite
         "P. Giannozzi et al., J. Phys.:Condens. Matter 21 395502 (2009);
         "P. Giannozzi et al., J. Phys.:Condens. Matter 29 465901 (2017);
          URL http://www.quantum-espresso.org", 
     in publications or presentations arising from this work. More details at
     http://www.quantum-espresso.org/quote

     Parallel version (MPI), running on   160 processors

     MPI processes distributed on     8 nodes
     K-points division:     npool     =       8
     R & G space division:  proc/nbgrp/npool/nimage =      20
     Waiting for input...
     Reading input from standard input
Warning: card &CELL ignored
Warning: card / ignored

     Current dimensions of program PWSCF are:
     Max number of different atomic species (ntypx) = 10
     Max number of k-points (npk) =  40000
     Max angular momentum in pseudopotentials (lmaxx) =  3

     IMPORTANT: XC functional enforced from input :
     Exchange-correlation      = PBE ( 1  4  3  4 0 0)
     Any further DFT definition will be discarded
     Please, verify this is what you really want

               file Fe.pbe-spn-kjpaw_psl.0.2.1.UPF: wavefunction(s)  3D renormalized

     -------------------------------------------------
     Parameters for Dispersion (Grimme-D2) Correction:
     -------------------------------------------------
       atom      VdW radius       C_6     

        Fe         2.952        374.666
        N          2.640         42.670
        H          1.892          4.857

     Subspace diagonalization in iterative solution of the eigenvalue problem:
     one sub-group per band group will be used
     scalapack distributed-memory algorithm (size of sub-group:  3*  3 procs)


     Parallelization info
     --------------------
     sticks:   dense  smooth     PW     G-vecs:    dense   smooth      PW
     Min         634     317     83               145278    51361    6989
     Max         635     318     84               145287    51370    7000
     Sum       12685    6351   1677              2905599  1027285  139897



     bravais-lattice index     =            0
     lattice parameter (alat)  =      18.7640  a.u.
     unit-cell volume          =   16360.3163 (a.u.)^3
     number of atoms/cell      =           67
     number of atomic types    =            3
     number of electrons       =      1031.00
     number of Kohn-Sham states=          619
     kinetic-energy cutoff     =      60.0000  Ry
     charge density cutoff     =     480.0000  Ry
     convergence threshold     =      1.0E-08
     mixing beta               =       0.2000
     number of iterations used =           10  local-TF  mixing
     Exchange-correlation      = PBE ( 1  4  3  4 0 0)
     nstep                     =           50


     Effective Screening Medium Method
     =================================
     Boundary Conditions: Metal-Slab-Metal
     field strength                   =     0.01 Ry/a.u.
     grid points for fit at edges     =        4 


     celldm(1)=  18.764036  celldm(2)=   0.000000  celldm(3)=   0.000000
     celldm(4)=   0.000000  celldm(5)=   0.000000  celldm(6)=   0.000000

     crystal axes: (cart. coord. in units of alat)
               a(1) = (   1.000000   0.000000   0.000000 )  
               a(2) = (   0.333330   0.942807   0.000000 )  
               a(3) = (   0.000000   0.000000   2.626577 )  

     reciprocal axes: (cart. coord. in units 2 pi/alat)
               b(1) = (  1.000000 -0.353551  0.000000 )  
               b(2) = (  0.000000  1.060663  0.000000 )  
               b(3) = (  0.000000  0.000000  0.380724 )  


     PseudoPot. # 1 for Fe read from file:
     ../../SSSP/Fe.pbe-spn-kjpaw_psl.0.2.1.UPF
     MD5 check sum: e86618425769142926afa95317d90200
     Pseudo is Projector augmented-wave + core cor, Zval = 16.0
     Generated using "atomic" code by A. Dal Corso v.5.0.99 svn rev. 10869
     Shape of augmentation charge: PSQ
     Using radial grid of 1191 points,  6 beta functions with: 
                l(1) =   0
                l(2) =   0
                l(3) =   1
                l(4) =   1
                l(5) =   2
                l(6) =   2
     Q(r) pseudized with 0 coefficients 


     PseudoPot. # 2 for N  read from file:
     ../../SSSP/N.pbe-n-radius_5.UPF
     MD5 check sum: 16739722b17309cd8fe442a2ace49922
     Pseudo is Ultrasoft + core correction, Zval =  5.0
     Generated using "atomic" code by A. Dal Corso v.5.1
     Using radial grid of 1085 points,  4 beta functions with: 
                l(1) =   0
                l(2) =   0
                l(3) =   1
                l(4) =   1
     Q(r) pseudized with 0 coefficients 


     PseudoPot. # 3 for H  read from file:
     ../../SSSP/H.pbe-rrkjus_psl.1.0.0.UPF
     MD5 check sum: f52b6d4d1c606e5624b1dc7b2218f220
     Pseudo is Ultrasoft, Zval =  1.0
     Generated using "atomic" code by A. Dal Corso v.5.1
     Using radial grid of  929 points,  2 beta functions with: 
                l(1) =   0
                l(2) =   0
     Q(r) pseudized with 0 coefficients 


     atomic species   valence    mass     pseudopotential
        Fe            16.00    55.84500     Fe( 1.00)
        N              5.00    14.00700     N ( 1.00)
        H              1.00     1.00800     H ( 1.00)

     Starting magnetic structure 
     atomic species   magnetization
        Fe           0.100
        N            0.100
        H            0.100

     No symmetry found



   Cartesian axes

     site n.     atom                  positions (alat units)
         1           Fe  tau(   1) = (   0.1666663   0.1178509   0.0000000  )
         2           Fe  tau(   2) = (   0.0000000   0.0000000   0.2041376  )
         3           Fe  tau(   3) = (   0.4999989   0.3535526   0.0000000  )
         4           Fe  tau(   4) = (   0.3333326   0.2357017   0.2041376  )
         5           Fe  tau(   5) = (   0.1688526   0.1178123   0.4052638  )
         6           Fe  tau(   6) = (   0.3343666   0.9422529   0.6043949  )
         7           Fe  tau(   7) = (   0.5011705   0.3549870   0.4070642  )
         8           Fe  tau(   8) = (   0.3393831   0.2351315   0.6052202  )
         9           Fe  tau(   9) = (   0.2499989   0.3535526   0.0000000  )
        10           Fe  tau(  10) = (   0.4166663   0.1178509   0.0000000  )
        11           Fe  tau(  11) = (   0.0833326   0.2357017   0.2041376  )
        12           Fe  tau(  12) = (   0.2500000   0.0000000   0.2041376  )
        13           Fe  tau(  13) = (   0.2500559   0.3534950   0.4069210  )
        14           Fe  tau(  14) = (   0.4191000   0.1196350   0.4061592  )
        15           Fe  tau(  15) = (   0.0871435   0.2338643   0.6041281  )
        16           Fe  tau(  16) = (   0.2514579   0.0011120   0.6053465  )
        17           Fe  tau(  17) = (   0.6666663   0.1178509   0.0000000  )
        18           Fe  tau(  18) = (   0.5000000   0.0000000   0.2041376  )
        19           Fe  tau(  19) = (   0.9999989   0.3535526   0.0000000  )
        20           Fe  tau(  20) = (   0.8333326   0.2357017   0.2041376  )
        21           Fe  tau(  21) = (   0.6683563   0.1185166   0.4070365  )
        22           Fe  tau(  22) = (   0.5013944   0.0059648   0.6052472  )
        23           Fe  tau(  23) = (   0.9987787   0.3520559   0.4068378  )
        24           Fe  tau(  24) = (   0.8424589   0.2228022   0.6027904  )
        25           Fe  tau(  25) = (   0.7499989   0.3535526   0.0000000  )
        26           Fe  tau(  26) = (   0.9166663   0.1178509   0.0000000  )
        27           Fe  tau(  27) = (   0.5833326   0.2357017   0.2041376  )
        28           Fe  tau(  28) = (   0.7500000   0.0000000   0.2041376  )
        29           Fe  tau(  29) = (   0.7499601   0.3535290   0.4028893  )
        30           Fe  tau(  30) = (   0.9185178   0.1150390   0.4041441  )
        31           Fe  tau(  31) = (   0.5928424   0.2424388   0.6092791  )
        32           Fe  tau(  32) = (   1.0845617   0.9388154   0.6041901  )
        33           Fe  tau(  33) = (   0.3333315   0.5892543   0.0000000  )
        34           Fe  tau(  34) = (   0.1666652   0.4714034   0.2041376  )
        35           Fe  tau(  35) = (   0.6666640   0.8249560   0.0000000  )
        36           Fe  tau(  36) = (   0.4999978   0.7071052   0.2041376  )
        37           Fe  tau(  37) = (   0.3312301   0.5893346   0.4055736  )
        38           Fe  tau(  38) = (   1.1607807   0.4712720   0.6048225  )
        39           Fe  tau(  39) = (   0.6673353   0.8270823   0.4052856  )
        40           Fe  tau(  40) = (   0.4998026   0.7083523   0.6043520  )
        41           Fe  tau(  41) = (   0.4166640   0.8249560   0.0000000  )
        42           Fe  tau(  42) = (   0.5833315   0.5892543   0.0000000  )
        43           Fe  tau(  43) = (   1.2499978   0.7071052   0.2041376  )
        44           Fe  tau(  44) = (   0.4166652   0.4714034   0.2041376  )
        45           Fe  tau(  45) = (   0.4165428   0.8249182   0.4043922  )
        46           Fe  tau(  46) = (   0.5812921   0.5919617   0.4041411  )
        47           Fe  tau(  47) = (   1.2473904   0.7053047   0.6055422  )
        48           Fe  tau(  48) = (   0.4132843   0.4739990   0.6042619  )
        49           Fe  tau(  49) = (   0.8333315   0.5892543   0.0000000  )
        50           Fe  tau(  50) = (   0.6666652   0.4714034   0.2041376  )
        51           Fe  tau(  51) = (   1.1666640   0.8249560   0.0000000  )
        52           Fe  tau(  52) = (   0.9999978   0.7071052   0.2041376  )
        53           Fe  tau(  53) = (   0.8314839   0.5886441   0.4068646  )
        54           Fe  tau(  54) = (   0.6575280   0.4843558   0.6027900  )
        55           Fe  tau(  55) = (   1.1660113   0.8229814   0.4055641  )
        56           Fe  tau(  56) = (   0.9978793   0.7016247   0.6048225  )
        57           Fe  tau(  57) = (   0.9166640   0.8249560   0.0000000  )
        58           Fe  tau(  58) = (   1.0833315   0.5892543   0.0000000  )
        59           Fe  tau(  59) = (   0.7499978   0.7071052   0.2041376  )
        60           Fe  tau(  60) = (   0.9166652   0.4714034   0.2041376  )
        61           Fe  tau(  61) = (   0.9165956   0.8250802   0.4069362  )
        62           Fe  tau(  62) = (   1.0808343   0.5875346   0.4059196  )
        63           Fe  tau(  63) = (   0.7494961   0.7113818   0.6041901  )
        64           Fe  tau(  64) = (   0.9074158   0.4648707   0.6092031  )
        65           N   tau(  65) = (   0.7500994   0.3536582   0.7047786  )
        66           H   tau(  66) = (   0.7502549   0.3537961   0.8083370  )
        67           H   tau(  67) = (   0.4593157   0.8551593   0.6989822  )

     number of k points=    10  Methfessel-Paxton smearing, width (Ry)=  0.0100
                       cart. coord. in units 2pi/alat
        k(    1) = (   0.0000000   0.0000000   0.0000000), wk =   0.0625000
        k(    2) = (   0.0000000   0.2651656   0.0000000), wk =   0.1250000
        k(    3) = (   0.0000000  -0.5303313   0.0000000), wk =   0.0625000
        k(    4) = (   0.2500000  -0.0883878   0.0000000), wk =   0.1250000
        k(    5) = (   0.2500000   0.1767779   0.0000000), wk =   0.1250000
        k(    6) = (   0.2500000  -0.6187190   0.0000000), wk =   0.1250000
        k(    7) = (   0.2500000  -0.3535534   0.0000000), wk =   0.1250000
        k(    8) = (  -0.5000000   0.1767755   0.0000000), wk =   0.0625000
        k(    9) = (  -0.5000000   0.4419412   0.0000000), wk =   0.1250000
        k(   10) = (  -0.5000000  -0.3535558   0.0000000), wk =   0.0625000

     Dense  grid:  2905599 G-vectors     FFT dimensions: ( 135, 135, 360)

     Smooth grid:  1027285 G-vectors     FFT dimensions: (  96,  96, 243)

     Estimated max dynamical RAM per process >       1.01 GB

     Estimated total dynamical RAM >     162.06 GB
     Generating pointlists ...
     new r_m :   0.0740 (alat units)  1.3877 (a.u.) for type    1
     new r_m :   0.0427 (alat units)  0.8016 (a.u.) for type    2
     new r_m :   0.0427 (alat units)  0.8016 (a.u.) for type    3

     Check: negative core charge=   -0.000039

     Initial potential from superposition of free atoms

     starting charge 1030.97192, renormalised to 1031.00000

     negative rho (up, down):  2.445E-02 2.518E-03
     Starting wfcs are  838 randomized atomic wfcs
     Checking if some PAW data can be deallocated... 

     total cpu time spent up to now is       88.4 secs

     Self-consistent Calculation

     iteration #  1     ecut=    60.00 Ry     beta= 0.20
     Davidson diagonalization with overlap
     c_bands:  1 eigenvalues not converged
     ethr =  1.00E-04,  avg # of iterations = 17.9

     negative rho (up, down):  1.254E-02 3.286E-03

     total cpu time spent up to now is     1093.0 secs

     total energy              =  -21088.76402903 Ry
     Harris-Foulkes estimate   =  -21097.23473682 Ry
     estimated scf accuracy    <     431.29732801 Ry

     total magnetization       =   102.53 Bohr mag/cell
     absolute magnetization    =   103.55 Bohr mag/cell

     iteration #  2     ecut=    60.00 Ry     beta= 0.20
     Davidson diagonalization with overlap
     ethr =  1.00E-02,  avg # of iterations =  1.0

     negative rho (up, down):  1.029E-02 4.294E-02

     total cpu time spent up to now is     1227.0 secs

     total energy              =  -21093.09541092 Ry
     Harris-Foulkes estimate   =  -21096.72970536 Ry
     estimated scf accuracy    <     194.46792204 Ry

     total magnetization       =   101.04 Bohr mag/cell
     absolute magnetization    =   102.31 Bohr mag/cell

     iteration #  3     ecut=    60.00 Ry     beta= 0.20
     Davidson diagonalization with overlap
     ethr =  1.00E-02,  avg # of iterations =  1.0

     negative rho (up, down):  5.635E-03 2.362E-02

     total cpu time spent up to now is     1360.7 secs

     total energy              =  -21094.91674985 Ry
     Harris-Foulkes estimate   =  -21095.02525394 Ry
     estimated scf accuracy    <      10.78523200 Ry

     total magnetization       =   131.68 Bohr mag/cell
     absolute magnetization    =   132.13 Bohr mag/cell

     iteration #  4     ecut=    60.00 Ry     beta= 0.20
     Davidson diagonalization with overlap
     ethr =  1.05E-03,  avg # of iterations =  1.0

     negative rho (up, down):  3.885E-03 2.156E-02

     total cpu time spent up to now is     1492.6 secs

     total energy              =  -21094.96019018 Ry
     Harris-Foulkes estimate   =  -21095.00149097 Ry
     estimated scf accuracy    <      15.88351552 Ry

     total magnetization       =   137.74 Bohr mag/cell
     absolute magnetization    =   138.25 Bohr mag/cell

     iteration #  5     ecut=    60.00 Ry     beta= 0.20
     Davidson diagonalization with overlap
     ethr =  1.05E-03,  avg # of iterations =  1.0

     negative rho (up, down):  1.785E-02 1.907E-01

     total cpu time spent up to now is     1629.1 secs

     total energy              =  -21093.36208925 Ry
     Harris-Foulkes estimate   =  -21094.98692923 Ry
     estimated scf accuracy    <      16.60358516 Ry

     total magnetization       =   140.47 Bohr mag/cell
     absolute magnetization    =   141.07 Bohr mag/cell

     iteration #  6     ecut=    60.00 Ry     beta= 0.20
     Davidson diagonalization with overlap
     ethr =  1.05E-03,  avg # of iterations =  5.9

     negative rho (up, down):  7.358E-03 1.294E-01

     total cpu time spent up to now is     1824.2 secs

     total energy              =  -21094.16105788 Ry
     Harris-Foulkes estimate   =  -21094.22414381 Ry
     estimated scf accuracy    <       4.69230452 Ry

     total magnetization       =   154.62 Bohr mag/cell
     absolute magnetization    =   156.97 Bohr mag/cell

     iteration #  7     ecut=    60.00 Ry     beta= 0.20
     Davidson diagonalization with overlap
     ethr =  4.55E-04,  avg # of iterations =  8.8

     negative rho (up, down):  1.667E-03 5.597E-02

     total cpu time spent up to now is     2097.3 secs

     total energy              =  -21094.50201355 Ry
     Harris-Foulkes estimate   =  -21094.47244559 Ry
     estimated scf accuracy    <       0.86687062 Ry

     total magnetization       =   151.75 Bohr mag/cell
     absolute magnetization    =   154.88 Bohr mag/cell

     iteration #  8     ecut=    60.00 Ry     beta= 0.20
     Davidson diagonalization with overlap
     ethr =  8.41E-05,  avg # of iterations = 18.1

     negative rho (up, down):  4.784E-04 3.158E-02

     total cpu time spent up to now is     3023.9 secs

     total energy              =  -21094.95440752 Ry
     Harris-Foulkes estimate   =  -21095.18852270 Ry
     estimated scf accuracy    <       3.83235891 Ry

     total magnetization       =   149.98 Bohr mag/cell
     absolute magnetization    =   155.89 Bohr mag/cell

     iteration #  9     ecut=    60.00 Ry     beta= 0.20
     Davidson diagonalization with overlap
     ethr =  8.41E-05,  avg # of iterations =  2.4

     negative rho (up, down):  2.295E-04 1.664E-02

     total cpu time spent up to now is     3191.6 secs

     total energy              =  -21095.00210567 Ry
     Harris-Foulkes estimate   =  -21095.02819813 Ry
     estimated scf accuracy    <       0.48100102 Ry

     total magnetization       =   149.90 Bohr mag/cell
     absolute magnetization    =   155.08 Bohr mag/cell

     iteration # 10     ecut=    60.00 Ry     beta= 0.20
     Davidson diagonalization with overlap
     ethr =  4.67E-05,  avg # of iterations =  3.2

     negative rho (up, down):  2.706E-04 2.268E-02

     total cpu time spent up to now is     3364.4 secs

     total energy              =  -21094.99920951 Ry
     Harris-Foulkes estimate   =  -21095.01625251 Ry
     estimated scf accuracy    <       0.33762021 Ry

     total magnetization       =   150.58 Bohr mag/cell
     absolute magnetization    =   155.57 Bohr mag/cell

     iteration # 11     ecut=    60.00 Ry     beta= 0.20
     Davidson diagonalization with overlap
     ethr =  3.27E-05,  avg # of iterations =  5.7

     negative rho (up, down):  1.989E-04 1.996E-02

     total cpu time spent up to now is     3559.0 secs

     total energy              =  -21095.03684655 Ry
     Harris-Foulkes estimate   =  -21095.05118016 Ry
     estimated scf accuracy    <       0.34758286 Ry

     total magnetization       =   155.64 Bohr mag/cell
     absolute magnetization    =   160.75 Bohr mag/cell

     iteration # 12     ecut=    60.00 Ry     beta= 0.20
     Davidson diagonalization with overlap
     ethr =  3.27E-05,  avg # of iterations =  1.0

     negative rho (up, down):  8.597E-05 1.810E-02

     total cpu time spent up to now is     3692.5 secs

     total energy              =  -21095.02366639 Ry
     Harris-Foulkes estimate   =  -21095.04762534 Ry
     estimated scf accuracy    <       0.20919243 Ry

     total magnetization       =   157.64 Bohr mag/cell
     absolute magnetization    =   162.75 Bohr mag/cell

     iteration # 13     ecut=    60.00 Ry     beta= 0.20
     Davidson diagonalization with overlap
     ethr =  2.03E-05,  avg # of iterations =  4.0

     negative rho (up, down):  9.466E-05 2.194E-02

     total cpu time spent up to now is     3868.5 secs

     total energy              =  -21095.01658228 Ry
     Harris-Foulkes estimate   =  -21095.03632113 Ry
     estimated scf accuracy    <       0.35726173 Ry

     total magnetization       =   159.31 Bohr mag/cell
     absolute magnetization    =   164.45 Bohr mag/cell

     iteration # 14     ecut=    60.00 Ry     beta= 0.20
     Davidson diagonalization with overlap
     ethr =  2.03E-05,  avg # of iterations =  6.2

     negative rho (up, down):  3.068E-04 2.671E-02

     total cpu time spent up to now is     4071.0 secs

     total energy              =  -21095.02058592 Ry
     Harris-Foulkes estimate   =  -21095.02799633 Ry
     estimated scf accuracy    <       0.10225861 Ry

     total magnetization       =   159.64 Bohr mag/cell
     absolute magnetization    =   164.88 Bohr mag/cell

     iteration # 15     ecut=    60.00 Ry     beta= 0.20
     Davidson diagonalization with overlap
     c_bands:  2 eigenvalues not converged
     c_bands:  1 eigenvalues not converged
     c_bands:  3 eigenvalues not converged
     ethr =  9.92E-06,  avg # of iterations = 19.1

     negative rho (up, down):  1.310E-03 2.415E-02

     total cpu time spent up to now is     4714.4 secs

     total energy              =  -21095.03528813 Ry
     Harris-Foulkes estimate   =  -21095.03948454 Ry
     estimated scf accuracy    <       0.11990072 Ry

     total magnetization       =   160.16 Bohr mag/cell
     absolute magnetization    =   166.15 Bohr mag/cell

     iteration # 16     ecut=    60.00 Ry     beta= 0.20
     Davidson diagonalization with overlap
     c_bands:  1 eigenvalues not converged
     ethr =  9.92E-06,  avg # of iterations =  7.7

     negative rho (up, down):  1.552E-01 3.060E-02

     total cpu time spent up to now is     4963.7 secs

     total energy              =  -21095.02064462 Ry
     Harris-Foulkes estimate   =  -21095.03974481 Ry
     estimated scf accuracy    <       0.14923461 Ry

     total magnetization       =   161.15 Bohr mag/cell
     absolute magnetization    =   167.17 Bohr mag/cell

     iteration # 17     ecut=    60.00 Ry     beta= 0.20
     Davidson diagonalization with overlap
     ethr =  9.92E-06,  avg # of iterations =  5.4

     negative rho (up, down):  1.727E-01 3.326E-02

     total cpu time spent up to now is     5202.1 secs

     total energy              =  -21095.00881237 Ry
     Harris-Foulkes estimate   =  -21095.02421458 Ry
     estimated scf accuracy    <       0.11565400 Ry

     total magnetization       =   161.34 Bohr mag/cell
     absolute magnetization    =   167.33 Bohr mag/cell

     iteration # 18     ecut=    60.00 Ry     beta= 0.20
     Davidson diagonalization with overlap
     ethr =  9.92E-06,  avg # of iterations =  5.0

     negative rho (up, down):  1.808E-01 2.224E-02

     total cpu time spent up to now is     5409.6 secs

     total energy              =  -21094.99623343 Ry
     Harris-Foulkes estimate   =  -21095.01300968 Ry
     estimated scf accuracy    <       0.05831871 Ry

     total magnetization       =   160.94 Bohr mag/cell
     absolute magnetization    =   166.95 Bohr mag/cell

     iteration # 19     ecut=    60.00 Ry     beta= 0.20
     Davidson diagonalization with overlap
     c_bands:  3 eigenvalues not converged
     ethr =  5.66E-06,  avg # of iterations = 16.1

     negative rho (up, down):  1.376E-01 1.629E-02

     total cpu time spent up to now is     5952.7 secs

     total energy              =  -21095.00133697 Ry
     Harris-Foulkes estimate   =  -21095.00859544 Ry
     estimated scf accuracy    <       0.03086752 Ry

     total magnetization       =   160.66 Bohr mag/cell
     absolute magnetization    =   166.99 Bohr mag/cell

     iteration # 20     ecut=    60.00 Ry     beta= 0.20
     Davidson diagonalization with overlap
     c_bands:  1 eigenvalues not converged
     c_bands:  2 eigenvalues not converged
     c_bands:  1 eigenvalues not converged
     ethr =  2.99E-06,  avg # of iterations = 17.6

     negative rho (up, down):  1.075E-01 2.236E-02

     total cpu time spent up to now is     6533.2 secs

     total energy              =  -21094.98075175 Ry
     Harris-Foulkes estimate   =  -21095.00619201 Ry
     estimated scf accuracy    <       0.02584244 Ry

     total magnetization       =   160.46 Bohr mag/cell
     absolute magnetization    =   166.96 Bohr mag/cell

     iteration # 21     ecut=    60.00 Ry     beta= 0.20
     Davidson diagonalization with overlap
     c_bands:  1 eigenvalues not converged
     c_bands:  2 eigenvalues not converged
     ethr =  2.51E-06,  avg # of iterations = 20.3

     negative rho (up, down):  1.536E-01 1.849E-02

     total cpu time spent up to now is     7496.0 secs

     total energy              =  -21094.97742537 Ry
     Harris-Foulkes estimate   =  -21094.99068378 Ry
     estimated scf accuracy    <       0.04959518 Ry

     total magnetization       =   160.16 Bohr mag/cell
     absolute magnetization    =   167.02 Bohr mag/cell

     iteration # 22     ecut=    60.00 Ry     beta= 0.20
     Davidson diagonalization with overlap
     ethr =  2.51E-06,  avg # of iterations =  9.1

     negative rho (up, down):  1.596E-01 1.749E-02

     total cpu time spent up to now is     7780.5 secs

     total energy              =  -21094.97593030 Ry
     Harris-Foulkes estimate   =  -21094.97979177 Ry
     estimated scf accuracy    <       0.01329810 Ry

     total magnetization       =   160.45 Bohr mag/cell
     absolute magnetization    =   167.27 Bohr mag/cell

     iteration # 23     ecut=    60.00 Ry     beta= 0.20
     Davidson diagonalization with overlap
     ethr =  1.29E-06,  avg # of iterations =  5.8

     negative rho (up, down):  1.343E-01 1.631E-02

     total cpu time spent up to now is     8013.7 secs

     total energy              =  -21094.97857798 Ry
     Harris-Foulkes estimate   =  -21094.97804266 Ry
     estimated scf accuracy    <       0.00663646 Ry

     total magnetization       =   160.63 Bohr mag/cell
     absolute magnetization    =   167.44 Bohr mag/cell

     iteration # 24     ecut=    60.00 Ry     beta= 0.20
     Davidson diagonalization with overlap
     ethr =  6.44E-07,  avg # of iterations =  5.6

     negative rho (up, down):  7.777E-02 1.838E-02

     total cpu time spent up to now is     8228.8 secs

     total energy              =  -21094.97766256 Ry
     Harris-Foulkes estimate   =  -21094.97929524 Ry
     estimated scf accuracy    <       0.00489062 Ry

     total magnetization       =   160.64 Bohr mag/cell
     absolute magnetization    =   167.42 Bohr mag/cell

     iteration # 25     ecut=    60.00 Ry     beta= 0.20
     Davidson diagonalization with overlap
     ethr =  4.74E-07,  avg # of iterations =  8.2

     negative rho (up, down):  7.353E-02 1.707E-02

     total cpu time spent up to now is     8470.9 secs

     total energy              =  -21094.97673417 Ry
     Harris-Foulkes estimate   =  -21094.97827835 Ry
     estimated scf accuracy    <       0.00308285 Ry

     total magnetization       =   160.40 Bohr mag/cell
     absolute magnetization    =   167.16 Bohr mag/cell

     iteration # 26     ecut=    60.00 Ry     beta= 0.20
     Davidson diagonalization with overlap
     ethr =  2.99E-07,  avg # of iterations =  8.2

     negative rho (up, down):  4.028E-02 1.812E-02

     total cpu time spent up to now is     8733.7 secs

     total energy              =  -21094.97901788 Ry
     Harris-Foulkes estimate   =  -21094.97713254 Ry
     estimated scf accuracy    <       0.00139496 Ry

     total magnetization       =   160.39 Bohr mag/cell
     absolute magnetization    =   167.15 Bohr mag/cell

     iteration # 27     ecut=    60.00 Ry     beta= 0.20
     Davidson diagonalization with overlap
     ethr =  1.35E-07,  avg # of iterations = 13.3

     negative rho (up, down):  3.395E-02 1.846E-02

     total cpu time spent up to now is     9299.7 secs

     total energy              =  -21094.98021546 Ry
     Harris-Foulkes estimate   =  -21094.97957403 Ry
     estimated scf accuracy    <       0.00055713 Ry

     total magnetization       =   160.43 Bohr mag/cell
     absolute magnetization    =   167.14 Bohr mag/cell

     iteration # 28     ecut=    60.00 Ry     beta= 0.20
     Davidson diagonalization with overlap
     ethr =  5.40E-08,  avg # of iterations =  8.8

     negative rho (up, down):  3.025E-02 1.836E-02

     total cpu time spent up to now is     9728.7 secs

     total energy              =  -21094.98040891 Ry
     Harris-Foulkes estimate   =  -21094.98038914 Ry
     estimated scf accuracy    <       0.00022700 Ry

     total magnetization       =   160.53 Bohr mag/cell
     absolute magnetization    =   167.25 Bohr mag/cell

     iteration # 29     ecut=    60.00 Ry     beta= 0.20
     Davidson diagonalization with overlap
     ethr =  2.20E-08,  avg # of iterations =  8.2

     negative rho (up, down):  2.735E-02 1.866E-02

     total cpu time spent up to now is    10078.0 secs

     total energy              =  -21094.97996813 Ry
     Harris-Foulkes estimate   =  -21094.98046165 Ry
     estimated scf accuracy    <       0.00012878 Ry

     total magnetization       =   160.54 Bohr mag/cell
     absolute magnetization    =   167.28 Bohr mag/cell

     iteration # 30     ecut=    60.00 Ry     beta= 0.20
     Davidson diagonalization with overlap
     ethr =  1.25E-08,  avg # of iterations =  7.5

     negative rho (up, down):  2.652E-02 1.875E-02

     total cpu time spent up to now is    10439.0 secs

     total energy              =  -21094.97947176 Ry
     Harris-Foulkes estimate   =  -21094.97999291 Ry
     estimated scf accuracy    <       0.00007514 Ry

     total magnetization       =   160.53 Bohr mag/cell
     absolute magnetization    =   167.29 Bohr mag/cell

     iteration # 31     ecut=    60.00 Ry     beta= 0.20
     Davidson diagonalization with overlap
     ethr =  7.29E-09,  avg # of iterations =  8.3

     negative rho (up, down):  2.507E-02 1.873E-02

     total cpu time spent up to now is    10735.3 secs

     total energy              =  -21094.97925314 Ry
     Harris-Foulkes estimate   =  -21094.97948937 Ry
     estimated scf accuracy    <       0.00004563 Ry

     total magnetization       =   160.53 Bohr mag/cell
     absolute magnetization    =   167.30 Bohr mag/cell

     iteration # 32     ecut=    60.00 Ry     beta= 0.20
     Davidson diagonalization with overlap
     ethr =  4.43E-09,  avg # of iterations =  8.7

     negative rho (up, down):  2.320E-02 1.860E-02

     total cpu time spent up to now is    11017.5 secs

     total energy              =  -21094.97854738 Ry
     Harris-Foulkes estimate   =  -21094.97926212 Ry
     estimated scf accuracy    <       0.00002733 Ry

     total magnetization       =   160.53 Bohr mag/cell
     absolute magnetization    =   167.30 Bohr mag/cell

     iteration # 33     ecut=    60.00 Ry     beta= 0.20
     Davidson diagonalization with overlap
     ethr =  2.65E-09,  avg # of iterations =  8.8

     negative rho (up, down):  2.365E-02 1.860E-02

     total cpu time spent up to now is    11423.0 secs

     total energy              =  -21094.97749255 Ry
     Harris-Foulkes estimate   =  -21094.97855750 Ry
     estimated scf accuracy    <       0.00002086 Ry

     total magnetization       =   160.54 Bohr mag/cell
     absolute magnetization    =   167.31 Bohr mag/cell

     iteration # 34     ecut=    60.00 Ry     beta= 0.20
     Davidson diagonalization with overlap
     ethr =  2.02E-09,  avg # of iterations =  6.2

     negative rho (up, down):  2.469E-02 1.870E-02

     total cpu time spent up to now is    11837.7 secs

     total energy              =  -21094.97703117 Ry
     Harris-Foulkes estimate   =  -21094.97749952 Ry
     estimated scf accuracy    <       0.00000919 Ry

     total magnetization       =   160.56 Bohr mag/cell
     absolute magnetization    =   167.34 Bohr mag/cell

     iteration # 35     ecut=    60.00 Ry     beta= 0.20
     Davidson diagonalization with overlap
     ethr =  8.92E-10,  avg # of iterations =  8.4

     negative rho (up, down):  2.514E-02 1.870E-02

     total cpu time spent up to now is    12112.0 secs

     total energy              =  -21094.97694679 Ry
     Harris-Foulkes estimate   =  -21094.97703322 Ry
     estimated scf accuracy    <       0.00000147 Ry

     total magnetization       =   160.56 Bohr mag/cell
     absolute magnetization    =   167.34 Bohr mag/cell

     iteration # 36     ecut=    60.00 Ry     beta= 0.20
     Davidson diagonalization with overlap
     ethr =  1.42E-10,  avg # of iterations = 12.1

     negative rho (up, down):  2.515E-02 1.869E-02

     total cpu time spent up to now is    12863.0 secs

     total energy              =  -21094.97693015 Ry
     Harris-Foulkes estimate   =  -21094.97694843 Ry
     estimated scf accuracy    <       0.00000074 Ry

     total magnetization       =   160.56 Bohr mag/cell
     absolute magnetization    =   167.34 Bohr mag/cell

     iteration # 37     ecut=    60.00 Ry     beta= 0.20
     Davidson diagonalization with overlap
     ethr =  7.14E-11,  avg # of iterations =  7.4

     negative rho (up, down):  2.521E-02 1.870E-02

     total cpu time spent up to now is    13077.5 secs

     total energy              =  -21094.97685183 Ry
     Harris-Foulkes estimate   =  -21094.97693020 Ry
     estimated scf accuracy    <       0.00000055 Ry

     total magnetization       =   160.56 Bohr mag/cell
     absolute magnetization    =   167.35 Bohr mag/cell

     iteration # 38     ecut=    60.00 Ry     beta= 0.20
     Davidson diagonalization with overlap
     ethr =  5.31E-11,  avg # of iterations =  8.2

     negative rho (up, down):  2.505E-02 1.870E-02

     total cpu time spent up to now is    13281.5 secs

     total energy              =  -21094.97681873 Ry
     Harris-Foulkes estimate   =  -21094.97685187 Ry
     estimated scf accuracy    <       0.00000027 Ry

     total magnetization       =   160.56 Bohr mag/cell
     absolute magnetization    =   167.35 Bohr mag/cell

     iteration # 39     ecut=    60.00 Ry     beta= 0.20
     Davidson diagonalization with overlap
     ethr =  2.65E-11,  avg # of iterations =  9.4

     negative rho (up, down):  2.503E-02 1.870E-02

     total cpu time spent up to now is    14050.6 secs

     total energy              =  -21094.97681982 Ry
     Harris-Foulkes estimate   =  -21094.97681887 Ry
     estimated scf accuracy    <       0.00000012 Ry

     total magnetization       =   160.57 Bohr mag/cell
     absolute magnetization    =   167.35 Bohr mag/cell

     iteration # 40     ecut=    60.00 Ry     beta= 0.20
     Davidson diagonalization with overlap
     ethr =  1.18E-11,  avg # of iterations =  5.9

     negative rho (up, down):  2.495E-02 1.872E-02

     total cpu time spent up to now is    14275.3 secs

     total energy              =  -21094.97682384 Ry
     Harris-Foulkes estimate   =  -21094.97681980 Ry
     estimated scf accuracy    <       0.00000009 Ry

     total magnetization       =   160.57 Bohr mag/cell
     absolute magnetization    =   167.35 Bohr mag/cell

     iteration # 41     ecut=    60.00 Ry     beta= 0.20
     Davidson diagonalization with overlap
     ethr =  8.32E-12,  avg # of iterations =  3.3

     negative rho (up, down):  2.491E-02 1.874E-02

     total cpu time spent up to now is    14437.9 secs

     total energy              =  -21094.97683469 Ry
     Harris-Foulkes estimate   =  -21094.97682384 Ry
     estimated scf accuracy    <       0.00000004 Ry

     total magnetization       =   160.57 Bohr mag/cell
     absolute magnetization    =   167.35 Bohr mag/cell

     iteration # 42     ecut=    60.00 Ry     beta= 0.20
     Davidson diagonalization with overlap
     ethr =  3.65E-12,  avg # of iterations =  9.6

     negative rho (up, down):  2.493E-02 1.872E-02

     Magnetic moment per site:
     atom:    1    charge:   12.6096    magn:    2.3584    constr:    0.0000
     atom:    2    charge:   12.5995    magn:    2.1945    constr:    0.0000
     atom:    3    charge:   12.6097    magn:    2.3615    constr:    0.0000
     atom:    4    charge:   12.5972    magn:    2.1933    constr:    0.0000
     atom:    5    charge:   12.6003    magn:    2.1928    constr:    0.0000
     atom:    6    charge:   12.6081    magn:    2.1991    constr:    0.0000
     atom:    7    charge:   12.5971    magn:    2.1785    constr:    0.0000
     atom:    8    charge:   12.6040    magn:    2.3737    constr:    0.0000
     atom:    9    charge:   12.6102    magn:    2.3518    constr:    0.0000
     atom:   10    charge:   12.6095    magn:    2.3633    constr:    0.0000
     atom:   11    charge:   12.5975    magn:    2.2049    constr:    0.0000
     atom:   12    charge:   12.5987    magn:    2.1933    constr:    0.0000
     atom:   13    charge:   12.5972    magn:    2.1905    constr:    0.0000
     atom:   14    charge:   12.6006    magn:    2.1292    constr:    0.0000
     atom:   15    charge:   12.6100    magn:    2.3274    constr:    0.0000
     atom:   16    charge:   12.6067    magn:    2.2466    constr:    0.0000
     atom:   17    charge:   12.6096    magn:    2.3614    constr:    0.0000
     atom:   18    charge:   12.5972    magn:    2.1934    constr:    0.0000
     atom:   19    charge:   12.6097    magn:    2.3622    constr:    0.0000
     atom:   20    charge:   12.5984    magn:    2.1985    constr:    0.0000
     atom:   21    charge:   12.5970    magn:    2.1782    constr:    0.0000
     atom:   22    charge:   12.6039    magn:    2.3738    constr:    0.0000
     atom:   23    charge:   12.5971    magn:    2.1767    constr:    0.0000
     atom:   24    charge:   12.6044    magn:    1.8726    constr:    0.0000
     atom:   25    charge:   12.6098    magn:    2.3757    constr:    0.0000
     atom:   26    charge:   12.6097    magn:    2.3537    constr:    0.0000
     atom:   27    charge:   12.5965    magn:    2.1940    constr:    0.0000
     atom:   28    charge:   12.5973    magn:    2.2027    constr:    0.0000
     atom:   29    charge:   12.6021    magn:    2.2259    constr:    0.0000
     atom:   30    charge:   12.5997    magn:    2.1112    constr:    0.0000
     atom:   31    charge:   12.6014    magn:    2.2351    constr:    0.0000
     atom:   32    charge:   12.6093    magn:    2.3276    constr:    0.0000
     atom:   33    charge:   12.6096    magn:    2.3592    constr:    0.0000
     atom:   34    charge:   12.5972    magn:    2.1879    constr:    0.0000
     atom:   35    charge:   12.6096    magn:    2.3584    constr:    0.0000
     atom:   36    charge:   12.5998    magn:    2.1947    constr:    0.0000
     atom:   37    charge:   12.6004    magn:    2.1794    constr:    0.0000
     atom:   38    charge:   12.6054    magn:    2.3559    constr:    0.0000
     atom:   39    charge:   12.6001    magn:    2.1932    constr:    0.0000
     atom:   40    charge:   12.6081    magn:    2.1989    constr:    0.0000
     atom:   41    charge:   12.6093    magn:    2.3680    constr:    0.0000
     atom:   42    charge:   12.6102    magn:    2.3538    constr:    0.0000
     atom:   43    charge:   12.5983    magn:    2.1961    constr:    0.0000
     atom:   44    charge:   12.5973    magn:    2.2027    constr:    0.0000
     atom:   45    charge:   12.6005    magn:    2.1856    constr:    0.0000
     atom:   46    charge:   12.5997    magn:    2.1110    constr:    0.0000
     atom:   47    charge:   12.6089    magn:    2.3771    constr:    0.0000
     atom:   48    charge:   12.6093    magn:    2.3278    constr:    0.0000
     atom:   49    charge:   12.6098    magn:    2.3623    constr:    0.0000
     atom:   50    charge:   12.5990    magn:    2.1987    constr:    0.0000
     atom:   51    charge:   12.6097    magn:    2.3592    constr:    0.0000
     atom:   52    charge:   12.5972    magn:    2.1880    constr:    0.0000
     atom:   53    charge:   12.5972    magn:    2.1770    constr:    0.0000
     atom:   54    charge:   12.6039    magn:    1.8728    constr:    0.0000
     atom:   55    charge:   12.6007    magn:    2.1792    constr:    0.0000
     atom:   56    charge:   12.6054    magn:    2.3559    constr:    0.0000
     atom:   57    charge:   12.6102    magn:    2.3518    constr:    0.0000
     atom:   58    charge:   12.6094    magn:    2.3633    constr:    0.0000
     atom:   59    charge:   12.5975    magn:    2.2050    constr:    0.0000
     atom:   60    charge:   12.5965    magn:    2.1951    constr:    0.0000
     atom:   61    charge:   12.5972    magn:    2.1907    constr:    0.0000
     atom:   62    charge:   12.6004    magn:    2.1386    constr:    0.0000
     atom:   63    charge:   12.6099    magn:    2.3276    constr:    0.0000
     atom:   64    charge:   12.6009    magn:    2.2418    constr:    0.0000
     atom:   65    charge:    1.3297    magn:   -0.0317    constr:    0.0000
     atom:   66    charge:    0.4397    magn:    0.0067    constr:    0.0000
     atom:   67    charge:    0.3546    magn:   -0.0202    constr:    0.0000

     total cpu time spent up to now is    15036.2 secs

     End of self-consistent calculation

 ------ SPIN UP ------------


          k = 0.0000 0.0000 0.0000 (128403 PWs)   bands (ev):

   -90.8173 -90.8102 -90.7793 -90.7760 -90.7746 -90.7745 -90.7605 -90.7591
   -90.7539 -90.7510 -90.7492 -90.7478 -90.7474 -90.7443 -90.7386 -90.7384
   -90.7380 -90.7305 -90.7293 -90.7286 -90.7277 -90.7238 -90.7234 -90.7204
   -90.7179 -90.7153 -90.7117 -90.6972 -90.6834 -90.6777 -90.6755 -90.6730
   -90.6595 -90.6393 -90.6271 -90.6252 -90.6231 -90.6199 -90.6150 -90.6119
   -90.6050 -90.6048 -90.6038 -90.6014 -90.6005 -90.5983 -90.5978 -90.5967
   -90.5962 -90.5933 -90.5925 -90.5911 -90.5899 -90.5887 -90.5858 -90.5838
   -90.5795 -90.5784 -90.5756 -90.5731 -90.5693 -90.5663 -90.5545 -90.5486
   -57.0047 -56.9930 -56.9727 -56.9653 -56.9614 -56.9574 -56.9569 -56.9505
   -56.9500 -56.9480 -56.9426 -56.9403 -56.9391 -56.9373 -56.9343 -56.9338
   -56.9324 -56.9288 -56.9248 -56.9246 -56.9224 -56.9206 -56.9197 -56.9192
   -56.9150 -56.9138 -56.9137 -56.9049 -56.9014 -56.8994 -56.8947 -56.8889
   -56.8862 -56.8821 -56.8807 -56.8750 -56.8709 -56.8697 -56.8629 -56.8593
   -56.8574 -56.8570 -56.8570 -56.8557 -56.8503 -56.8435 -56.8271 -56.8170
   -56.8052 -56.8040 -56.8026 -56.7976 -56.7941 -56.7894 -56.7892 -56.7856
   -56.7831 -56.7820 -56.7806 -56.7797 -56.7792 -56.7762 -56.7759 -56.7714
   -56.7700 -56.7665 -56.7650 -56.7610 -56.7608 -56.7587 -56.7563 -56.7547
   -56.7522 -56.7446 -56.7438 -56.7387 -56.7348 -56.7332 -56.7282 -56.7277
   -56.7262 -56.7223 -56.7217 -56.7161 -56.7161 -56.7152 -56.7141 -56.7137
   -56.7122 -56.7104 -56.7093 -56.7055 -56.7040 -56.7033 -56.7020 -56.6984
   -56.6982 -56.6970 -56.6944 -56.6880 -56.6867 -56.6812 -56.6767 -56.6767
   -56.6735 -56.6721 -56.6698 -56.6661 -56.6644 -56.6635 -56.6634 -56.6598
   -56.6595 -56.6568 -56.6536 -56.6506 -56.6496 -56.6489 -56.6456 -56.6430
   -56.6424 -56.6400 -56.6389 -56.6373 -56.6362 -56.6359 -56.6352 -56.6347
   -56.6336 -56.6318 -56.6288 -56.6215 -56.6188 -56.6186 -56.6168 -56.6158
   -56.6109 -56.6093 -56.6090 -56.6021 -56.6011 -56.6005 -56.5983 -56.5981
   -56.5978 -56.5961 -56.5816 -56.5809 -56.5809 -56.5762 -56.5727 -56.5706
   -56.5703 -56.5661 -56.5596 -56.5591 -56.5575 -56.5560 -56.5544 -56.5528
   -56.5523 -56.5510 -56.5464 -56.5450 -56.5443 -56.5437 -56.5398 -56.5397
   -56.5345 -56.5335 -56.5323 -56.5284 -56.5237 -56.5182 -56.5177 -56.5161
   -56.5144 -56.5143 -56.5067 -56.5064 -56.5048 -56.5015 -56.4974 -56.4973
   -56.4970 -56.4966 -56.4949 -56.4945 -56.4930 -56.4918 -56.4902 -56.4866
   -18.8945 -10.7672 -10.3931  -9.5302  -8.9434  -8.9414  -8.8771  -8.8506
    -8.6429  -8.4345  -8.3250  -8.1977  -8.1944  -7.8705  -7.7738  -7.7273
    -7.5887  -7.5807  -7.4491  -7.4086  -7.3009  -7.2426  -7.2415  -7.1999
    -7.1974  -7.1801  -7.1222  -7.1069  -7.0574  -7.0385  -6.8087  -6.7766
    -6.7686  -6.7423  -6.6878  -6.6863  -6.6793  -6.6691  -6.6669  -6.6583
    -6.6462  -6.6453  -6.6449  -6.6407  -6.6373  -6.6303  -6.6115  -6.6052
    -6.5932  -6.5883  -6.5854  -6.5764  -6.5634  -6.5579  -6.5521  -6.5316
    -6.4829  -6.4752  -6.4516  -6.3988  -6.3902  -6.3868  -6.3779  -6.3703
    -6.3003  -6.2919  -6.2739  -6.1005  -6.0953  -6.0667  -6.0654  -6.0627
    -6.0373  -5.9811  -5.9158  -5.9071  -5.9015  -5.8988  -5.8909  -5.8904
    -5.8858  -5.8705  -5.8597  -5.8519  -5.8501  -5.8456  -5.8426  -5.8378
    -5.8343  -5.8276  -5.8251  -5.8198  -5.8116  -5.8044  -5.8033  -5.7864
    -5.7824  -5.7606  -5.7557  -5.7542  -5.7467  -5.7393  -5.7348  -5.7291
    -5.7201  -5.7174  -5.6979  -5.6945  -5.6867  -5.6862  -5.6835  -5.6756
    -5.6155  -5.5594  -5.5346  -5.5150  -5.5132  -5.5083  -5.5042  -5.4485
    -5.4262  -5.3976  -5.3875  -5.3208  -5.3206  -5.3122  -5.3067  -5.3011
    -5.2955  -5.2801  -5.2721  -5.2618  -5.2374  -5.2361  -5.2148  -5.2059
    -5.1998  -5.1877  -5.1803  -5.1761  -5.1692  -5.1671  -5.1649  -5.1601
    -5.1543  -5.1426  -5.1069  -5.0985  -5.0723  -5.0153  -5.0123  -5.0112
    -5.0109  -4.9876  -4.9795  -4.9615  -4.9583  -4.9509  -4.9475  -4.9370
    -4.9227  -4.8914  -4.8874  -4.8775  -4.8667  -4.8627  -4.8598  -4.8587
    -4.8425  -4.8261  -4.8208  -4.8004  -4.7841  -4.7765  -4.7642  -4.7641
    -4.7481  -4.7439  -4.7371  -4.7327  -4.7311  -4.7268  -4.7106  -4.7080
    -4.6734  -4.6713  -4.6148  -4.6080  -4.6007  -4.4872  -4.4842  -4.3501
    -4.3433  -4.3234  -4.2203  -4.2151  -4.2055  -4.2024  -4.1929  -4.1928
    -4.1874  -4.1780  -4.1683  -4.1461  -4.1353  -4.1344  -4.1308  -4.1107
    -4.0686  -4.0628  -4.0621  -4.0536  -4.0430  -4.0312  -4.0153  -4.0099
    -4.0097  -4.0045  -3.9916  -3.9914  -3.9855  -3.9837  -3.9566  -3.9442
    -3.9400  -3.9338  -3.9153  -3.9130  -3.9003  -3.8952  -3.8846  -3.8834
    -3.8786  -3.8638  -3.8614  -3.8570  -3.8545  -3.8452  -3.8346  -3.8319
    -3.8319  -3.8098  -3.7955  -3.7946  -3.7885  -3.7851  -3.7777  -3.7770
    -3.7767  -3.7752  -3.7710  -3.7688  -3.7640  -3.7616  -3.7581  -3.7554
    -3.7489  -3.7466  -3.7403  -3.7376  -3.7315  -3.7288  -3.7199  -3.7161
    -3.7063  -3.7007  -3.6944  -3.6873  -3.6780  -3.6737  -3.6685  -3.6585
    -3.6527  -3.6521  -3.6499  -3.6455  -3.6408  -3.6374  -3.6340  -3.6220
    -3.6045  -3.6036  -3.5726  -3.5700  -3.5561  -3.5473  -3.5419  -3.5327
    -3.5223  -3.5201  -3.5084  -3.4993  -3.4357  -3.4281  -3.4267  -3.3988
    -3.3978  -3.3906  -3.3857  -3.3757  -3.3643  -3.3630  -3.3603  -3.3551
    -3.3511  -3.3404  -3.3352  -3.3318  -3.3264  -3.3150  -3.2970  -3.2955
    -3.2919  -3.2903  -3.2360  -3.2086  -3.1015  -3.0528  -2.9043  -2.8959
    -2.8921  -2.8760  -2.8349  -2.8097  -2.8042  -2.7707  -2.7638  -2.7348
    -2.7298  -2.7150  -2.6878  -2.6410  -2.6306  -2.6294  -2.6078  -2.5673
    -2.5596  -2.5486  -2.5479  -2.5116  -2.4418  -2.4171  -2.3884  -2.3146
    -2.3142  -2.2278  -2.0550  -2.0220  -1.9815  -1.6007  -1.5785  -1.5608
    -1.5587  -1.3810  -1.3492  -1.1928  -0.9110  -0.7226  -0.6709  -0.6664
    -0.6370  -0.6178  -0.6008

          k = 0.0000 0.2652 0.0000 (128375 PWs)   bands (ev):

   -90.8172 -90.8102 -90.7791 -90.7767 -90.7742 -90.7732 -90.7642 -90.7577
   -90.7530 -90.7510 -90.7494 -90.7476 -90.7474 -90.7440 -90.7416 -90.7385
   -90.7337 -90.7324 -90.7294 -90.7274 -90.7273 -90.7247 -90.7246 -90.7192
   -90.7168 -90.7158 -90.7124 -90.6971 -90.6833 -90.6778 -90.6755 -90.6729
   -90.6593 -90.6388 -90.6306 -90.6252 -90.6211 -90.6190 -90.6138 -90.6102
   -90.6069 -90.6059 -90.6042 -90.6029 -90.6002 -90.5992 -90.5970 -90.5965
   -90.5952 -90.5936 -90.5920 -90.5915 -90.5897 -90.5866 -90.5852 -90.5845
   -90.5804 -90.5785 -90.5765 -90.5743 -90.5681 -90.5654 -90.5541 -90.5492
   -57.0037 -56.9932 -56.9721 -56.9652 -56.9617 -56.9572 -56.9563 -56.9546
   -56.9499 -56.9475 -56.9431 -56.9404 -56.9367 -56.9352 -56.9337 -56.9334
   -56.9326 -56.9301 -56.9255 -56.9243 -56.9231 -56.9201 -56.9193 -56.9170
   -56.9152 -56.9140 -56.9118 -56.9047 -56.9004 -56.8965 -56.8889 -56.8878
   -56.8833 -56.8794 -56.8759 -56.8720 -56.8716 -56.8683 -56.8647 -56.8626
   -56.8594 -56.8565 -56.8534 -56.8503 -56.8446 -56.8386 -56.8226 -56.8211
   -56.8155 -56.8072 -56.8051 -56.8021 -56.8008 -56.7980 -56.7940 -56.7906
   -56.7888 -56.7834 -56.7807 -56.7778 -56.7762 -56.7749 -56.7746 -56.7722
   -56.7706 -56.7688 -56.7682 -56.7650 -56.7641 -56.7595 -56.7588 -56.7549
   -56.7522 -56.7515 -56.7487 -56.7471 -56.7453 -56.7397 -56.7348 -56.7327
   -56.7297 -56.7272 -56.7249 -56.7229 -56.7222 -56.7192 -56.7143 -56.7113
   -56.7095 -56.7055 -56.7041 -56.7027 -56.7006 -56.6981 -56.6976 -56.6954
   -56.6922 -56.6911 -56.6873 -56.6861 -56.6835 -56.6828 -56.6784 -56.6755
   -56.6746 -56.6729 -56.6709 -56.6695 -56.6666 -56.6662 -56.6628 -56.6608
   -56.6590 -56.6574 -56.6566 -56.6543 -56.6515 -56.6494 -56.6448 -56.6438
   -56.6415 -56.6391 -56.6376 -56.6354 -56.6333 -56.6309 -56.6298 -56.6269
   -56.6265 -56.6227 -56.6223 -56.6200 -56.6172 -56.6153 -56.6140 -56.6106
   -56.6085 -56.6065 -56.6047 -56.6025 -56.6011 -56.5985 -56.5950 -56.5944
   -56.5897 -56.5885 -56.5865 -56.5818 -56.5776 -56.5760 -56.5737 -56.5685
   -56.5677 -56.5652 -56.5647 -56.5623 -56.5597 -56.5563 -56.5534 -56.5522
   -56.5509 -56.5494 -56.5485 -56.5453 -56.5411 -56.5397 -56.5367 -56.5347
   -56.5333 -56.5308 -56.5281 -56.5269 -56.5241 -56.5193 -56.5187 -56.5178
   -56.5162 -56.5147 -56.5113 -56.5105 -56.5063 -56.5050 -56.5041 -56.5018
   -56.5012 -56.4990 -56.4982 -56.4974 -56.4960 -56.4954 -56.4913 -56.4887
   -18.8944 -10.7204 -10.3359  -9.6379  -9.3538  -9.0094  -8.8492  -8.6527
    -8.5698  -8.3895  -8.1960  -8.1384  -7.9834  -7.8903  -7.7870  -7.7112
    -7.5702  -7.5224  -7.4818  -7.3750  -7.3060  -7.2807  -7.2058  -7.1806
    -7.1515  -7.1372  -7.1196  -7.0808  -7.0540  -7.0071  -6.9338  -6.8626
    -6.8286  -6.8022  -6.7888  -6.7782  -6.7713  -6.7583  -6.7523  -6.7394
    -6.7139  -6.6972  -6.6888  -6.6764  -6.6585  -6.6391  -6.6227  -6.6160
    -6.5923  -6.5853  -6.5805  -6.5622  -6.5576  -6.5051  -6.4988  -6.4927
    -6.4825  -6.4753  -6.4610  -6.4186  -6.3953  -6.3399  -6.3221  -6.3115
    -6.2809  -6.2694  -6.2325  -6.1829  -6.1741  -6.1247  -6.0772  -6.0409
    -6.0150  -6.0019  -5.9916  -5.9657  -5.9148  -5.9038  -5.8913  -5.8875
    -5.8773  -5.8683  -5.8615  -5.8521  -5.8459  -5.8387  -5.8292  -5.8263
    -5.8189  -5.8064  -5.8010  -5.7948  -5.7921  -5.7779  -5.7677  -5.7623
    -5.7549  -5.7503  -5.7465  -5.7408  -5.7321  -5.7253  -5.7139  -5.7042
    -5.6807  -5.6636  -5.6536  -5.6492  -5.6394  -5.6336  -5.6202  -5.5977
    -5.5943  -5.5855  -5.5792  -5.5522  -5.5290  -5.4842  -5.4681  -5.4425
    -5.4233  -5.4066  -5.3968  -5.3886  -5.3789  -5.3460  -5.3185  -5.2980
    -5.2913  -5.2821  -5.2756  -5.2644  -5.2616  -5.2490  -5.2461  -5.2391
    -5.2278  -5.2088  -5.1999  -5.1936  -5.1892  -5.1831  -5.1617  -5.1413
    -5.1368  -5.1286  -5.0930  -5.0679  -5.0451  -5.0393  -5.0309  -5.0222
    -5.0133  -4.9992  -4.9948  -4.9894  -4.9880  -4.9812  -4.9712  -4.9642
    -4.9549  -4.9485  -4.9360  -4.9266  -4.9156  -4.8982  -4.8890  -4.8627
    -4.8405  -4.8312  -4.8108  -4.7987  -4.7870  -4.7756  -4.7655  -4.7400
    -4.7330  -4.7208  -4.7056  -4.6946  -4.6628  -4.6467  -4.6235  -4.6068
    -4.5897  -4.5668  -4.5466  -4.5295  -4.5169  -4.4677  -4.3786  -4.3376
    -4.3277  -4.3226  -4.2897  -4.2744  -4.2578  -4.2434  -4.2331  -4.2111
    -4.1910  -4.1796  -4.1745  -4.1674  -4.1594  -4.1435  -4.1416  -4.1315
    -4.1194  -4.0957  -4.0892  -4.0830  -4.0651  -4.0546  -4.0228  -4.0146
    -4.0057  -3.9981  -3.9937  -3.9839  -3.9806  -3.9684  -3.9644  -3.9532
    -3.9494  -3.9442  -3.9322  -3.9263  -3.8977  -3.8841  -3.8806  -3.8762
    -3.8704  -3.8636  -3.8544  -3.8495  -3.8459  -3.8385  -3.8313  -3.8282
    -3.8205  -3.8185  -3.8103  -3.8024  -3.7990  -3.7950  -3.7853  -3.7757
    -3.7702  -3.7622  -3.7550  -3.7495  -3.7450  -3.7382  -3.7295  -3.7272
    -3.7234  -3.7207  -3.7180  -3.7048  -3.7025  -3.6978  -3.6965  -3.6842
    -3.6775  -3.6739  -3.6621  -3.6611  -3.6588  -3.6546  -3.6516  -3.6500
    -3.6403  -3.6367  -3.6175  -3.6129  -3.6075  -3.5993  -3.5890  -3.5854
    -3.5768  -3.5662  -3.5421  -3.5201  -3.5155  -3.5129  -3.5045  -3.4985
    -3.4888  -3.4825  -3.4701  -3.4607  -3.4548  -3.4525  -3.4456  -3.4371
    -3.4176  -3.4069  -3.3841  -3.3824  -3.3806  -3.3730  -3.3572  -3.3533
    -3.3410  -3.3373  -3.3326  -3.3199  -3.3086  -3.2860  -3.2451  -3.2356
    -3.2001  -3.1876  -3.1527  -3.1087  -3.0504  -2.9627  -2.9540  -2.9342
    -2.9155  -2.9143  -2.8787  -2.8753  -2.8624  -2.8314  -2.8002  -2.7906
    -2.7860  -2.7734  -2.7629  -2.7464  -2.7414  -2.7198  -2.7075  -2.6757
    -2.6636  -2.6541  -2.6129  -2.5821  -2.5487  -2.5213  -2.5117  -2.3792
    -2.3331  -2.1270  -2.0226  -1.9355  -1.9148  -1.7397  -1.6516  -1.5623
    -1.4986  -1.3942  -1.3686  -1.2667  -1.2017  -1.1186  -0.9953  -0.9680
    -0.7844  -0.7733  -0.7094

          k = 0.0000-0.5303 0.0000 (128388 PWs)   bands (ev):

   -90.8172 -90.8102 -90.7786 -90.7774 -90.7739 -90.7705 -90.7684 -90.7555
   -90.7547 -90.7496 -90.7491 -90.7491 -90.7474 -90.7438 -90.7420 -90.7367
   -90.7362 -90.7297 -90.7293 -90.7274 -90.7266 -90.7262 -90.7256 -90.7173
   -90.7172 -90.7146 -90.7143 -90.6971 -90.6833 -90.6779 -90.6756 -90.6728
   -90.6591 -90.6382 -90.6328 -90.6257 -90.6207 -90.6165 -90.6129 -90.6093
   -90.6083 -90.6073 -90.6053 -90.6022 -90.6002 -90.5996 -90.5976 -90.5960
   -90.5948 -90.5941 -90.5923 -90.5916 -90.5884 -90.5860 -90.5848 -90.5828
   -90.5820 -90.5800 -90.5768 -90.5750 -90.5677 -90.5643 -90.5535 -90.5502
   -57.0027 -56.9933 -56.9712 -56.9649 -56.9621 -56.9586 -56.9564 -56.9547
   -56.9509 -56.9470 -56.9443 -56.9370 -56.9360 -56.9355 -56.9337 -56.9333
   -56.9314 -56.9303 -56.9292 -56.9216 -56.9206 -56.9198 -56.9196 -56.9178
   -56.9156 -56.9120 -56.9115 -56.9029 -56.9025 -56.8887 -56.8860 -56.8824
   -56.8776 -56.8754 -56.8741 -56.8735 -56.8726 -56.8677 -56.8665 -56.8632
   -56.8613 -56.8532 -56.8471 -56.8432 -56.8338 -56.8319 -56.8300 -56.8231
   -56.8186 -56.8150 -56.8147 -56.8134 -56.8087 -56.8042 -56.8032 -56.8001
   -56.7962 -56.7858 -56.7814 -56.7789 -56.7765 -56.7742 -56.7728 -56.7701
   -56.7677 -56.7661 -56.7630 -56.7614 -56.7606 -56.7590 -56.7577 -56.7558
   -56.7527 -56.7521 -56.7503 -56.7485 -56.7441 -56.7430 -56.7407 -56.7387
   -56.7353 -56.7341 -56.7320 -56.7304 -56.7281 -56.7273 -56.7257 -56.7228
   -56.7184 -56.7130 -56.7079 -56.7006 -56.6973 -56.6960 -56.6949 -56.6930
   -56.6904 -56.6863 -56.6858 -56.6815 -56.6807 -56.6798 -56.6785 -56.6752
   -56.6682 -56.6660 -56.6646 -56.6616 -56.6602 -56.6591 -56.6584 -56.6580
   -56.6570 -56.6550 -56.6543 -56.6536 -56.6502 -56.6482 -56.6468 -56.6437
   -56.6425 -56.6412 -56.6384 -56.6375 -56.6333 -56.6321 -56.6307 -56.6262
   -56.6261 -56.6237 -56.6214 -56.6162 -56.6127 -56.6124 -56.6099 -56.6094
   -56.6068 -56.6025 -56.5985 -56.5979 -56.5951 -56.5944 -56.5927 -56.5912
   -56.5882 -56.5852 -56.5850 -56.5841 -56.5813 -56.5793 -56.5742 -56.5720
   -56.5714 -56.5696 -56.5612 -56.5588 -56.5558 -56.5545 -56.5539 -56.5527
   -56.5490 -56.5453 -56.5382 -56.5369 -56.5352 -56.5343 -56.5329 -56.5308
   -56.5286 -56.5270 -56.5265 -56.5249 -56.5231 -56.5218 -56.5204 -56.5198
   -56.5197 -56.5180 -56.5159 -56.5155 -56.5147 -56.5127 -56.5113 -56.5099
   -56.5093 -56.5076 -56.5036 -56.4986 -56.4962 -56.4957 -56.4914 -56.4897
   -18.8944 -10.6736 -10.1738  -9.9709  -9.3664  -8.9792  -8.9523  -8.7319
    -8.5004  -8.2798  -8.1259  -8.0612  -7.9365  -7.8586  -7.6849  -7.5597
    -7.5318  -7.4511  -7.4383  -7.3907  -7.3281  -7.2792  -7.2358  -7.2129
    -7.1495  -7.0910  -7.0684  -7.0261  -7.0113  -7.0038  -6.9934  -6.9808
    -6.9702  -6.9666  -6.9445  -6.9288  -6.9171  -6.8535  -6.8445  -6.7939
    -6.7387  -6.6948  -6.6495  -6.6431  -6.6351  -6.6311  -6.6252  -6.5598
    -6.5479  -6.5418  -6.5378  -6.5357  -6.5227  -6.5158  -6.5115  -6.5027
    -6.4753  -6.4443  -6.4126  -6.3870  -6.3756  -6.3675  -6.3549  -6.3352
    -6.2806  -6.2700  -6.2344  -6.2288  -6.1900  -6.1648  -6.1628  -6.1499
    -6.1036  -6.0371  -6.0073  -5.9244  -5.9209  -5.8990  -5.8938  -5.8769
    -5.8693  -5.8617  -5.8464  -5.8349  -5.8328  -5.8239  -5.8188  -5.8174
    -5.8089  -5.8021  -5.7889  -5.7818  -5.7788  -5.7779  -5.7646  -5.7540
    -5.7515  -5.7402  -5.7319  -5.6795  -5.6755  -5.6582  -5.6474  -5.6343
    -5.6309  -5.6184  -5.6060  -5.6047  -5.5952  -5.5915  -5.5857  -5.5827
    -5.5746  -5.5642  -5.5594  -5.5468  -5.5322  -5.5233  -5.5180  -5.4958
    -5.4847  -5.4690  -5.3912  -5.3734  -5.3585  -5.3045  -5.2962  -5.2871
    -5.2682  -5.2666  -5.2646  -5.2565  -5.2509  -5.2479  -5.2373  -5.2364
    -5.2266  -5.2245  -5.2206  -5.2174  -5.2051  -5.1971  -5.1894  -5.1820
    -5.1736  -5.1672  -5.1530  -5.1513  -5.1433  -5.1066  -5.0993  -5.0868
    -5.0696  -5.0583  -5.0556  -5.0382  -5.0361  -5.0231  -5.0121  -4.9974
    -4.9767  -4.9689  -4.9590  -4.9346  -4.8974  -4.8907  -4.8840  -4.8508
    -4.8195  -4.7887  -4.7687  -4.7622  -4.7497  -4.7470  -4.7348  -4.7247
    -4.7132  -4.7039  -4.6616  -4.6214  -4.5570  -4.4853  -4.4678  -4.4639
    -4.4547  -4.4450  -4.4269  -4.4045  -4.4016  -4.3890  -4.3730  -4.3495
    -4.3355  -4.3138  -4.3077  -4.2980  -4.2958  -4.2867  -4.2633  -4.2565
    -4.2498  -4.2426  -4.2374  -4.2354  -4.2112  -4.1829  -4.1470  -4.1262
    -4.1171  -4.1113  -4.1016  -4.0993  -4.0751  -4.0722  -4.0703  -4.0593
    -4.0253  -4.0218  -4.0063  -3.9787  -3.9657  -3.9630  -3.9593  -3.9581
    -3.9565  -3.9512  -3.9465  -3.9404  -3.9362  -3.9249  -3.9222  -3.9180
    -3.9165  -3.9124  -3.9097  -3.8941  -3.8908  -3.8805  -3.8245  -3.8203
    -3.8123  -3.8038  -3.7930  -3.7913  -3.7846  -3.7822  -3.7789  -3.7652
    -3.7642  -3.7500  -3.7452  -3.7422  -3.7412  -3.7349  -3.7312  -3.7249
    -3.7213  -3.7082  -3.7034  -3.7023  -3.6928  -3.6870  -3.6724  -3.6702
    -3.6636  -3.6563  -3.6362  -3.6331  -3.6173  -3.6115  -3.6012  -3.5971
    -3.5927  -3.5880  -3.5709  -3.5666  -3.5569  -3.5521  -3.5433  -3.5155
    -3.5123  -3.5098  -3.5087  -3.5033  -3.5003  -3.4948  -3.4946  -3.4867
    -3.4846  -3.4799  -3.4733  -3.4725  -3.4641  -3.4609  -3.4523  -3.4506
    -3.4478  -3.4109  -3.3920  -3.3844  -3.3719  -3.3093  -3.3001  -3.2759
    -3.2637  -3.2320  -3.2276  -3.2105  -3.1987  -3.1847  -3.1016  -3.0994
    -3.0819  -3.0765  -3.0733  -3.0559  -3.0376  -3.0315  -3.0216  -2.9973
    -2.9795  -2.9761  -2.9576  -2.9423  -2.9359  -2.9250  -2.9047  -2.8503
    -2.8332  -2.8273  -2.7953  -2.7872  -2.7804  -2.7570  -2.7524  -2.7388
    -2.7264  -2.7160  -2.6970  -2.6847  -2.6827  -2.6667  -2.6619  -2.5388
    -2.4065  -2.3747  -2.2069  -2.1505  -2.0510  -1.9598  -1.6818  -1.6074
    -1.5867  -1.3479  -1.0468  -0.9915  -0.9384  -0.8906  -0.8780  -0.8425
    -0.7962  -0.7759  -0.7559

          k = 0.2500-0.0884 0.0000 (128371 PWs)   bands (ev):

   -90.8172 -90.8102 -90.7791 -90.7767 -90.7742 -90.7732 -90.7642 -90.7577
   -90.7530 -90.7510 -90.7494 -90.7476 -90.7474 -90.7440 -90.7416 -90.7385
   -90.7337 -90.7323 -90.7294 -90.7274 -90.7272 -90.7247 -90.7246 -90.7192
   -90.7168 -90.7158 -90.7124 -90.6971 -90.6833 -90.6778 -90.6755 -90.6729
   -90.6593 -90.6388 -90.6306 -90.6252 -90.6212 -90.6190 -90.6138 -90.6102
   -90.6069 -90.6060 -90.6041 -90.6029 -90.6002 -90.5992 -90.5971 -90.5965
   -90.5952 -90.5936 -90.5921 -90.5915 -90.5896 -90.5867 -90.5852 -90.5846
   -90.5804 -90.5785 -90.5765 -90.5743 -90.5681 -90.5654 -90.5541 -90.5492
   -57.0037 -56.9932 -56.9721 -56.9652 -56.9617 -56.9573 -56.9563 -56.9545
   -56.9499 -56.9475 -56.9431 -56.9404 -56.9367 -56.9352 -56.9337 -56.9334
   -56.9326 -56.9301 -56.9254 -56.9243 -56.9231 -56.9202 -56.9193 -56.9169
   -56.9152 -56.9140 -56.9118 -56.9047 -56.9004 -56.8965 -56.8889 -56.8878
   -56.8833 -56.8794 -56.8759 -56.8720 -56.8716 -56.8683 -56.8647 -56.8626
   -56.8594 -56.8565 -56.8534 -56.8503 -56.8446 -56.8386 -56.8226 -56.8211
   -56.8155 -56.8072 -56.8050 -56.8021 -56.8008 -56.7980 -56.7940 -56.7906
   -56.7888 -56.7834 -56.7807 -56.7778 -56.7762 -56.7749 -56.7746 -56.7722
   -56.7706 -56.7688 -56.7682 -56.7650 -56.7641 -56.7595 -56.7588 -56.7549
   -56.7522 -56.7515 -56.7486 -56.7471 -56.7453 -56.7396 -56.7348 -56.7327
   -56.7297 -56.7273 -56.7249 -56.7229 -56.7222 -56.7191 -56.7143 -56.7113
   -56.7095 -56.7055 -56.7041 -56.7027 -56.7006 -56.6982 -56.6976 -56.6953
   -56.6922 -56.6911 -56.6873 -56.6861 -56.6835 -56.6828 -56.6784 -56.6755
   -56.6746 -56.6729 -56.6709 -56.6695 -56.6666 -56.6662 -56.6628 -56.6608
   -56.6590 -56.6574 -56.6567 -56.6543 -56.6515 -56.6494 -56.6448 -56.6438
   -56.6415 -56.6391 -56.6376 -56.6354 -56.6333 -56.6309 -56.6298 -56.6270
   -56.6265 -56.6227 -56.6223 -56.6200 -56.6172 -56.6153 -56.6140 -56.6106
   -56.6085 -56.6065 -56.6047 -56.6025 -56.6011 -56.5985 -56.5950 -56.5944
   -56.5896 -56.5885 -56.5866 -56.5818 -56.5775 -56.5760 -56.5737 -56.5685
   -56.5677 -56.5652 -56.5647 -56.5623 -56.5597 -56.5563 -56.5534 -56.5522
   -56.5509 -56.5494 -56.5485 -56.5453 -56.5411 -56.5397 -56.5367 -56.5346
   -56.5333 -56.5308 -56.5281 -56.5269 -56.5241 -56.5193 -56.5186 -56.5178
   -56.5162 -56.5147 -56.5112 -56.5105 -56.5063 -56.5049 -56.5041 -56.5018
   -56.5012 -56.4990 -56.4981 -56.4974 -56.4960 -56.4954 -56.4913 -56.4887
   -18.8944 -10.7204 -10.3359  -9.6379  -9.3538  -9.0094  -8.8492  -8.6527
    -8.5698  -8.3895  -8.1960  -8.1384  -7.9834  -7.8903  -7.7870  -7.7112
    -7.5702  -7.5224  -7.4818  -7.3750  -7.3060  -7.2807  -7.2058  -7.1806
    -7.1515  -7.1372  -7.1196  -7.0808  -7.0539  -7.0071  -6.9338  -6.8626
    -6.8286  -6.8022  -6.7888  -6.7782  -6.7713  -6.7583  -6.7523  -6.7394
    -6.7138  -6.6972  -6.6887  -6.6764  -6.6585  -6.6391  -6.6227  -6.6160
    -6.5922  -6.5853  -6.5805  -6.5622  -6.5576  -6.5051  -6.4988  -6.4927
    -6.4825  -6.4753  -6.4610  -6.4186  -6.3953  -6.3399  -6.3222  -6.3116
    -6.2809  -6.2694  -6.2325  -6.1829  -6.1741  -6.1247  -6.0773  -6.0409
    -6.0150  -6.0019  -5.9916  -5.9657  -5.9148  -5.9039  -5.8913  -5.8875
    -5.8773  -5.8683  -5.8615  -5.8521  -5.8459  -5.8387  -5.8292  -5.8264
    -5.8189  -5.8064  -5.8010  -5.7948  -5.7921  -5.7778  -5.7676  -5.7623
    -5.7549  -5.7503  -5.7464  -5.7408  -5.7321  -5.7253  -5.7138  -5.7042
    -5.6807  -5.6636  -5.6536  -5.6492  -5.6395  -5.6336  -5.6203  -5.5977
    -5.5943  -5.5855  -5.5792  -5.5523  -5.5290  -5.4841  -5.4682  -5.4425
    -5.4232  -5.4065  -5.3968  -5.3886  -5.3789  -5.3459  -5.3185  -5.2980
    -5.2913  -5.2820  -5.2756  -5.2643  -5.2616  -5.2489  -5.2461  -5.2391
    -5.2278  -5.2088  -5.2000  -5.1936  -5.1891  -5.1830  -5.1617  -5.1413
    -5.1368  -5.1286  -5.0930  -5.0678  -5.0450  -5.0393  -5.0309  -5.0222
    -5.0134  -4.9991  -4.9948  -4.9894  -4.9880  -4.9812  -4.9712  -4.9642
    -4.9550  -4.9484  -4.9360  -4.9266  -4.9156  -4.8982  -4.8890  -4.8626
    -4.8405  -4.8312  -4.8109  -4.7987  -4.7871  -4.7757  -4.7655  -4.7400
    -4.7330  -4.7207  -4.7056  -4.6946  -4.6628  -4.6466  -4.6235  -4.6068
    -4.5897  -4.5668  -4.5466  -4.5295  -4.5169  -4.4676  -4.3786  -4.3376
    -4.3277  -4.3225  -4.2896  -4.2744  -4.2578  -4.2433  -4.2331  -4.2111
    -4.1910  -4.1796  -4.1745  -4.1674  -4.1594  -4.1436  -4.1415  -4.1315
    -4.1193  -4.0957  -4.0893  -4.0830  -4.0651  -4.0546  -4.0228  -4.0146
    -4.0057  -3.9981  -3.9937  -3.9839  -3.9806  -3.9684  -3.9644  -3.9532
    -3.9494  -3.9443  -3.9321  -3.9263  -3.8976  -3.8841  -3.8806  -3.8762
    -3.8704  -3.8636  -3.8544  -3.8495  -3.8459  -3.8385  -3.8314  -3.8282
    -3.8205  -3.8185  -3.8103  -3.8024  -3.7990  -3.7950  -3.7853  -3.7757
    -3.7702  -3.7623  -3.7550  -3.7495  -3.7450  -3.7382  -3.7295  -3.7272
    -3.7234  -3.7207  -3.7180  -3.7048  -3.7025  -3.6978  -3.6965  -3.6841
    -3.6775  -3.6739  -3.6621  -3.6611  -3.6588  -3.6547  -3.6516  -3.6500
    -3.6403  -3.6367  -3.6175  -3.6129  -3.6075  -3.5993  -3.5890  -3.5854
    -3.5768  -3.5662  -3.5420  -3.5201  -3.5155  -3.5129  -3.5045  -3.4985
    -3.4888  -3.4825  -3.4701  -3.4607  -3.4548  -3.4525  -3.4456  -3.4371
    -3.4176  -3.4070  -3.3842  -3.3824  -3.3806  -3.3730  -3.3572  -3.3533
    -3.3410  -3.3373  -3.3326  -3.3199  -3.3086  -3.2860  -3.2451  -3.2356
    -3.2000  -3.1876  -3.1527  -3.1087  -3.0504  -2.9627  -2.9540  -2.9342
    -2.9156  -2.9141  -2.8788  -2.8753  -2.8624  -2.8314  -2.8002  -2.7906
    -2.7860  -2.7734  -2.7629  -2.7463  -2.7414  -2.7198  -2.7075  -2.6757
    -2.6636  -2.6541  -2.6129  -2.5821  -2.5486  -2.5214  -2.5116  -2.3792
    -2.3331  -2.1271  -2.0226  -1.9355  -1.9149  -1.7397  -1.6516  -1.5623
    -1.4986  -1.3943  -1.3685  -1.2667  -1.2017  -1.1186  -0.9953  -0.9680
    -0.7843  -0.7734  -0.7093

          k = 0.2500 0.1768 0.0000 (128340 PWs)   bands (ev):

   -90.8172 -90.8102 -90.7791 -90.7762 -90.7747 -90.7723 -90.7643 -90.7571
   -90.7563 -90.7530 -90.7494 -90.7475 -90.7460 -90.7402 -90.7386 -90.7380
   -90.7372 -90.7354 -90.7277 -90.7276 -90.7265 -90.7258 -90.7244 -90.7175
   -90.7170 -90.7155 -90.7137 -90.6971 -90.6833 -90.6779 -90.6755 -90.6729
   -90.6592 -90.6382 -90.6309 -90.6262 -90.6224 -90.6195 -90.6138 -90.6080
   -90.6067 -90.6039 -90.6038 -90.6021 -90.6008 -90.5984 -90.5972 -90.5971
   -90.5951 -90.5944 -90.5931 -90.5910 -90.5907 -90.5879 -90.5863 -90.5845
   -90.5810 -90.5763 -90.5762 -90.5752 -90.5673 -90.5648 -90.5545 -90.5496
   -57.0031 -56.9933 -56.9716 -56.9653 -56.9617 -56.9570 -56.9558 -56.9533
   -56.9489 -56.9478 -56.9447 -56.9434 -56.9357 -56.9336 -56.9336 -56.9326
   -56.9320 -56.9275 -56.9259 -56.9256 -56.9236 -56.9215 -56.9194 -56.9169
   -56.9145 -56.9132 -56.9117 -56.9024 -56.9017 -56.8924 -56.8879 -56.8827
   -56.8824 -56.8751 -56.8730 -56.8718 -56.8690 -56.8670 -56.8625 -56.8537
   -56.8519 -56.8513 -56.8507 -56.8489 -56.8484 -56.8375 -56.8224 -56.8204
   -56.8166 -56.8142 -56.8102 -56.8078 -56.8066 -56.8020 -56.8013 -56.7953
   -56.7945 -56.7937 -56.7871 -56.7867 -56.7832 -56.7793 -56.7734 -56.7727
   -56.7696 -56.7687 -56.7678 -56.7674 -56.7657 -56.7635 -56.7607 -56.7565
   -56.7558 -56.7531 -56.7487 -56.7483 -56.7399 -56.7396 -56.7360 -56.7358
   -56.7337 -56.7295 -56.7277 -56.7263 -56.7209 -56.7188 -56.7168 -56.7123
   -56.7082 -56.7072 -56.7053 -56.7034 -56.6995 -56.6973 -56.6968 -56.6931
   -56.6917 -56.6914 -56.6861 -56.6833 -56.6830 -56.6789 -56.6768 -56.6762
   -56.6748 -56.6739 -56.6734 -56.6697 -56.6693 -56.6671 -56.6645 -56.6631
   -56.6596 -56.6589 -56.6526 -56.6499 -56.6451 -56.6437 -56.6418 -56.6415
   -56.6409 -56.6364 -56.6356 -56.6349 -56.6312 -56.6298 -56.6287 -56.6285
   -56.6254 -56.6210 -56.6199 -56.6166 -56.6151 -56.6116 -56.6067 -56.6059
   -56.6053 -56.6053 -56.6033 -56.5979 -56.5978 -56.5938 -56.5936 -56.5874
   -56.5866 -56.5861 -56.5843 -56.5835 -56.5825 -56.5813 -56.5761 -56.5680
   -56.5674 -56.5617 -56.5609 -56.5583 -56.5537 -56.5532 -56.5518 -56.5490
   -56.5483 -56.5464 -56.5455 -56.5441 -56.5425 -56.5383 -56.5376 -56.5352
   -56.5347 -56.5331 -56.5280 -56.5265 -56.5255 -56.5210 -56.5190 -56.5176
   -56.5171 -56.5158 -56.5139 -56.5103 -56.5100 -56.5066 -56.5060 -56.5047
   -56.5039 -56.5033 -56.5025 -56.5013 -56.5006 -56.4997 -56.4973 -56.4913
   -18.8944 -10.7116 -10.3027  -9.5313  -9.2626  -9.2262  -9.1051  -8.7192
    -8.4108  -8.3750  -8.2136  -8.1729  -7.9448  -7.8533  -7.8272  -7.6755
    -7.5590  -7.4303  -7.4018  -7.2936  -7.2052  -7.1997  -7.1905  -7.1512
    -7.1380  -7.0849  -7.0714  -7.0710  -7.0498  -6.9745  -6.9597  -6.9474
    -6.8671  -6.8420  -6.8394  -6.8267  -6.7665  -6.7511  -6.7500  -6.7341
    -6.7148  -6.7051  -6.7016  -6.6867  -6.6805  -6.6780  -6.6709  -6.6679
    -6.6318  -6.6295  -6.5993  -6.5881  -6.5745  -6.5674  -6.5276  -6.5018
    -6.4963  -6.4459  -6.4312  -6.4183  -6.3365  -6.3355  -6.2992  -6.2926
    -6.2687  -6.2161  -6.2011  -6.1959  -6.1630  -6.1622  -6.1226  -6.0917
    -6.0269  -6.0132  -5.9948  -5.9337  -5.9267  -5.9186  -5.9170  -5.9011
    -5.8948  -5.8932  -5.8893  -5.8879  -5.8800  -5.8776  -5.8697  -5.8640
    -5.8621  -5.8424  -5.8295  -5.8166  -5.7881  -5.7741  -5.7592  -5.7464
    -5.7395  -5.7117  -5.7087  -5.6899  -5.6890  -5.6845  -5.6778  -5.6690
    -5.6569  -5.6416  -5.6344  -5.6271  -5.6030  -5.5896  -5.5622  -5.5521
    -5.5448  -5.5315  -5.5196  -5.4913  -5.4842  -5.4810  -5.4804  -5.4748
    -5.4695  -5.4573  -5.4531  -5.4395  -5.4324  -5.4144  -5.3804  -5.3761
    -5.3630  -5.3307  -5.3032  -5.2831  -5.2743  -5.2690  -5.2647  -5.2545
    -5.2432  -5.2274  -5.2117  -5.1920  -5.1811  -5.1797  -5.1724  -5.1576
    -5.1398  -5.1342  -5.1164  -5.1081  -5.1023  -5.0815  -5.0706  -5.0336
    -5.0300  -5.0089  -5.0060  -4.9904  -4.9794  -4.9760  -4.9731  -4.9544
    -4.9475  -4.9238  -4.9050  -4.8891  -4.8808  -4.8729  -4.8647  -4.8614
    -4.8559  -4.8510  -4.8391  -4.8385  -4.8261  -4.8204  -4.8190  -4.8032
    -4.7900  -4.7800  -4.7421  -4.7338  -4.7034  -4.6137  -4.5634  -4.5437
    -4.5344  -4.5018  -4.4964  -4.4325  -4.4085  -4.4041  -4.3661  -4.3519
    -4.3309  -4.3103  -4.2924  -4.2805  -4.2764  -4.2460  -4.2431  -4.2040
    -4.1957  -4.1826  -4.1735  -4.1635  -4.1594  -4.1447  -4.1418  -4.1158
    -4.1042  -4.0995  -4.0871  -4.0850  -4.0777  -4.0558  -4.0528  -4.0476
    -4.0474  -4.0315  -4.0033  -3.9979  -3.9654  -3.9565  -3.9485  -3.9363
    -3.9334  -3.9280  -3.9263  -3.9203  -3.9073  -3.9014  -3.8988  -3.8920
    -3.8737  -3.8733  -3.8532  -3.8496  -3.8413  -3.8367  -3.8317  -3.8244
    -3.8222  -3.8130  -3.8065  -3.8020  -3.7949  -3.7836  -3.7675  -3.7565
    -3.7502  -3.7449  -3.7408  -3.7322  -3.7305  -3.7176  -3.7075  -3.6982
    -3.6847  -3.6791  -3.6749  -3.6735  -3.6682  -3.6616  -3.6513  -3.6450
    -3.6317  -3.6261  -3.6144  -3.6126  -3.6059  -3.6004  -3.5987  -3.5935
    -3.5898  -3.5882  -3.5850  -3.5848  -3.5726  -3.5708  -3.5580  -3.5578
    -3.5508  -3.5262  -3.5260  -3.5171  -3.5144  -3.5108  -3.5062  -3.5035
    -3.4875  -3.4844  -3.4755  -3.4735  -3.4604  -3.4542  -3.4367  -3.4349
    -3.4258  -3.4065  -3.4050  -3.3965  -3.3550  -3.3533  -3.3340  -3.3283
    -3.3089  -3.2985  -3.2941  -3.2890  -3.2806  -3.2236  -3.2037  -3.1876
    -3.1650  -3.1637  -3.1528  -3.1374  -3.0149  -2.9954  -2.9921  -2.9308
    -2.9230  -2.9165  -2.8907  -2.8307  -2.8214  -2.8061  -2.7881  -2.7687
    -2.7618  -2.7597  -2.7440  -2.7292  -2.7215  -2.7171  -2.6986  -2.6507
    -2.6359  -2.5765  -2.5764  -2.5431  -2.4808  -2.4348  -2.4271  -2.3388
    -2.3301  -2.2155  -2.1067  -1.9517  -1.8509  -1.7666  -1.7564  -1.7325
    -1.6925  -1.6308  -1.6280  -1.5753  -1.5500  -1.4296  -1.4097  -1.2205
    -1.0851  -1.0000  -0.9541

          k = 0.2500-0.6187 0.0000 (128424 PWs)   bands (ev):

   -90.8172 -90.8102 -90.7787 -90.7770 -90.7743 -90.7696 -90.7672 -90.7607
   -90.7551 -90.7500 -90.7496 -90.7475 -90.7434 -90.7430 -90.7407 -90.7391
   -90.7358 -90.7332 -90.7306 -90.7275 -90.7253 -90.7240 -90.7237 -90.7189
   -90.7162 -90.7160 -90.7140 -90.6971 -90.6832 -90.6781 -90.6756 -90.6728
   -90.6590 -90.6371 -90.6333 -90.6283 -90.6206 -90.6173 -90.6113 -90.6087
   -90.6073 -90.6062 -90.6044 -90.6029 -90.6010 -90.5987 -90.5979 -90.5963
   -90.5959 -90.5939 -90.5917 -90.5908 -90.5889 -90.5869 -90.5859 -90.5842
   -90.5828 -90.5780 -90.5768 -90.5750 -90.5668 -90.5635 -90.5541 -90.5504
   -57.0021 -56.9936 -56.9708 -56.9652 -56.9615 -56.9579 -56.9559 -56.9545
   -56.9517 -56.9479 -56.9422 -56.9412 -56.9347 -56.9338 -56.9331 -56.9326
   -56.9307 -56.9300 -56.9286 -56.9237 -56.9217 -56.9214 -56.9193 -56.9161
   -56.9142 -56.9127 -56.9098 -56.9040 -56.9012 -56.8879 -56.8838 -56.8807
   -56.8771 -56.8688 -56.8672 -56.8664 -56.8652 -56.8649 -56.8620 -56.8604
   -56.8552 -56.8507 -56.8478 -56.8400 -56.8380 -56.8343 -56.8280 -56.8260
   -56.8246 -56.8222 -56.8201 -56.8171 -56.8129 -56.8097 -56.8055 -56.8004
   -56.7981 -56.7962 -56.7899 -56.7855 -56.7820 -56.7807 -56.7762 -56.7745
   -56.7709 -56.7696 -56.7687 -56.7631 -56.7603 -56.7589 -56.7559 -56.7538
   -56.7530 -56.7514 -56.7497 -56.7487 -56.7471 -56.7463 -56.7444 -56.7398
   -56.7371 -56.7344 -56.7328 -56.7301 -56.7262 -56.7236 -56.7217 -56.7195
   -56.7153 -56.7149 -56.7122 -56.7095 -56.7044 -56.6993 -56.6954 -56.6942
   -56.6915 -56.6890 -56.6855 -56.6836 -56.6784 -56.6761 -56.6745 -56.6735
   -56.6682 -56.6665 -56.6645 -56.6636 -56.6606 -56.6599 -56.6585 -56.6563
   -56.6553 -56.6533 -56.6514 -56.6494 -56.6477 -56.6453 -56.6421 -56.6412
   -56.6395 -56.6373 -56.6352 -56.6340 -56.6319 -56.6304 -56.6288 -56.6275
   -56.6257 -56.6201 -56.6191 -56.6152 -56.6120 -56.6102 -56.6054 -56.6043
   -56.6023 -56.6007 -56.5979 -56.5960 -56.5949 -56.5944 -56.5932 -56.5907
   -56.5891 -56.5862 -56.5833 -56.5793 -56.5765 -56.5749 -56.5739 -56.5688
   -56.5672 -56.5640 -56.5615 -56.5586 -56.5561 -56.5507 -56.5480 -56.5469
   -56.5444 -56.5421 -56.5386 -56.5375 -56.5359 -56.5347 -56.5335 -56.5310
   -56.5294 -56.5280 -56.5268 -56.5248 -56.5246 -56.5233 -56.5223 -56.5214
   -56.5203 -56.5192 -56.5184 -56.5162 -56.5146 -56.5139 -56.5135 -56.5120
   -56.5112 -56.5095 -56.5082 -56.5032 -56.5024 -56.5012 -56.5000 -56.4941
   -18.8944 -10.6708 -10.1224  -9.8380  -9.5498  -9.2455  -8.7778  -8.7338
    -8.4875  -8.3140  -8.2238  -8.0840  -7.9833  -7.6273  -7.5557  -7.4951
    -7.4694  -7.4374  -7.3799  -7.3741  -7.3383  -7.2436  -7.1729  -7.1696
    -7.1479  -7.1342  -7.1024  -7.0524  -7.0350  -7.0145  -7.0004  -6.9807
    -6.9624  -6.9591  -6.9323  -6.8921  -6.8633  -6.8490  -6.8402  -6.8289
    -6.8094  -6.7913  -6.7534  -6.7400  -6.7263  -6.7062  -6.6495  -6.6233
    -6.6153  -6.5931  -6.5495  -6.5346  -6.5091  -6.4762  -6.4638  -6.4429
    -6.4094  -6.3908  -6.3759  -6.3665  -6.3530  -6.3306  -6.3141  -6.3017
    -6.2717  -6.2542  -6.2372  -6.2196  -6.1993  -6.1920  -6.1550  -6.1117
    -6.0932  -6.0851  -6.0779  -6.0027  -5.9640  -5.9422  -5.9270  -5.9129
    -5.9086  -5.8998  -5.8878  -5.8808  -5.8736  -5.8594  -5.8236  -5.8031
    -5.7846  -5.7674  -5.7607  -5.7525  -5.7445  -5.7256  -5.7192  -5.7064
    -5.6989  -5.6903  -5.6838  -5.6765  -5.6696  -5.6628  -5.6583  -5.6463
    -5.6368  -5.6185  -5.6105  -5.6004  -5.5819  -5.5689  -5.5642  -5.5536
    -5.5460  -5.5442  -5.5257  -5.5033  -5.4966  -5.4924  -5.4670  -5.4608
    -5.4464  -5.4423  -5.4338  -5.4269  -5.4173  -5.4058  -5.4050  -5.3878
    -5.3813  -5.3766  -5.3709  -5.3612  -5.3527  -5.3445  -5.3227  -5.3083
    -5.2935  -5.2855  -5.2559  -5.2450  -5.2088  -5.1634  -5.1486  -5.1382
    -5.1240  -5.1215  -5.1108  -5.1054  -5.0885  -5.0817  -5.0757  -5.0721
    -5.0573  -5.0454  -5.0382  -5.0340  -5.0319  -5.0171  -5.0103  -4.9952
    -4.9724  -4.9663  -4.9624  -4.9581  -4.9190  -4.9068  -4.8733  -4.8472
    -4.8331  -4.8137  -4.8012  -4.7693  -4.7431  -4.7352  -4.7220  -4.6820
    -4.6667  -4.6384  -4.6155  -4.5926  -4.5555  -4.5402  -4.5339  -4.4924
    -4.4804  -4.4562  -4.4340  -4.4059  -4.3869  -4.3776  -4.3714  -4.3615
    -4.3373  -4.3246  -4.3219  -4.3153  -4.3069  -4.2893  -4.2570  -4.2402
    -4.2330  -4.2217  -4.2078  -4.1888  -4.1757  -4.1637  -4.1489  -4.1341
    -4.1264  -4.1079  -4.1008  -4.0907  -4.0769  -4.0699  -4.0641  -4.0577
    -4.0448  -4.0250  -4.0147  -4.0089  -3.9949  -3.9737  -3.9657  -3.9609
    -3.9536  -3.9500  -3.9451  -3.9319  -3.9247  -3.9188  -3.9128  -3.9056
    -3.8958  -3.8931  -3.8780  -3.8657  -3.8496  -3.8462  -3.8402  -3.8316
    -3.8132  -3.8099  -3.8000  -3.7924  -3.7840  -3.7773  -3.7705  -3.7567
    -3.7513  -3.7406  -3.7344  -3.7266  -3.7175  -3.7110  -3.7088  -3.7043
    -3.6925  -3.6800  -3.6690  -3.6632  -3.6569  -3.6522  -3.6424  -3.6362
    -3.6295  -3.6235  -3.6205  -3.6149  -3.6100  -3.6009  -3.5957  -3.5797
    -3.5695  -3.5678  -3.5609  -3.5562  -3.5532  -3.5442  -3.5392  -3.5303
    -3.5260  -3.5228  -3.5143  -3.5130  -3.5040  -3.5015  -3.4920  -3.4828
    -3.4681  -3.4508  -3.4417  -3.4314  -3.4148  -3.4065  -3.3991  -3.3967
    -3.3841  -3.3588  -3.3392  -3.3096  -3.3046  -3.2906  -3.2821  -3.2460
    -3.2316  -3.2086  -3.1939  -3.1611  -3.1527  -3.1376  -3.1091  -3.0937
    -3.0901  -3.0836  -3.0741  -3.0360  -3.0188  -2.9981  -2.9934  -2.9752
    -2.9653  -2.9349  -2.9246  -2.8922  -2.8791  -2.8757  -2.8662  -2.8544
    -2.8391  -2.8139  -2.7928  -2.7835  -2.7775  -2.7674  -2.7583  -2.7297
    -2.7151  -2.7006  -2.6770  -2.6707  -2.6474  -2.5903  -2.5560  -2.5421
    -2.4893  -2.3829  -2.2695  -2.1276  -2.0549  -1.9814  -1.9175  -1.8254
    -1.7855  -1.6502  -1.6302  -1.4935  -1.3196  -1.2643  -1.0848  -1.0424
    -0.9815  -0.9365  -0.8157

          k = 0.2500-0.3536 0.0000 (128397 PWs)   bands (ev):

   -90.8172 -90.8102 -90.7786 -90.7774 -90.7739 -90.7717 -90.7643 -90.7626
   -90.7500 -90.7495 -90.7486 -90.7474 -90.7467 -90.7455 -90.7434 -90.7391
   -90.7324 -90.7320 -90.7309 -90.7278 -90.7272 -90.7231 -90.7227 -90.7203
   -90.7177 -90.7155 -90.7127 -90.6971 -90.6833 -90.6779 -90.6756 -90.6728
   -90.6592 -90.6379 -90.6327 -90.6277 -90.6185 -90.6161 -90.6123 -90.6101
   -90.6096 -90.6069 -90.6045 -90.6031 -90.6020 -90.5982 -90.5975 -90.5967
   -90.5948 -90.5944 -90.5913 -90.5905 -90.5885 -90.5854 -90.5846 -90.5838
   -90.5820 -90.5802 -90.5776 -90.5749 -90.5671 -90.5643 -90.5538 -90.5500
   -57.0027 -56.9933 -56.9714 -56.9648 -56.9623 -56.9570 -56.9564 -56.9552
   -56.9524 -56.9488 -56.9404 -56.9365 -56.9355 -56.9352 -56.9351 -56.9334
   -56.9329 -56.9310 -56.9266 -56.9233 -56.9224 -56.9211 -56.9186 -56.9164
   -56.9134 -56.9121 -56.9113 -56.9062 -56.9003 -56.8924 -56.8863 -56.8822
   -56.8802 -56.8748 -56.8736 -56.8712 -56.8660 -56.8648 -56.8610 -56.8598
   -56.8588 -56.8577 -56.8545 -56.8507 -56.8491 -56.8370 -56.8239 -56.8231
   -56.8156 -56.8147 -56.8077 -56.8046 -56.8017 -56.7975 -56.7930 -56.7907
   -56.7903 -56.7895 -56.7869 -56.7854 -56.7819 -56.7796 -56.7768 -56.7760
   -56.7744 -56.7717 -56.7688 -56.7678 -56.7670 -56.7638 -56.7617 -56.7583
   -56.7560 -56.7537 -56.7508 -56.7440 -56.7420 -56.7399 -56.7362 -56.7338
   -56.7318 -56.7282 -56.7277 -56.7259 -56.7233 -56.7204 -56.7174 -56.7156
   -56.7125 -56.7096 -56.7062 -56.7046 -56.7007 -56.6984 -56.6957 -56.6929
   -56.6914 -56.6904 -56.6896 -56.6891 -56.6871 -56.6819 -56.6790 -56.6727
   -56.6719 -56.6684 -56.6659 -56.6642 -56.6621 -56.6604 -56.6580 -56.6573
   -56.6564 -56.6562 -56.6550 -56.6540 -56.6528 -56.6499 -56.6457 -56.6429
   -56.6410 -56.6396 -56.6388 -56.6343 -56.6337 -56.6320 -56.6305 -56.6291
   -56.6262 -56.6240 -56.6166 -56.6151 -56.6124 -56.6106 -56.6079 -56.6074
   -56.6012 -56.6003 -56.5990 -56.5978 -56.5954 -56.5933 -56.5918 -56.5910
   -56.5885 -56.5852 -56.5818 -56.5810 -56.5805 -56.5774 -56.5749 -56.5737
   -56.5703 -56.5687 -56.5669 -56.5631 -56.5561 -56.5541 -56.5529 -56.5512
   -56.5496 -56.5482 -56.5419 -56.5409 -56.5403 -56.5391 -56.5365 -56.5343
   -56.5300 -56.5293 -56.5269 -56.5255 -56.5230 -56.5208 -56.5198 -56.5186
   -56.5170 -56.5163 -56.5149 -56.5123 -56.5112 -56.5068 -56.5061 -56.5047
   -56.5040 -56.5030 -56.5016 -56.5007 -56.5005 -56.4996 -56.4966 -56.4934
   -18.8944 -10.6779 -10.2203  -9.7037  -9.6409  -9.2497  -8.7184  -8.5590
    -8.3302  -8.2220  -8.1713  -8.0775  -8.0278  -7.9656  -7.8094  -7.7797
    -7.5076  -7.3043  -7.2887  -7.2748  -7.2674  -7.2518  -7.2393  -7.2007
    -7.1948  -7.1208  -7.1157  -7.1125  -7.0790  -7.0582  -7.0242  -7.0067
    -6.9944  -6.9341  -6.8624  -6.8410  -6.8308  -6.8163  -6.7942  -6.7887
    -6.7668  -6.7602  -6.7531  -6.7384  -6.7035  -6.6791  -6.6449  -6.6152
    -6.6035  -6.5868  -6.5699  -6.5532  -6.5214  -6.5123  -6.4424  -6.4314
    -6.3821  -6.3763  -6.3756  -6.3502  -6.3375  -6.3309  -6.3275  -6.3174
    -6.2670  -6.2657  -6.2387  -6.2117  -6.2046  -6.1824  -6.1268  -6.1134
    -6.0342  -6.0231  -5.9999  -5.9690  -5.9569  -5.9184  -5.9159  -5.9015
    -5.9012  -5.8689  -5.8551  -5.8468  -5.8446  -5.8412  -5.8180  -5.8157
    -5.8128  -5.7996  -5.7938  -5.7899  -5.7839  -5.7808  -5.7639  -5.7446
    -5.7307  -5.7236  -5.6990  -5.6954  -5.6919  -5.6784  -5.6737  -5.6614
    -5.6471  -5.6389  -5.6375  -5.6268  -5.6176  -5.6071  -5.5669  -5.5362
    -5.5295  -5.5202  -5.5176  -5.5112  -5.5008  -5.4956  -5.4932  -5.4825
    -5.4705  -5.4683  -5.4556  -5.4226  -5.4039  -5.3924  -5.3777  -5.3731
    -5.3440  -5.3247  -5.3090  -5.2711  -5.2440  -5.2414  -5.2364  -5.2028
    -5.2006  -5.1863  -5.1790  -5.1666  -5.1656  -5.1631  -5.1556  -5.1538
    -5.1489  -5.1446  -5.1397  -5.1366  -5.1317  -5.1297  -5.1125  -5.0993
    -5.0981  -5.0912  -5.0799  -5.0606  -5.0428  -5.0318  -5.0155  -4.9830
    -4.9576  -4.9342  -4.9285  -4.8983  -4.8919  -4.8770  -4.8450  -4.8145
    -4.8015  -4.7954  -4.7844  -4.7753  -4.7567  -4.7275  -4.6932  -4.6767
    -4.6666  -4.6198  -4.5843  -4.5713  -4.5601  -4.5301  -4.5247  -4.5127
[...]
    -1.1855  -1.1765  -1.1661  -1.1527  -1.1407  -1.1213  -1.1158  -1.1085
    -1.0984  -1.0838  -1.0754  -1.0580  -1.0536  -1.0457  -1.0308  -1.0220
    -1.0051  -1.0032  -0.9788  -0.9703  -0.9593  -0.9417  -0.9368  -0.9259
    -0.9177  -0.9008  -0.8971  -0.8949  -0.8930  -0.8829  -0.8753  -0.8609
    -0.8572  -0.8368  -0.8318  -0.8292  -0.8248  -0.8082  -0.7969  -0.7874
    -0.7789  -0.7722  -0.7594  -0.7548  -0.7460  -0.7267  -0.7119  -0.6991
    -0.6946  -0.6845  -0.6797  -0.6745  -0.6695  -0.6633  -0.6557  -0.6500
    -0.6433  -0.6336  -0.6305  -0.6169  -0.6060  -0.5982  -0.5921  -0.5810
    -0.5688  -0.5604  -0.5513  -0.5471  -0.5416  -0.5335  -0.5305  -0.5259
    -0.5230  -0.5120  -0.5031  -0.4965  -0.4927  -0.4838  -0.4736  -0.4619
    -0.4581  -0.4526  -0.4384  -0.4289  -0.4204  -0.4013  -0.3785  -0.3690
    -0.3640  -0.3530  -0.3375  -0.3317  -0.3274  -0.3214  -0.3119  -0.3040
    -0.2944  -0.2856  -0.2560  -0.2413  -0.2269  -0.2250  -0.2117  -0.1940
    -0.1900  -0.1631  -0.1233  -0.0664  -0.0206   0.0197   0.0804   0.1010
     0.1763   0.2399   0.2697   0.3052   0.3560   0.4662   0.5554   0.6135
     0.6703   0.6978   0.7585

          k =-0.5000-0.3536 0.0000 (128560 PWs)   bands (ev):

   -88.2209 -88.2193 -87.8775 -87.8765 -87.8302 -87.8268 -87.8068 -87.8009
   -87.7841 -87.7781 -87.7617 -87.7586 -87.7509 -87.7500 -87.7497 -87.7468
   -87.7395 -87.7373 -87.7346 -87.7312 -87.7285 -87.7278 -87.7270 -87.7243
   -87.7215 -87.7179 -87.7163 -87.7121 -87.7102 -87.7090 -87.7085 -87.7078
   -87.7074 -87.7051 -87.7050 -87.6889 -87.6876 -87.6852 -87.6852 -87.6787
   -87.6766 -87.6699 -87.6699 -87.6696 -87.6683 -87.6660 -87.6658 -87.6629
   -87.6590 -87.6518 -87.6482 -87.6478 -87.6478 -87.6475 -87.6463 -87.6462
   -87.6461 -87.6455 -87.6438 -87.6409 -87.6254 -87.6252 -87.6246 -87.6224
   -54.6537 -54.6388 -54.3124 -54.3075 -54.1643 -54.1479 -54.1084 -54.1077
   -54.0978 -54.0743 -54.0466 -54.0398 -54.0396 -54.0334 -54.0326 -54.0293
   -54.0281 -54.0267 -54.0209 -54.0191 -54.0156 -54.0148 -54.0139 -54.0107
   -54.0092 -54.0047 -54.0032 -53.9994 -53.9987 -53.9931 -53.9885 -53.9878
   -53.9855 -53.9835 -53.9827 -53.9788 -53.9741 -53.9707 -53.9690 -53.9677
   -53.9676 -53.9627 -53.9609 -53.9563 -53.9536 -53.9507 -53.9487 -53.9478
   -53.9415 -53.9351 -53.9340 -53.9285 -53.9274 -53.9260 -53.9247 -53.9217
   -53.9216 -53.9214 -53.9208 -53.9201 -53.9158 -53.9151 -53.9130 -53.9120
   -53.9109 -53.9099 -53.9027 -53.9012 -53.8967 -53.8928 -53.8897 -53.8876
   -53.8825 -53.8747 -53.8708 -53.8693 -53.8658 -53.8611 -53.8543 -53.8527
   -53.8516 -53.8507 -53.8429 -53.8417 -53.8382 -53.8318 -53.8307 -53.8307
   -53.8248 -53.8238 -53.8217 -53.8185 -53.8183 -53.8138 -53.8117 -53.8107
   -53.8103 -53.8077 -53.8044 -53.8032 -53.8018 -53.8003 -53.7926 -53.7921
   -53.7863 -53.7841 -53.7840 -53.7806 -53.7755 -53.7748 -53.7733 -53.7727
   -53.7708 -53.7704 -53.7682 -53.7662 -53.7651 -53.7635 -53.7619 -53.7579
   -53.7564 -53.7555 -53.7534 -53.7503 -53.7453 -53.7451 -53.7437 -53.7433
   -53.7383 -53.7372 -53.7368 -53.7328 -53.7314 -53.7304 -53.7285 -53.7236
   -53.7226 -53.7220 -53.7188 -53.7168 -53.7152 -53.7151 -53.7131 -53.7128
   -53.7121 -53.7107 -53.7083 -53.7074 -53.7061 -53.7057 -53.7047 -53.7040
   -53.7021 -53.6989 -53.6963 -53.6953 -53.6917 -53.6894 -53.6890 -53.6864
   -53.6859 -53.6841 -53.6834 -53.6833 -53.6820 -53.6808 -53.6807 -53.6803
   -53.6798 -53.6796 -53.6774 -53.6770 -53.6762 -53.6745 -53.6708 -53.6697
   -53.6679 -53.6664 -53.6657 -53.6653 -53.6646 -53.6593 -53.6588 -53.6583
   -53.6567 -53.6551 -53.6541 -53.6535 -53.6515 -53.6495 -53.6475 -53.6469
   -18.9439 -10.4581  -9.7428  -9.7094  -9.1967  -9.1660  -8.7753  -8.4747
    -8.0596  -7.9686  -7.6726  -7.5402  -7.5196  -7.1365  -7.0925  -7.0599
    -7.0268  -6.6713  -6.4681  -6.2974  -6.2871  -6.2763  -6.2553  -6.2456
    -6.2057  -6.1722  -6.1519  -6.1475  -6.1111  -6.1042  -5.8822  -5.7510
    -5.7278  -5.7204  -5.7175  -5.6790  -5.6213  -5.5257  -5.4317  -5.2695
    -5.2503  -5.2458  -5.2155  -5.2116  -5.1817  -5.1623  -5.1216  -5.1059
    -5.1025  -5.0458  -5.0061  -4.9760  -4.9694  -4.9469  -4.9249  -4.8932
    -4.8539  -4.7084  -4.7008  -4.6822  -4.6698  -4.6595  -4.6211  -4.4507
    -4.4175  -4.3955  -4.3811  -4.3653  -4.3530  -4.2708  -4.2473  -4.2316
    -4.2054  -4.1859  -4.1673  -4.1549  -4.1529  -4.1440  -4.1271  -4.1270
    -4.1091  -4.0952  -4.0906  -4.0524  -4.0482  -4.0389  -4.0352  -4.0261
    -4.0178  -4.0000  -3.9877  -3.9419  -3.9133  -3.8955  -3.8182  -3.8100
    -3.8016  -3.7425  -3.6969  -3.6868  -3.6777  -3.6762  -3.6687  -3.6589
    -3.6456  -3.6399  -3.6321  -3.6321  -3.6057  -3.6055  -3.5982  -3.5958
    -3.5900  -3.5776  -3.5710  -3.5599  -3.5581  -3.5547  -3.5431  -3.5371
    -3.5338  -3.5290  -3.5226  -3.5163  -3.5047  -3.5035  -3.4935  -3.4833
    -3.4710  -3.4508  -3.4507  -3.4431  -3.4405  -3.4296  -3.4228  -3.4132
    -3.4126  -3.4110  -3.3835  -3.3799  -3.3753  -3.3233  -3.3074  -3.2494
    -3.2109  -3.1806  -3.1661  -3.1516  -3.1509  -3.1497  -3.1305  -3.1299
    -3.1205  -3.1010  -3.0583  -3.0354  -2.9970  -2.9964  -2.9788  -2.9655
    -2.9560  -2.9492  -2.9454  -2.9210  -2.9069  -2.9046  -2.8674  -2.8628
    -2.7699  -2.7392  -2.7177  -2.6993  -2.6956  -2.6828  -2.6692  -2.6570
    -2.6521  -2.6376  -2.6360  -2.5891  -2.5586  -2.5580  -2.5526  -2.5372
    -2.5312  -2.5262  -2.5249  -2.4951  -2.4772  -2.3272  -2.2604  -2.2507
    -2.2340  -2.1352  -2.1336  -2.1084  -1.9600  -1.9180  -1.8778  -1.8618
    -1.8431  -1.8073  -1.7941  -1.7859  -1.7736  -1.7460  -1.7418  -1.7114
    -1.6986  -1.6928  -1.6779  -1.6397  -1.6179  -1.5935  -1.5800  -1.5669
    -1.5628  -1.5507  -1.5441  -1.4996  -1.4905  -1.4830  -1.4549  -1.4050
    -1.3975  -1.3854  -1.3779  -1.3741  -1.3671  -1.3615  -1.3603  -1.3478
    -1.3400  -1.3371  -1.3017  -1.2810  -1.2778  -1.2615  -1.2147  -1.2141
    -1.1979  -1.1886  -1.1836  -1.1759  -1.1547  -1.1280  -1.0800  -1.0640
    -1.0597  -1.0562  -1.0193  -1.0112  -0.9783  -0.9653  -0.9547  -0.9413
    -0.9395  -0.9390  -0.9345  -0.9216  -0.9086  -0.9048  -0.8887  -0.8818
    -0.8784  -0.8733  -0.8697  -0.8596  -0.8571  -0.8523  -0.8429  -0.8257
    -0.8193  -0.8156  -0.8115  -0.7933  -0.7830  -0.7766  -0.7710  -0.7663
    -0.7633  -0.7612  -0.7540  -0.7530  -0.7499  -0.7324  -0.7236  -0.7209
    -0.7106  -0.6982  -0.6950  -0.6902  -0.6863  -0.6806  -0.6729  -0.6722
    -0.6652  -0.6473  -0.6379  -0.6323  -0.5991  -0.5801  -0.5743  -0.5661
    -0.5575  -0.5476  -0.5474  -0.5365  -0.5335  -0.5322  -0.5117  -0.5028
    -0.5002  -0.4934  -0.4927  -0.4857  -0.4790  -0.4764  -0.4720  -0.4676
    -0.4620  -0.4585  -0.4549  -0.4408  -0.4347  -0.4253  -0.4223  -0.4178
    -0.4128  -0.4085  -0.3965  -0.3958  -0.3923  -0.3856  -0.3761  -0.3609
    -0.3333  -0.3142  -0.3119  -0.2928  -0.2914  -0.2689  -0.2112  -0.1979
    -0.0962  -0.0960  -0.0800  -0.0764   0.0600   0.1258   0.1391   0.1473
     0.1553   0.1851   0.2059   0.2065   0.2224   0.2367   0.2453   0.3504
     0.4080   0.4411   0.4737

     the Fermi energy is    -2.6110 ev

!    total energy              =  -21094.97684848 Ry
     Harris-Foulkes estimate   =  -21094.97684787 Ry
     estimated scf accuracy    <          7.8E-11 Ry

     The total energy is the sum of the following terms:

     one-electron contribution = -744519.58462620 Ry
     hartree contribution      =  372156.17048601 Ry
     xc contribution           =   -2234.99910973 Ry
     ewald contribution        =  358378.28027881 Ry
     Dispersion Correction     =      -1.39916029 Ry
     one-center paw contrib.   =   -4873.44663284 Ry
     smearing contrib. (-TS)   =       0.00191577 Ry

     total magnetization       =   160.63 Bohr mag/cell
     absolute magnetization    =   167.42 Bohr mag/cell

     convergence has been achieved in  13 iterations

     negative rho (up, down):  2.493E-02 1.871E-02

     Forces acting on atoms (cartesian axes, Ry/au):

     atom    1 type  1   force =     0.00059024   -0.00018742    0.00901775
     atom    2 type  1   force =     0.00147622   -0.00221292   -0.01344570
     atom    3 type  1   force =    -0.00060391   -0.00034604    0.00911738
     atom    4 type  1   force =     0.00077946    0.00085553   -0.00836335
     atom    5 type  1   force =    -0.00001002   -0.00001362   -0.00001681
     atom    6 type  1   force =     0.00000633   -0.00003878    0.00001631
     atom    7 type  1   force =     0.00003719    0.00001679   -0.00006491
     atom    8 type  1   force =    -0.00000190    0.00000967    0.00003194
     atom    9 type  1   force =     0.00000988   -0.00000008    0.00972692
     atom   10 type  1   force =    -0.00020377   -0.00014628    0.00909318
     atom   11 type  1   force =    -0.00022329    0.00133099   -0.00735421
     atom   12 type  1   force =     0.00075783    0.00060632   -0.01166113
     atom   13 type  1   force =    -0.00000527   -0.00000501   -0.00000621
     atom   14 type  1   force =     0.00000763    0.00000012   -0.00008927
     atom   15 type  1   force =    -0.00000568   -0.00002447    0.00005407
     atom   16 type  1   force =     0.00000229   -0.00000172   -0.00004883
     atom   17 type  1   force =    -0.00052097   -0.00042757    0.00906747
     atom   18 type  1   force =     0.00107971    0.00051854   -0.00836485
     atom   19 type  1   force =     0.00054742    0.00037749    0.00917942
     atom   20 type  1   force =     0.00053551   -0.00097364   -0.01103095
     atom   21 type  1   force =     0.00002792    0.00002442   -0.00006796
     atom   22 type  1   force =     0.00000704   -0.00001770    0.00003633
     atom   23 type  1   force =    -0.00003371   -0.00002167   -0.00005336
     atom   24 type  1   force =    -0.00000304    0.00002827    0.00007558
     atom   25 type  1   force =    -0.00000512   -0.00001648    0.00715494
     atom   26 type  1   force =    -0.00067746    0.00082420    0.01001565
     atom   27 type  1   force =    -0.00009503   -0.00011177   -0.00636881
     atom   28 type  1   force =    -0.00102985    0.00074473   -0.00689797
     atom   29 type  1   force =     0.00000911   -0.00000311   -0.00012752
     atom   30 type  1   force =     0.00002076   -0.00003402   -0.00007547
     atom   31 type  1   force =     0.00001232   -0.00000399    0.00002197
     atom   32 type  1   force =     0.00003463    0.00000877    0.00004247
     atom   33 type  1   force =    -0.00043493    0.00016625    0.00891257
     atom   34 type  1   force =    -0.00065722   -0.00076103   -0.00848922
     atom   35 type  1   force =     0.00005071    0.00061478    0.00906131
     atom   36 type  1   force =    -0.00168638    0.00225021   -0.01341362
     atom   37 type  1   force =     0.00000983    0.00002630   -0.00000697
     atom   38 type  1   force =    -0.00001183   -0.00002957    0.00001738
     atom   39 type  1   force =    -0.00001427   -0.00001201   -0.00001338
     atom   40 type  1   force =    -0.00001846   -0.00000048    0.00002324
     atom   41 type  1   force =     0.00013106    0.00005679    0.00824881
     atom   42 type  1   force =     0.00056036   -0.00088808    0.01010587
     atom   43 type  1   force =    -0.00116405   -0.00073116   -0.01139683
     atom   44 type  1   force =     0.00033145   -0.00120215   -0.00687984
     atom   45 type  1   force =     0.00000999   -0.00000434    0.00004711
     atom   46 type  1   force =    -0.00002322    0.00003123   -0.00006373
     atom   47 type  1   force =     0.00006299    0.00003575    0.00004353
     atom   48 type  1   force =     0.00003533    0.00002585    0.00004520
     atom   49 type  1   force =     0.00055695    0.00038920    0.00925860
     atom   50 type  1   force =    -0.00068245    0.00072566   -0.01105075
     atom   51 type  1   force =     0.00004911   -0.00047728    0.00889346
     atom   52 type  1   force =    -0.00093182   -0.00029713   -0.00846285
     atom   53 type  1   force =    -0.00003231   -0.00002531   -0.00005696
     atom   54 type  1   force =     0.00003661   -0.00003358    0.00006927
     atom   55 type  1   force =     0.00003106   -0.00000946   -0.00001275
     atom   56 type  1   force =    -0.00003133   -0.00001442    0.00001789
     atom   57 type  1   force =    -0.00003727   -0.00001277    0.00972739
     atom   58 type  1   force =    -0.00002596   -0.00000947    0.00929833
     atom   59 type  1   force =     0.00116286   -0.00063294   -0.00732400
     atom   60 type  1   force =     0.00022675    0.00011909   -0.00634744
     atom   61 type  1   force =    -0.00001340   -0.00000533   -0.00000644
     atom   62 type  1   force =    -0.00001171   -0.00001330   -0.00009533
     atom   63 type  1   force =    -0.00003211   -0.00001613    0.00006121
     atom   64 type  1   force =    -0.00000526   -0.00000739   -0.00000942
     atom   65 type  2   force =    -0.00000664   -0.00001479   -0.00000941
     atom   66 type  3   force =     0.00001041   -0.00000511    0.00008037
     atom   67 type  3   force =     0.00003274    0.00000261    0.00007066

     Total force =     0.000367     Total SCF correction =     0.000040
     SCF correction compared to forces is large: reduce conv_thr to get better values

     bfgs converged in  12 scf cycles and  11 bfgs steps
     (criteria: energy <  7.3E-07 Ry, force <  3.9E-04 Ry/Bohr)

     End of BFGS Geometry Optimization

     Final energy   =  -21094.9768484832 Ry
Begin final coordinates

ATOMIC_POSITIONS (angstrom)
Fe       1.654912953   1.170200133   0.000000000    0   0   0
Fe       0.000000000   0.000000000   2.026984232    0   0   0
Fe       4.964738858   3.510600399   0.000000000    0   0   0
Fe       3.309825906   2.340400266   2.026984232    0   0   0
Fe       1.677178195   1.169323597   4.025455839
Fe       3.320985989   9.355099927   6.004090873
Fe       4.975930306   3.524657536   4.042783351
Fe       3.370853706   2.334919059   6.013358922
Fe       2.482363858   3.510600399   0.000000000    0   0   0
Fe       4.137287953   1.170200133   0.000000000    0   0   0
Fe       0.827450906   2.340400266   2.026984232    0   0   0
Fe       2.482375000   0.000000000   2.026984232    0   0   0
Fe       2.482867131   3.509723317   4.041939078
Fe       4.161525804   1.187520141   4.033973954
Fe       0.867348670   2.322186584   6.000798416
Fe       2.498732370   0.011788906   6.014460212
Fe       6.619662953   1.170200133   0.000000000    0   0   0
Fe       4.964750000   0.000000000   2.026984232    0   0   0
Fe       9.929488858   3.510600399   0.000000000    0   0   0
Fe       8.274575906   2.340400266   2.026984232    0   0   0
Fe       6.636551701   1.176142715   4.042619168
Fe       4.979916326   0.059335179   6.013583640
Fe       9.917529689   3.495499711   4.040728749
Fe       8.366205242   2.209991657   5.986967158
Fe       7.447113858   3.510600399   0.000000000    0   0   0
Fe       9.102037953   1.170200133   0.000000000    0   0   0
Fe       5.792200906   2.340400266   2.026984232    0   0   0
Fe       7.447125000   0.000000000   2.026984232    0   0   0
Fe       7.446571893   3.510060771   4.001227302
Fe       9.120733925   1.141800250   4.014305276
Fe       5.885546067   2.406146277   6.051191281
Fe      10.769096998   9.319413764   6.002185962
Fe       3.309814764   5.851000664   0.000000000    0   0   0
Fe       1.654901811   4.680800531   2.026984232    0   0   0
Fe       6.619640670   8.191400930   0.000000000    0   0   0
Fe       4.964727717   7.021200797   2.026984232    0   0   0
Fe       3.288629268   5.851608264   4.027875444
Fe      11.525155115   4.678508417   6.009789813
Fe       6.626305954   8.212744974   4.025516978
Fe       4.962289076   7.034266094   6.003765727
Fe       4.137265670   8.191400930   0.000000000    0   0   0
Fe       5.792189764   5.851000664   0.000000000    0   0   0
Fe      12.411852717   7.021200797   2.026984232    0   0   0
Fe       4.137276811   4.680800531   2.026984232    0   0   0
Fe       4.136137939   8.190825428   4.017272870
Fe       5.771689071   5.878044230   4.014347599
Fe      12.384548532   7.001978283   6.014416715
Fe       4.101488436   4.706624388   6.002513347
Fe       8.274564764   5.851000664   0.000000000    0   0   0
Fe       6.619651811   4.680800531   2.026984232    0   0   0
Fe      11.584390670   8.191400930   0.000000000    0   0   0
Fe       9.929477717   7.021200797   2.026984232    0   0   0
Fe       8.256355189   5.844825996   4.040837583
Fe       6.527338339   4.810676317   5.986939540
Fe      11.577914330   8.171246203   4.027824857
Fe       9.907731833   6.965957043   6.009577593
Fe       9.102015670   8.191400930   0.000000000    0   0   0
Fe      10.756939764   5.851000664   0.000000000    0   0   0
Fe       7.447102717   7.021200797   2.026984232    0   0   0
Fe       9.102026811   4.680800531   2.026984232    0   0   0
Fe       9.101450095   8.192429534   4.041939962
Fe      10.732138496   5.833570715   4.031775429
Fe       7.443252322   7.065079405   6.000962147
Fe       9.010764629   4.615975385   6.050865436
N        7.448588927   3.511679703   6.998997604
H        7.449966734   3.512883056   8.026345183
H        4.563047412   8.492806812   6.945754127
End final coordinates



     Writing output data file Fe_NH_H_paper_480c_ESM_p25.save/

     init_run     :     84.56s CPU     86.84s WALL (       1 calls)
     electrons    :  81095.71s CPU  81961.79s WALL (      12 calls)
     update_pot   :    206.64s CPU    207.16s WALL (      11 calls)
     forces       :    540.24s CPU    545.32s WALL (      12 calls)

     Called by init_run:
     wfcinit      :     58.84s CPU     60.81s WALL (       1 calls)
     potinit      :      7.93s CPU      7.99s WALL (       1 calls)
     hinit0       :     14.73s CPU     14.81s WALL (       1 calls)

     Called by electrons:
     c_bands      :  74174.07s CPU  74932.34s WALL (     246 calls)
     sum_band     :   3883.79s CPU   3950.66s WALL (     246 calls)
     v_of_rho     :    402.43s CPU    405.07s WALL (     247 calls)
     newd         :     72.10s CPU     77.65s WALL (     247 calls)
     PAW_pot      :    114.85s CPU    115.56s WALL (     258 calls)
     mix_rho      :   2336.26s CPU   2362.16s WALL (     246 calls)

     Called by c_bands:
     init_us_2    :    118.80s CPU    126.12s WALL (    1548 calls)
     cegterg      :  62349.30s CPU  62934.52s WALL (     745 calls)

     Called by sum_band:
     sum_band:bec :      8.84s CPU      8.87s WALL (     771 calls)
     addusdens    :     85.81s CPU     93.58s WALL (     246 calls)

     Called by *egterg:
     h_psi        :  18724.04s CPU  18906.07s WALL (    6143 calls)
     s_psi        :   3957.81s CPU   3966.79s WALL (    6143 calls)
     g_psi        :     52.32s CPU     52.58s WALL (    5395 calls)
     cdiaghg      :  23283.47s CPU  23403.82s WALL (    6074 calls)

     Called by h_psi:
     h_psi:pot    :  18681.28s CPU  18811.14s WALL (    6143 calls)
     h_psi:calbec :   4002.48s CPU   4019.01s WALL (    6143 calls)
     vloc_psi     :  10709.04s CPU  10812.49s WALL (    6143 calls)
     add_vuspsi   :   3969.68s CPU   3979.59s WALL (    6143 calls)

     General routines
     calbec       :   5657.85s CPU   5678.16s WALL (    7058 calls)
     fft          :    260.58s CPU    262.05s WALL (    6364 calls)
     ffts         :   1202.37s CPU   1212.76s WALL (  144175 calls)
     fftw         :  10167.44s CPU  10264.06s WALL ( 3059014 calls)
     interpolate  :     25.13s CPU     25.28s WALL (     494 calls)
     davcio       :      1.15s CPU    140.70s WALL (    6309 calls)

     Parallel routines
     fft_scatt_xy :   2171.82s CPU   2184.62s WALL ( 3209553 calls)
     fft_scatt_yz :   2862.05s CPU   2907.41s WALL ( 3209553 calls)

     PWSCF        :     22h47m CPU     23h 2m WALL


   This run was terminated on:  15:18:26   9Jun2022            

=------------------------------------------------------------------------------=
   JOB DONE.
=------------------------------------------------------------------------------=
