
     Program PWSCF v.6.4.1 starts on  8Jun2022 at 15:55: 8 

     This program is part of the open-source Quantum ESPRESSO suite
     for quantum simulation of materials; please cite
         "P. Giannozzi et al., J. Phys.:Condens. Matter 21 395502 (2009);
         "P. Giannozzi et al., J. Phys.:Condens. Matter 29 465901 (2017);
          URL http://www.quantum-espresso.org", 
     in publications or presentations arising from this work. More details at
     http://www.quantum-espresso.org/quote

     Parallel version (MPI), running on   160 processors

     MPI processes distributed on     8 nodes
     K-points division:     npool     =       8
     R & G space division:  proc/nbgrp/npool/nimage =      20
     Waiting for input...
     Reading input from standard input
Warning: card &CELL ignored
Warning: card / ignored

     Current dimensions of program PWSCF are:
     Max number of different atomic species (ntypx) = 10
     Max number of k-points (npk) =  40000
     Max angular momentum in pseudopotentials (lmaxx) =  3

     IMPORTANT: XC functional enforced from input :
     Exchange-correlation      = PBE ( 1  4  3  4 0 0)
     Any further DFT definition will be discarded
     Please, verify this is what you really want

               file Fe.pbe-spn-kjpaw_psl.0.2.1.UPF: wavefunction(s)  3D renormalized

     -------------------------------------------------
     Parameters for Dispersion (Grimme-D2) Correction:
     -------------------------------------------------
       atom      VdW radius       C_6     

        Fe         2.952        374.666
        N          2.640         42.670
        H          1.892          4.857

     Subspace diagonalization in iterative solution of the eigenvalue problem:
     one sub-group per band group will be used
     scalapack distributed-memory algorithm (size of sub-group:  3*  3 procs)


     Parallelization info
     --------------------
     sticks:   dense  smooth     PW     G-vecs:    dense   smooth      PW
     Min         634     317     83               145278    51361    6989
     Max         635     318     84               145287    51370    7000
     Sum       12685    6351   1677              2905599  1027285  139897



     bravais-lattice index     =            0
     lattice parameter (alat)  =      18.7640  a.u.
     unit-cell volume          =   16360.3163 (a.u.)^3
     number of atoms/cell      =           66
     number of atomic types    =            3
     number of electrons       =      1030.00
     number of Kohn-Sham states=          618
     kinetic-energy cutoff     =      60.0000  Ry
     charge density cutoff     =     480.0000  Ry
     convergence threshold     =      1.0E-08
     mixing beta               =       0.2000
     number of iterations used =           10  local-TF  mixing
     Exchange-correlation      = PBE ( 1  4  3  4 0 0)
     nstep                     =           50


     Effective Screening Medium Method
     =================================
     Boundary Conditions: Metal-Slab-Metal
     field strength                   =     0.01 Ry/a.u.
     grid points for fit at edges     =        4 


     celldm(1)=  18.764036  celldm(2)=   0.000000  celldm(3)=   0.000000
     celldm(4)=   0.000000  celldm(5)=   0.000000  celldm(6)=   0.000000

     crystal axes: (cart. coord. in units of alat)
               a(1) = (   1.000000   0.000000   0.000000 )  
               a(2) = (   0.333330   0.942807   0.000000 )  
               a(3) = (   0.000000   0.000000   2.626577 )  

     reciprocal axes: (cart. coord. in units 2 pi/alat)
               b(1) = (  1.000000 -0.353551  0.000000 )  
               b(2) = (  0.000000  1.060663  0.000000 )  
               b(3) = (  0.000000  0.000000  0.380724 )  


     PseudoPot. # 1 for Fe read from file:
     ../../SSSP/Fe.pbe-spn-kjpaw_psl.0.2.1.UPF
     MD5 check sum: e86618425769142926afa95317d90200
     Pseudo is Projector augmented-wave + core cor, Zval = 16.0
     Generated using "atomic" code by A. Dal Corso v.5.0.99 svn rev. 10869
     Shape of augmentation charge: PSQ
     Using radial grid of 1191 points,  6 beta functions with: 
                l(1) =   0
                l(2) =   0
                l(3) =   1
                l(4) =   1
                l(5) =   2
                l(6) =   2
     Q(r) pseudized with 0 coefficients 


     PseudoPot. # 2 for N  read from file:
     ../../SSSP/N.pbe-n-radius_5.UPF
     MD5 check sum: 16739722b17309cd8fe442a2ace49922
     Pseudo is Ultrasoft + core correction, Zval =  5.0
     Generated using "atomic" code by A. Dal Corso v.5.1
     Using radial grid of 1085 points,  4 beta functions with: 
                l(1) =   0
                l(2) =   0
                l(3) =   1
                l(4) =   1
     Q(r) pseudized with 0 coefficients 


     PseudoPot. # 3 for H  read from file:
     ../../SSSP/H.pbe-rrkjus_psl.1.0.0.UPF
     MD5 check sum: f52b6d4d1c606e5624b1dc7b2218f220
     Pseudo is Ultrasoft, Zval =  1.0
     Generated using "atomic" code by A. Dal Corso v.5.1
     Using radial grid of  929 points,  2 beta functions with: 
                l(1) =   0
                l(2) =   0
     Q(r) pseudized with 0 coefficients 


     atomic species   valence    mass     pseudopotential
        Fe            16.00    55.84500     Fe( 1.00)
        N              5.00    14.00700     N ( 1.00)
        H              1.00     1.00800     H ( 1.00)

     Starting magnetic structure 
     atomic species   magnetization
        Fe           0.100
        N            0.100
        H            0.100

     No symmetry found



   Cartesian axes

     site n.     atom                  positions (alat units)
         1           Fe  tau(   1) = (   0.1666663   0.1178509   0.0000000  )
         2           Fe  tau(   2) = (   0.0000000   0.0000000   0.2041376  )
         3           Fe  tau(   3) = (   0.4999989   0.3535526   0.0000000  )
         4           Fe  tau(   4) = (   0.3333326   0.2357017   0.2041376  )
         5           Fe  tau(   5) = (   0.1686570   0.1178361   0.4052985  )
         6           Fe  tau(   6) = (   0.3341358   0.9417664   0.6035990  )
         7           Fe  tau(   7) = (   0.5010430   0.3547508   0.4069156  )
         8           Fe  tau(   8) = (   0.3388211   0.2353710   0.6054253  )
         9           Fe  tau(   9) = (   0.2499989   0.3535526   0.0000000  )
        10           Fe  tau(  10) = (   0.4166663   0.1178509   0.0000000  )
        11           Fe  tau(  11) = (   0.0833326   0.2357017   0.2041376  )
        12           Fe  tau(  12) = (   0.2500000   0.0000000   0.2041376  )
        13           Fe  tau(  13) = (   0.2500012   0.3535905   0.4067842  )
        14           Fe  tau(  14) = (   0.4190288   0.1195738   0.4060351  )
        15           Fe  tau(  15) = (   0.0865029   0.2339483   0.6039407  )
        16           Fe  tau(  16) = (   0.2513002   0.0009626   0.6053753  )
        17           Fe  tau(  17) = (   0.6666663   0.1178509   0.0000000  )
        18           Fe  tau(  18) = (   0.5000000   0.0000000   0.2041376  )
        19           Fe  tau(  19) = (   0.9999989   0.3535526   0.0000000  )
        20           Fe  tau(  20) = (   0.8333326   0.2357017   0.2041376  )
        21           Fe  tau(  21) = (   0.6681070   0.1185056   0.4068920  )
        22           Fe  tau(  22) = (   0.5014987   0.0053781   0.6054539  )
        23           Fe  tau(  23) = (   0.9989796   0.3524590   0.4068887  )
        24           Fe  tau(  24) = (   0.8420520   0.2235134   0.6021218  )
        25           Fe  tau(  25) = (   0.7499989   0.3535526   0.0000000  )
        26           Fe  tau(  26) = (   0.9166663   0.1178509   0.0000000  )
        27           Fe  tau(  27) = (   0.5833326   0.2357017   0.2041376  )
        28           Fe  tau(  28) = (   0.7500000   0.0000000   0.2041376  )
        29           Fe  tau(  29) = (   0.7500236   0.3535939   0.4028008  )
        30           Fe  tau(  30) = (   0.9183951   0.1154738   0.4034655  )
        31           Fe  tau(  31) = (   0.5922890   0.2421038   0.6094174  )
        32           Fe  tau(  32) = (   1.0840350   0.9393380   0.6039418  )
        33           Fe  tau(  33) = (   0.3333315   0.5892543   0.0000000  )
        34           Fe  tau(  34) = (   0.1666652   0.4714034   0.2041376  )
        35           Fe  tau(  35) = (   0.6666640   0.8249560   0.0000000  )
        36           Fe  tau(  36) = (   0.4999978   0.7071052   0.2041376  )
        37           Fe  tau(  37) = (   0.3313717   0.5893360   0.4053031  )
        38           Fe  tau(  38) = (   1.1612429   0.4718510   0.6054455  )
        39           Fe  tau(  39) = (   0.6672999   0.8268818   0.4053013  )
        40           Fe  tau(  40) = (   0.4992366   0.7082722   0.6034780  )
        41           Fe  tau(  41) = (   0.4166640   0.8249560   0.0000000  )
        42           Fe  tau(  42) = (   0.5833315   0.5892543   0.0000000  )
        43           Fe  tau(  43) = (   1.2499978   0.7071052   0.2041376  )
        44           Fe  tau(  44) = (   0.4166652   0.4714034   0.2041376  )
        45           Fe  tau(  45) = (   0.4166665   0.8250173   0.4049699  )
        46           Fe  tau(  46) = (   0.5816472   0.5917018   0.4034350  )
        47           Fe  tau(  47) = (   1.2487477   0.7062702   0.6053654  )
        48           Fe  tau(  48) = (   0.4135322   0.4732989   0.6040109  )
        49           Fe  tau(  49) = (   0.8333315   0.5892543   0.0000000  )
        50           Fe  tau(  50) = (   0.6666652   0.4714034   0.2041376  )
        51           Fe  tau(  51) = (   1.1666640   0.8249560   0.0000000  )
        52           Fe  tau(  52) = (   0.9999978   0.7071052   0.2041376  )
        53           Fe  tau(  53) = (   0.8319285   0.5887257   0.4069179  )
        54           Fe  tau(  54) = (   0.6579955   0.4838139   0.6021141  )
        55           Fe  tau(  55) = (   1.1660742   0.8231260   0.4052964  )
        56           Fe  tau(  56) = (   0.9985899   0.7019248   0.6054131  )
        57           Fe  tau(  57) = (   0.9166640   0.8249560   0.0000000  )
        58           Fe  tau(  58) = (   1.0833315   0.5892543   0.0000000  )
        59           Fe  tau(  59) = (   0.7499978   0.7071052   0.2041376  )
        60           Fe  tau(  60) = (   0.9166652   0.4714034   0.2041376  )
        61           Fe  tau(  61) = (   0.9166921   0.8250249   0.4067847  )
        62           Fe  tau(  62) = (   1.0809967   0.5876498   0.4060352  )
        63           Fe  tau(  63) = (   0.7493592   0.7108084   0.6040097  )
        64           Fe  tau(  64) = (   0.9078334   0.4652128   0.6093978  )
        65           N   tau(  65) = (   0.7501811   0.3537892   0.7047560  )
        66           H   tau(  66) = (   0.7501937   0.3538470   0.8083119  )

     number of k points=    10  Methfessel-Paxton smearing, width (Ry)=  0.0100
                       cart. coord. in units 2pi/alat
        k(    1) = (   0.0000000   0.0000000   0.0000000), wk =   0.0625000
        k(    2) = (   0.0000000   0.2651656   0.0000000), wk =   0.1250000
        k(    3) = (   0.0000000  -0.5303313   0.0000000), wk =   0.0625000
        k(    4) = (   0.2500000  -0.0883878   0.0000000), wk =   0.1250000
        k(    5) = (   0.2500000   0.1767779   0.0000000), wk =   0.1250000
        k(    6) = (   0.2500000  -0.6187190   0.0000000), wk =   0.1250000
        k(    7) = (   0.2500000  -0.3535534   0.0000000), wk =   0.1250000
        k(    8) = (  -0.5000000   0.1767755   0.0000000), wk =   0.0625000
        k(    9) = (  -0.5000000   0.4419412   0.0000000), wk =   0.1250000
        k(   10) = (  -0.5000000  -0.3535558   0.0000000), wk =   0.0625000

     Dense  grid:  2905599 G-vectors     FFT dimensions: ( 135, 135, 360)

     Smooth grid:  1027285 G-vectors     FFT dimensions: (  96,  96, 243)

     Estimated max dynamical RAM per process >       1.01 GB

     Estimated total dynamical RAM >     161.82 GB
     Generating pointlists ...
     new r_m :   0.0782 (alat units)  1.4674 (a.u.) for type    1
     new r_m :   0.0427 (alat units)  0.8015 (a.u.) for type    2
     new r_m :   0.0427 (alat units)  0.8015 (a.u.) for type    3

     Check: negative core charge=   -0.000039

     Initial potential from superposition of free atoms

     starting charge 1029.97193, renormalised to 1030.00000

     negative rho (up, down):  2.450E-02 2.523E-03
     Starting wfcs are  837 randomized atomic wfcs
     Checking if some PAW data can be deallocated... 

     total cpu time spent up to now is      115.0 secs

     Self-consistent Calculation

     iteration #  1     ecut=    60.00 Ry     beta= 0.20
     Davidson diagonalization with overlap
     ethr =  1.00E-04,  avg # of iterations = 18.0

     negative rho (up, down):  1.250E-02 3.326E-03

     total cpu time spent up to now is     1893.4 secs

     total energy              =  -21087.60979753 Ry
     Harris-Foulkes estimate   =  -21095.98868018 Ry
     estimated scf accuracy    <     424.21324248 Ry

     total magnetization       =   103.26 Bohr mag/cell
     absolute magnetization    =   104.27 Bohr mag/cell

     iteration #  2     ecut=    60.00 Ry     beta= 0.20
     Davidson diagonalization with overlap
     ethr =  1.00E-02,  avg # of iterations =  1.0

     negative rho (up, down):  1.020E-02 4.367E-02

     total cpu time spent up to now is     2230.5 secs

     total energy              =  -21091.91361197 Ry
     Harris-Foulkes estimate   =  -21095.48076979 Ry
     estimated scf accuracy    <     192.32045093 Ry

     total magnetization       =   101.52 Bohr mag/cell
     absolute magnetization    =   102.79 Bohr mag/cell

     iteration #  3     ecut=    60.00 Ry     beta= 0.20
     Davidson diagonalization with overlap
     ethr =  1.00E-02,  avg # of iterations =  1.0

     negative rho (up, down):  5.526E-03 2.283E-02

     total cpu time spent up to now is     2525.2 secs

     total energy              =  -21093.68826553 Ry
     Harris-Foulkes estimate   =  -21093.80241337 Ry
     estimated scf accuracy    <      10.58566865 Ry

     total magnetization       =   132.07 Bohr mag/cell
     absolute magnetization    =   132.50 Bohr mag/cell

     iteration #  4     ecut=    60.00 Ry     beta= 0.20
     Davidson diagonalization with overlap
     ethr =  1.03E-03,  avg # of iterations =  1.0

     negative rho (up, down):  3.772E-03 1.875E-02

     total cpu time spent up to now is     2852.9 secs

     total energy              =  -21093.73210403 Ry
     Harris-Foulkes estimate   =  -21093.77600015 Ry
     estimated scf accuracy    <      15.74366084 Ry

     total magnetization       =   138.28 Bohr mag/cell
     absolute magnetization    =   138.76 Bohr mag/cell

     iteration #  5     ecut=    60.00 Ry     beta= 0.20
     Davidson diagonalization with overlap
     ethr =  1.03E-03,  avg # of iterations =  1.0

     negative rho (up, down):  1.730E-02 1.919E-01

     total cpu time spent up to now is     3177.6 secs

     total energy              =  -21092.06956635 Ry
     Harris-Foulkes estimate   =  -21093.75964917 Ry
     estimated scf accuracy    <      16.51659623 Ry

     total magnetization       =   141.03 Bohr mag/cell
     absolute magnetization    =   141.59 Bohr mag/cell

     iteration #  6     ecut=    60.00 Ry     beta= 0.20
     Davidson diagonalization with overlap
     ethr =  1.03E-03,  avg # of iterations =  5.8

     negative rho (up, down):  6.123E-03 1.223E-01

     total cpu time spent up to now is     3631.9 secs

     total energy              =  -21092.95487629 Ry
     Harris-Foulkes estimate   =  -21092.97724155 Ry
     estimated scf accuracy    <       4.69076154 Ry

     total magnetization       =   154.91 Bohr mag/cell
     absolute magnetization    =   157.39 Bohr mag/cell

     iteration #  7     ecut=    60.00 Ry     beta= 0.20
     Davidson diagonalization with overlap
     ethr =  4.55E-04,  avg # of iterations =  8.4

     negative rho (up, down):  1.356E-03 4.935E-02

     total cpu time spent up to now is     4100.9 secs

     total energy              =  -21093.29136221 Ry
     Harris-Foulkes estimate   =  -21093.28192519 Ry
     estimated scf accuracy    <       0.80555880 Ry

     total magnetization       =   151.35 Bohr mag/cell
     absolute magnetization    =   154.38 Bohr mag/cell

     iteration #  8     ecut=    60.00 Ry     beta= 0.20
     Davidson diagonalization with overlap
     c_bands:  1 eigenvalues not converged
     c_bands:  4 eigenvalues not converged
     ethr =  7.82E-05,  avg # of iterations = 21.4

     negative rho (up, down):  4.652E-04 3.218E-02

     total cpu time spent up to now is     7112.1 secs

     total energy              =  -21093.73880693 Ry
     Harris-Foulkes estimate   =  -21093.95909127 Ry
     estimated scf accuracy    <       4.18814429 Ry

     total magnetization       =   149.62 Bohr mag/cell
     absolute magnetization    =   155.41 Bohr mag/cell

     iteration #  9     ecut=    60.00 Ry     beta= 0.20
     Davidson diagonalization with overlap
     ethr =  7.82E-05,  avg # of iterations =  3.8

     negative rho (up, down):  2.159E-04 1.777E-02

     total cpu time spent up to now is     7545.2 secs

     total energy              =  -21093.77318845 Ry
     Harris-Foulkes estimate   =  -21093.80727909 Ry
     estimated scf accuracy    <       0.48156978 Ry

     total magnetization       =   150.12 Bohr mag/cell
     absolute magnetization    =   155.15 Bohr mag/cell

     iteration # 10     ecut=    60.00 Ry     beta= 0.20
     Davidson diagonalization with overlap
     ethr =  4.68E-05,  avg # of iterations =  3.2

     negative rho (up, down):  2.805E-04 2.339E-02

     total cpu time spent up to now is     7991.3 secs

     total energy              =  -21093.76782891 Ry
     Harris-Foulkes estimate   =  -21093.78905866 Ry
     estimated scf accuracy    <       0.33279883 Ry

     total magnetization       =   150.82 Bohr mag/cell
     absolute magnetization    =   155.63 Bohr mag/cell

     iteration # 11     ecut=    60.00 Ry     beta= 0.20
     Davidson diagonalization with overlap
     ethr =  3.23E-05,  avg # of iterations =  6.2

     negative rho (up, down):  2.057E-04 2.040E-02

     total cpu time spent up to now is     8531.1 secs

     total energy              =  -21093.81086203 Ry
     Harris-Foulkes estimate   =  -21093.83073501 Ry
     estimated scf accuracy    <       0.40819718 Ry

     total magnetization       =   155.89 Bohr mag/cell
     absolute magnetization    =   160.95 Bohr mag/cell

     iteration # 12     ecut=    60.00 Ry     beta= 0.20
     Davidson diagonalization with overlap
     ethr =  3.23E-05,  avg # of iterations =  1.2

     negative rho (up, down):  9.450E-05 1.706E-02

     total cpu time spent up to now is     8898.4 secs

     total energy              =  -21093.80332069 Ry
     Harris-Foulkes estimate   =  -21093.82278103 Ry
     estimated scf accuracy    <       0.24793819 Ry

     total magnetization       =   157.99 Bohr mag/cell
     absolute magnetization    =   163.04 Bohr mag/cell

     iteration # 13     ecut=    60.00 Ry     beta= 0.20
     Davidson diagonalization with overlap
     ethr =  2.41E-05,  avg # of iterations =  1.1

     negative rho (up, down):  7.207E-05 1.920E-02

     total cpu time spent up to now is     9280.0 secs

     total energy              =  -21093.79565566 Ry
     Harris-Foulkes estimate   =  -21093.81253790 Ry
     estimated scf accuracy    <       0.20113440 Ry

     total magnetization       =   159.37 Bohr mag/cell
     absolute magnetization    =   164.43 Bohr mag/cell

     iteration # 14     ecut=    60.00 Ry     beta= 0.20
     Davidson diagonalization with overlap
     ethr =  1.95E-05,  avg # of iterations =  6.2

     negative rho (up, down):  1.291E-03 3.174E-02

     total cpu time spent up to now is     9783.4 secs

     total energy              =  -21093.79134816 Ry
     Harris-Foulkes estimate   =  -21093.80446065 Ry
     estimated scf accuracy    <       0.10520127 Ry

     total magnetization       =   159.70 Bohr mag/cell
     absolute magnetization    =   164.84 Bohr mag/cell

     iteration # 15     ecut=    60.00 Ry     beta= 0.20
     Davidson diagonalization with overlap
     c_bands:  1 eigenvalues not converged
     ethr =  1.02E-05,  avg # of iterations = 17.1

     negative rho (up, down):  2.733E-02 3.057E-02

     total cpu time spent up to now is    10826.8 secs

     total energy              =  -21093.80668601 Ry
     Harris-Foulkes estimate   =  -21093.81061402 Ry
     estimated scf accuracy    <       0.18838144 Ry

     total magnetization       =   160.59 Bohr mag/cell
     absolute magnetization    =   166.33 Bohr mag/cell

     iteration # 16     ecut=    60.00 Ry     beta= 0.20
     Davidson diagonalization with overlap
     c_bands:  1 eigenvalues not converged
     ethr =  1.02E-05,  avg # of iterations =  9.2

     negative rho (up, down):  1.572E-01 2.838E-02

     total cpu time spent up to now is    11272.1 secs

     total energy              =  -21093.78995271 Ry
     Harris-Foulkes estimate   =  -21093.81198368 Ry
     estimated scf accuracy    <       0.23882829 Ry

     total magnetization       =   161.90 Bohr mag/cell
     absolute magnetization    =   167.69 Bohr mag/cell

     iteration # 17     ecut=    60.00 Ry     beta= 0.20
     Davidson diagonalization with overlap
     ethr =  1.02E-05,  avg # of iterations =  4.7

     negative rho (up, down):  1.655E-01 3.073E-02

     total cpu time spent up to now is    11619.0 secs

     total energy              =  -21093.76896484 Ry
     Harris-Foulkes estimate   =  -21093.79398656 Ry
     estimated scf accuracy    <       0.14047470 Ry

     total magnetization       =   161.65 Bohr mag/cell
     absolute magnetization    =   167.41 Bohr mag/cell

     iteration # 18     ecut=    60.00 Ry     beta= 0.20
     Davidson diagonalization with overlap
     ethr =  1.02E-05,  avg # of iterations =  9.0

     negative rho (up, down):  1.660E-01 2.188E-02

     total cpu time spent up to now is    12232.4 secs

     total energy              =  -21093.76629980 Ry
     Harris-Foulkes estimate   =  -21093.77884964 Ry
     estimated scf accuracy    <       0.04002183 Ry

     total magnetization       =   161.08 Bohr mag/cell
     absolute magnetization    =   166.96 Bohr mag/cell

     iteration # 19     ecut=    60.00 Ry     beta= 0.20
     Davidson diagonalization with overlap
     c_bands:  3 eigenvalues not converged
     c_bands:  1 eigenvalues not converged
     ethr =  3.89E-06,  avg # of iterations = 22.4

     negative rho (up, down):  1.481E-01 1.896E-02

     total cpu time spent up to now is    13419.6 secs

     total energy              =  -21093.77810244 Ry
     Harris-Foulkes estimate   =  -21093.78013427 Ry
     estimated scf accuracy    <       0.03060973 Ry

     total magnetization       =   160.70 Bohr mag/cell
     absolute magnetization    =   166.96 Bohr mag/cell

     iteration # 20     ecut=    60.00 Ry     beta= 0.20
     Davidson diagonalization with overlap
     ethr =  2.97E-06,  avg # of iterations = 11.4

     negative rho (up, down):  1.067E-01 1.803E-02

     total cpu time spent up to now is    13722.4 secs

     total energy              =  -21093.74905521 Ry
     Harris-Foulkes estimate   =  -21093.77900230 Ry
     estimated scf accuracy    <       0.02607816 Ry

     total magnetization       =   160.72 Bohr mag/cell
     absolute magnetization    =   166.97 Bohr mag/cell

     iteration # 21     ecut=    60.00 Ry     beta= 0.20
     Davidson diagonalization with overlap
     ethr =  2.53E-06,  avg # of iterations = 10.3

     negative rho (up, down):  1.547E-01 1.804E-02

     total cpu time spent up to now is    15003.7 secs

     total energy              =  -21093.74920257 Ry
     Harris-Foulkes estimate   =  -21093.75577042 Ry
     estimated scf accuracy    <       0.01759529 Ry

     total magnetization       =   160.41 Bohr mag/cell
     absolute magnetization    =   167.02 Bohr mag/cell

     iteration # 22     ecut=    60.00 Ry     beta= 0.20
     Davidson diagonalization with overlap
     ethr =  1.71E-06,  avg # of iterations =  6.7

     negative rho (up, down):  1.561E-01 1.720E-02

     total cpu time spent up to now is    15792.1 secs

     total energy              =  -21093.74791731 Ry
     Harris-Foulkes estimate   =  -21093.74997902 Ry
     estimated scf accuracy    <       0.01197989 Ry

     total magnetization       =   160.79 Bohr mag/cell
     absolute magnetization    =   167.40 Bohr mag/cell

     iteration # 23     ecut=    60.00 Ry     beta= 0.20
     Davidson diagonalization with overlap
     ethr =  1.16E-06,  avg # of iterations =  9.0

     negative rho (up, down):  8.371E-02 1.745E-02

     total cpu time spent up to now is    17018.9 secs

     total energy              =  -21093.74933246 Ry
     Harris-Foulkes estimate   =  -21093.74898086 Ry
     estimated scf accuracy    <       0.00568283 Ry

     total magnetization       =   160.88 Bohr mag/cell
     absolute magnetization    =   167.50 Bohr mag/cell

     iteration # 24     ecut=    60.00 Ry     beta= 0.20
     Davidson diagonalization with overlap
     ethr =  5.52E-07,  avg # of iterations = 16.1

     negative rho (up, down):  6.221E-02 1.905E-02

     total cpu time spent up to now is    20083.3 secs

     total energy              =  -21093.74895874 Ry
     Harris-Foulkes estimate   =  -21093.75190251 Ry
     estimated scf accuracy    <       0.00786173 Ry

     total magnetization       =   161.04 Bohr mag/cell
     absolute magnetization    =   167.60 Bohr mag/cell

     iteration # 25     ecut=    60.00 Ry     beta= 0.20
     Davidson diagonalization with overlap
     ethr =  5.52E-07,  avg # of iterations =  8.7

     negative rho (up, down):  4.522E-02 2.308E-02

     total cpu time spent up to now is    21302.0 secs

     total energy              =  -21093.75077722 Ry
     Harris-Foulkes estimate   =  -21093.74999537 Ry
     estimated scf accuracy    <       0.00146505 Ry

     total magnetization       =   160.93 Bohr mag/cell
     absolute magnetization    =   167.48 Bohr mag/cell

     iteration # 26     ecut=    60.00 Ry     beta= 0.20
     Davidson diagonalization with overlap
     ethr =  1.42E-07,  avg # of iterations =  7.2

     negative rho (up, down):  3.931E-02 2.076E-02

     total cpu time spent up to now is    22483.4 secs

     total energy              =  -21093.75169677 Ry
     Harris-Foulkes estimate   =  -21093.75110926 Ry
     estimated scf accuracy    <       0.00047211 Ry

     total magnetization       =   160.96 Bohr mag/cell
     absolute magnetization    =   167.49 Bohr mag/cell

     iteration # 27     ecut=    60.00 Ry     beta= 0.20
     Davidson diagonalization with overlap
     ethr =  4.58E-08,  avg # of iterations =  9.2

     negative rho (up, down):  3.624E-02 1.886E-02

     total cpu time spent up to now is    24245.8 secs

     total energy              =  -21093.75163583 Ry
     Harris-Foulkes estimate   =  -21093.75185945 Ry
     estimated scf accuracy    <       0.00032446 Ry

     total magnetization       =   161.03 Bohr mag/cell
     absolute magnetization    =   167.59 Bohr mag/cell

     iteration # 28     ecut=    60.00 Ry     beta= 0.20
     Davidson diagonalization with overlap
     ethr =  3.15E-08,  avg # of iterations =  6.5

     negative rho (up, down):  2.822E-02 1.850E-02

     total cpu time spent up to now is    25421.4 secs

     total energy              =  -21093.75224896 Ry
     Harris-Foulkes estimate   =  -21093.75168712 Ry
     estimated scf accuracy    <       0.00017619 Ry

     total magnetization       =   161.02 Bohr mag/cell
     absolute magnetization    =   167.61 Bohr mag/cell

     iteration # 29     ecut=    60.00 Ry     beta= 0.20
     Davidson diagonalization with overlap
     ethr =  1.71E-08,  avg # of iterations =  7.9

     negative rho (up, down):  2.576E-02 1.839E-02

     total cpu time spent up to now is    26455.0 secs

     total energy              =  -21093.75196701 Ry
     Harris-Foulkes estimate   =  -21093.75227263 Ry
     estimated scf accuracy    <       0.00012277 Ry

     total magnetization       =   161.00 Bohr mag/cell
     absolute magnetization    =   167.60 Bohr mag/cell

     iteration # 30     ecut=    60.00 Ry     beta= 0.20
     Davidson diagonalization with overlap
     ethr =  1.19E-08,  avg # of iterations =  8.5

     negative rho (up, down):  2.628E-02 1.836E-02

     total cpu time spent up to now is    27863.2 secs

     total energy              =  -21093.75110368 Ry
     Harris-Foulkes estimate   =  -21093.75199119 Ry
     estimated scf accuracy    <       0.00005189 Ry

     total magnetization       =   160.95 Bohr mag/cell
     absolute magnetization    =   167.55 Bohr mag/cell

     iteration # 31     ecut=    60.00 Ry     beta= 0.20
     Davidson diagonalization with overlap
     ethr =  5.04E-09,  avg # of iterations =  8.9

     negative rho (up, down):  2.609E-02 1.839E-02

     total cpu time spent up to now is    29395.6 secs

     total energy              =  -21093.75076030 Ry
     Harris-Foulkes estimate   =  -21093.75113055 Ry
     estimated scf accuracy    <       0.00003744 Ry

     total magnetization       =   160.94 Bohr mag/cell
     absolute magnetization    =   167.54 Bohr mag/cell

     iteration # 32     ecut=    60.00 Ry     beta= 0.20
     Davidson diagonalization with overlap
     ethr =  3.64E-09,  avg # of iterations =  4.5

     negative rho (up, down):  2.517E-02 1.842E-02

     total cpu time spent up to now is    30163.8 secs

     total energy              =  -21093.74960431 Ry
     Harris-Foulkes estimate   =  -21093.75076270 Ry
     estimated scf accuracy    <       0.00002456 Ry

     total magnetization       =   160.94 Bohr mag/cell
     absolute magnetization    =   167.54 Bohr mag/cell

     iteration # 33     ecut=    60.00 Ry     beta= 0.20
     Davidson diagonalization with overlap
     ethr =  2.38E-09,  avg # of iterations =  9.0

     negative rho (up, down):  2.528E-02 1.846E-02

     total cpu time spent up to now is    31797.0 secs

     total energy              =  -21093.74930242 Ry
     Harris-Foulkes estimate   =  -21093.74961043 Ry
     estimated scf accuracy    <       0.00001790 Ry

     total magnetization       =   160.95 Bohr mag/cell
     absolute magnetization    =   167.56 Bohr mag/cell

     iteration # 34     ecut=    60.00 Ry     beta= 0.20
     Davidson diagonalization with overlap
     ethr =  1.74E-09,  avg # of iterations =  8.3

     negative rho (up, down):  2.542E-02 1.843E-02

     total cpu time spent up to now is    32810.8 secs

     total energy              =  -21093.74912499 Ry
     Harris-Foulkes estimate   =  -21093.74930680 Ry
     estimated scf accuracy    <       0.00000408 Ry

     total magnetization       =   160.96 Bohr mag/cell
     absolute magnetization    =   167.57 Bohr mag/cell

     iteration # 35     ecut=    60.00 Ry     beta= 0.20
     Davidson diagonalization with overlap
     ethr =  3.96E-10,  avg # of iterations =  9.5

     negative rho (up, down):  2.490E-02 1.842E-02

     total cpu time spent up to now is    34400.0 secs

     total energy              =  -21093.74906315 Ry
     Harris-Foulkes estimate   =  -21093.74912659 Ry
     estimated scf accuracy    <       0.00000276 Ry

     total magnetization       =   160.97 Bohr mag/cell
     absolute magnetization    =   167.58 Bohr mag/cell

     iteration # 36     ecut=    60.00 Ry     beta= 0.20
     Davidson diagonalization with overlap
     ethr =  2.68E-10,  avg # of iterations =  7.0

     negative rho (up, down):  2.489E-02 1.848E-02

     total cpu time spent up to now is    35416.8 secs

     total energy              =  -21093.74874382 Ry
     Harris-Foulkes estimate   =  -21093.74906362 Ry
     estimated scf accuracy    <       0.00000186 Ry

     total magnetization       =   160.98 Bohr mag/cell
     absolute magnetization    =   167.59 Bohr mag/cell

     iteration # 37     ecut=    60.00 Ry     beta= 0.20
     Davidson diagonalization with overlap
     c_bands:  1 eigenvalues not converged
     ethr =  1.81E-10,  avg # of iterations =  8.2

     negative rho (up, down):  2.487E-02 1.844E-02

     total cpu time spent up to now is    36492.3 secs

     total energy              =  -21093.74871893 Ry
     Harris-Foulkes estimate   =  -21093.74874442 Ry
     estimated scf accuracy    <       0.00000021 Ry

     total magnetization       =   160.98 Bohr mag/cell
     absolute magnetization    =   167.60 Bohr mag/cell

     iteration # 38     ecut=    60.00 Ry     beta= 0.20
     Davidson diagonalization with overlap
     ethr =  2.04E-11,  avg # of iterations = 12.7

     negative rho (up, down):  2.482E-02 1.843E-02

     total cpu time spent up to now is    38640.6 secs

     total energy              =  -21093.74874670 Ry
     Harris-Foulkes estimate   =  -21093.74871913 Ry
     estimated scf accuracy    <       0.00000018 Ry

     total magnetization       =   160.98 Bohr mag/cell
     absolute magnetization    =   167.60 Bohr mag/cell

     iteration # 39     ecut=    60.00 Ry     beta= 0.20
     Davidson diagonalization with overlap
     ethr =  1.76E-11,  avg # of iterations =  3.0

     negative rho (up, down):  2.483E-02 1.844E-02

     total cpu time spent up to now is    39444.2 secs

     total energy              =  -21093.74876454 Ry
     Harris-Foulkes estimate   =  -21093.74874669 Ry
     estimated scf accuracy    <       0.00000014 Ry

     total magnetization       =   160.98 Bohr mag/cell
     absolute magnetization    =   167.60 Bohr mag/cell

     iteration # 40     ecut=    60.00 Ry     beta= 0.20
     Davidson diagonalization with overlap
     ethr =  1.39E-11,  avg # of iterations =  6.3

     negative rho (up, down):  2.484E-02 1.843E-02

     total cpu time spent up to now is    40371.2 secs

     total energy              =  -21093.74876904 Ry
     Harris-Foulkes estimate   =  -21093.74876452 Ry
     estimated scf accuracy    <       0.00000007 Ry

     total magnetization       =   160.98 Bohr mag/cell
     absolute magnetization    =   167.60 Bohr mag/cell

     iteration # 41     ecut=    60.00 Ry     beta= 0.20
     Davidson diagonalization with overlap
     ethr =  7.22E-12,  avg # of iterations =  8.0

     negative rho (up, down):  2.486E-02 1.844E-02

     total cpu time spent up to now is    42304.6 secs

     total energy              =  -21093.74874207 Ry
     Harris-Foulkes estimate   =  -21093.74876903 Ry
     estimated scf accuracy    <       0.00000005 Ry

     total magnetization       =   160.98 Bohr mag/cell
     absolute magnetization    =   167.60 Bohr mag/cell

     iteration # 42     ecut=    60.00 Ry     beta= 0.20
     Davidson diagonalization with overlap
     ethr =  5.11E-12,  avg # of iterations =  8.0

     negative rho (up, down):  2.487E-02 1.843E-02

     total cpu time spent up to now is    43472.9 secs

     total energy              =  -21093.74874720 Ry
     Harris-Foulkes estimate   =  -21093.74874208 Ry
     estimated scf accuracy    <       0.00000005 Ry

     total magnetization       =   160.99 Bohr mag/cell
     absolute magnetization    =   167.60 Bohr mag/cell

     iteration # 43     ecut=    60.00 Ry     beta= 0.20
     Davidson diagonalization with overlap
     ethr =  4.37E-12,  avg # of iterations =  5.3

     negative rho (up, down):  2.488E-02 1.844E-02

     total cpu time spent up to now is    44777.1 secs

     total energy              =  -21093.74873018 Ry
     Harris-Foulkes estimate   =  -21093.74874722 Ry
     estimated scf accuracy    <       0.00000002 Ry

     total magnetization       =   160.99 Bohr mag/cell
     absolute magnetization    =   167.60 Bohr mag/cell

     iteration # 44     ecut=    60.00 Ry     beta= 0.20
     Davidson diagonalization with overlap
     ethr =  1.61E-12,  avg # of iterations =  6.4

     negative rho (up, down):  2.489E-02 1.843E-02

     Magnetic moment per site:
     atom:    1    charge:   12.9336    magn:    2.4316    constr:    0.0000
     atom:    2    charge:   12.9297    magn:    2.2609    constr:    0.0000
     atom:    3    charge:   12.9329    magn:    2.4375    constr:    0.0000
     atom:    4    charge:   12.9262    magn:    2.2577    constr:    0.0000
     atom:    5    charge:   12.9307    magn:    2.2391    constr:    0.0000
     atom:    6    charge:   12.9324    magn:    2.4048    constr:    0.0000
     atom:    7    charge:   12.9271    magn:    2.2420    constr:    0.0000
     atom:    8    charge:   12.9296    magn:    2.4339    constr:    0.0000
     atom:    9    charge:   12.9339    magn:    2.4296    constr:    0.0000
     atom:   10    charge:   12.9331    magn:    2.4371    constr:    0.0000
     atom:   11    charge:   12.9261    magn:    2.2650    constr:    0.0000
     atom:   12    charge:   12.9276    magn:    2.2547    constr:    0.0000
     atom:   13    charge:   12.9268    magn:    2.2543    constr:    0.0000
     atom:   14    charge:   12.9311    magn:    2.2058    constr:    0.0000
     atom:   15    charge:   12.9353    magn:    2.3897    constr:    0.0000
     atom:   16    charge:   12.9339    magn:    2.4067    constr:    0.0000
     atom:   17    charge:   12.9331    magn:    2.4375    constr:    0.0000
     atom:   18    charge:   12.9261    magn:    2.2577    constr:    0.0000
     atom:   19    charge:   12.9331    magn:    2.4375    constr:    0.0000
     atom:   20    charge:   12.9272    magn:    2.2491    constr:    0.0000
     atom:   21    charge:   12.9272    magn:    2.2417    constr:    0.0000
     atom:   22    charge:   12.9296    magn:    2.4340    constr:    0.0000
     atom:   23    charge:   12.9272    magn:    2.2418    constr:    0.0000
     atom:   24    charge:   12.9384    magn:    1.9191    constr:    0.0000
     atom:   25    charge:   12.9320    magn:    2.4447    constr:    0.0000
     atom:   26    charge:   12.9334    magn:    2.4312    constr:    0.0000
     atom:   27    charge:   12.9251    magn:    2.2649    constr:    0.0000
     atom:   28    charge:   12.9261    magn:    2.2650    constr:    0.0000
     atom:   29    charge:   12.9307    magn:    2.2881    constr:    0.0000
     atom:   30    charge:   12.9323    magn:    2.1796    constr:    0.0000
     atom:   31    charge:   12.9245    magn:    2.3144    constr:    0.0000
     atom:   32    charge:   12.9353    magn:    2.3894    constr:    0.0000
     atom:   33    charge:   12.9332    magn:    2.4316    constr:    0.0000
     atom:   34    charge:   12.9261    magn:    2.2577    constr:    0.0000
     atom:   35    charge:   12.9332    magn:    2.4315    constr:    0.0000
     atom:   36    charge:   12.9288    magn:    2.2609    constr:    0.0000
     atom:   37    charge:   12.9304    magn:    2.2394    constr:    0.0000
     atom:   38    charge:   12.9296    magn:    2.4338    constr:    0.0000
     atom:   39    charge:   12.9304    magn:    2.2395    constr:    0.0000
     atom:   40    charge:   12.9322    magn:    2.4041    constr:    0.0000
     atom:   41    charge:   12.9333    magn:    2.4434    constr:    0.0000
     atom:   42    charge:   12.9328    magn:    2.4311    constr:    0.0000
     atom:   43    charge:   12.9276    magn:    2.2548    constr:    0.0000
     atom:   44    charge:   12.9258    magn:    2.2649    constr:    0.0000
     atom:   45    charge:   12.9307    magn:    2.2194    constr:    0.0000
     atom:   46    charge:   12.9324    magn:    2.1791    constr:    0.0000
     atom:   47    charge:   12.9339    magn:    2.4065    constr:    0.0000
     atom:   48    charge:   12.9355    magn:    2.3898    constr:    0.0000
     atom:   49    charge:   12.9329    magn:    2.4375    constr:    0.0000
     atom:   50    charge:   12.9269    magn:    2.2490    constr:    0.0000
     atom:   51    charge:   12.9336    magn:    2.4316    constr:    0.0000
     atom:   52    charge:   12.9262    magn:    2.2577    constr:    0.0000
     atom:   53    charge:   12.9270    magn:    2.2422    constr:    0.0000
     atom:   54    charge:   12.9380    magn:    1.9191    constr:    0.0000
     atom:   55    charge:   12.9307    magn:    2.2391    constr:    0.0000
     atom:   56    charge:   12.9296    magn:    2.4337    constr:    0.0000
     atom:   57    charge:   12.9339    magn:    2.4296    constr:    0.0000
     atom:   58    charge:   12.9331    magn:    2.4372    constr:    0.0000
     atom:   59    charge:   12.9258    magn:    2.2649    constr:    0.0000
     atom:   60    charge:   12.9251    magn:    2.2650    constr:    0.0000
     atom:   61    charge:   12.9268    magn:    2.2543    constr:    0.0000
     atom:   62    charge:   12.9311    magn:    2.2058    constr:    0.0000
     atom:   63    charge:   12.9355    magn:    2.3901    constr:    0.0000
     atom:   64    charge:   12.9245    magn:    2.3116    constr:    0.0000
     atom:   65    charge:    1.3296    magn:   -0.0310    constr:    0.0000
     atom:   66    charge:    0.4395    magn:    0.0070    constr:    0.0000

     total cpu time spent up to now is    45815.0 secs

     End of self-consistent calculation

 ------ SPIN UP ------------


          k = 0.0000 0.0000 0.0000 (128403 PWs)   bands (ev):

   -90.8232 -90.8211 -90.7795 -90.7687 -90.7654 -90.7636 -90.7630 -90.7621
   -90.7594 -90.7572 -90.7566 -90.7523 -90.7485 -90.7442 -90.7426 -90.7425
   -90.7374 -90.7353 -90.7340 -90.7324 -90.7290 -90.7289 -90.7247 -90.7174
   -90.7131 -90.7111 -90.7070 -90.7068 -90.7063 -90.6981 -90.6732 -90.6678
   -90.6595 -90.6398 -90.6285 -90.6260 -90.6252 -90.6183 -90.6140 -90.6130
   -90.6053 -90.6052 -90.6050 -90.6023 -90.6007 -90.6005 -90.5989 -90.5957
   -90.5943 -90.5928 -90.5901 -90.5892 -90.5871 -90.5870 -90.5856 -90.5815
   -90.5786 -90.5784 -90.5739 -90.5711 -90.5666 -90.5640 -90.5583 -90.5485
   -57.0084 -56.9980 -56.9745 -56.9593 -56.9572 -56.9531 -56.9515 -56.9491
   -56.9477 -56.9474 -56.9452 -56.9447 -56.9437 -56.9427 -56.9405 -56.9376
   -56.9349 -56.9291 -56.9288 -56.9246 -56.9231 -56.9211 -56.9201 -56.9151
   -56.9131 -56.9126 -56.9064 -56.9061 -56.9030 -56.9009 -56.8994 -56.8993
   -56.8987 -56.8889 -56.8852 -56.8843 -56.8838 -56.8687 -56.8628 -56.8626
   -56.8623 -56.8622 -56.8573 -56.8569 -56.8501 -56.8492 -56.8273 -56.8148
   -56.8054 -56.8053 -56.8041 -56.7980 -56.7941 -56.7900 -56.7898 -56.7875
   -56.7863 -56.7833 -56.7812 -56.7800 -56.7781 -56.7780 -56.7779 -56.7738
   -56.7725 -56.7676 -56.7633 -56.7631 -56.7622 -56.7607 -56.7576 -56.7560
   -56.7513 -56.7442 -56.7412 -56.7393 -56.7392 -56.7387 -56.7327 -56.7319
   -56.7268 -56.7236 -56.7218 -56.7199 -56.7183 -56.7183 -56.7161 -56.7149
   -56.7118 -56.7116 -56.7100 -56.7081 -56.7073 -56.7026 -56.7004 -56.7000
   -56.6983 -56.6966 -56.6954 -56.6908 -56.6837 -56.6827 -56.6799 -56.6798
   -56.6753 -56.6725 -56.6710 -56.6652 -56.6646 -56.6646 -56.6628 -56.6606
   -56.6592 -56.6569 -56.6534 -56.6531 -56.6516 -56.6480 -56.6462 -56.6443
   -56.6428 -56.6415 -56.6414 -56.6408 -56.6396 -56.6358 -56.6356 -56.6339
   -56.6331 -56.6314 -56.6288 -56.6223 -56.6204 -56.6193 -56.6173 -56.6166
   -56.6101 -56.6092 -56.6085 -56.6056 -56.6029 -56.6020 -56.6017 -56.5996
   -56.5984 -56.5980 -56.5844 -56.5844 -56.5766 -56.5755 -56.5743 -56.5729
   -56.5726 -56.5691 -56.5688 -56.5676 -56.5597 -56.5587 -56.5542 -56.5521
   -56.5515 -56.5510 -56.5493 -56.5477 -56.5459 -56.5438 -56.5402 -56.5358
   -56.5338 -56.5337 -56.5306 -56.5252 -56.5235 -56.5190 -56.5182 -56.5165
   -56.5142 -56.5115 -56.5077 -56.5073 -56.5044 -56.5003 -56.4993 -56.4974
   -56.4958 -56.4951 -56.4947 -56.4939 -56.4933 -56.4917 -56.4875 -56.4841
   -18.9025 -10.7612 -10.3857  -9.2340  -8.9464  -8.8938  -8.8561  -8.8126
    -8.4408  -8.3696  -8.2042  -8.1987  -7.9134  -7.8769  -7.7440  -7.7215
    -7.5815  -7.4541  -7.4134  -7.3765  -7.2478  -7.2454  -7.2034  -7.2022
    -7.1859  -7.1414  -7.1194  -7.0606  -7.0571  -6.8147  -6.7838  -6.7743
    -6.7720  -6.7400  -6.6901  -6.6893  -6.6703  -6.6686  -6.6673  -6.6503
    -6.6485  -6.6460  -6.6421  -6.6406  -6.6404  -6.6339  -6.6121  -6.6081
    -6.5941  -6.5916  -6.5795  -6.5683  -6.5618  -6.5562  -6.5356  -6.5129
    -6.4861  -6.4701  -6.4562  -6.4002  -6.3957  -6.3896  -6.3777  -6.3720
    -6.2972  -6.2843  -6.1027  -6.0960  -6.0688  -6.0665  -6.0650  -6.0424
    -5.9788  -5.9355  -5.9183  -5.9082  -5.8998  -5.8948  -5.8919  -5.8893
    -5.8711  -5.8628  -5.8540  -5.8526  -5.8478  -5.8460  -5.8400  -5.8383
    -5.8353  -5.8295  -5.8257  -5.8124  -5.8111  -5.8092  -5.8029  -5.7894
    -5.7735  -5.7612  -5.7602  -5.7487  -5.7487  -5.7362  -5.7302  -5.7267
    -5.7202  -5.6998  -5.6965  -5.6947  -5.6902  -5.6880  -5.6796  -5.6183
    -5.6124  -5.5366  -5.5157  -5.5152  -5.5129  -5.5090  -5.4569  -5.4428
    -5.4015  -5.3924  -5.3243  -5.3217  -5.3145  -5.3100  -5.3041  -5.3034
    -5.2956  -5.2716  -5.2636  -5.2397  -5.2393  -5.2186  -5.2105  -5.2033
    -5.1927  -5.1889  -5.1760  -5.1739  -5.1691  -5.1679  -5.1633  -5.1563
    -5.1493  -5.1100  -5.1083  -5.0803  -5.0776  -5.0200  -5.0155  -5.0150
    -5.0144  -4.9873  -4.9652  -4.9642  -4.9598  -4.9523  -4.9388  -4.9246
    -4.8963  -4.8904  -4.8903  -4.8682  -4.8626  -4.8608  -4.8606  -4.8604
    -4.8259  -4.8191  -4.8098  -4.7933  -4.7817  -4.7714  -4.7687  -4.7643
    -4.7447  -4.7436  -4.7368  -4.7361  -4.7322  -4.7267  -4.7093  -4.7059
    -4.6781  -4.6713  -4.6130  -4.6068  -4.5984  -4.4907  -4.4858  -4.3483
    -4.3322  -4.3261  -4.2122  -4.2095  -4.2051  -4.1987  -4.1962  -4.1897
    -4.1799  -4.1755  -4.1642  -4.1454  -4.1365  -4.1364  -4.1241  -4.1140
    -4.0704  -4.0660  -4.0590  -4.0365  -4.0341  -4.0189  -4.0120  -4.0099
    -4.0042  -3.9926  -3.9925  -3.9858  -3.9840  -3.9769  -3.9454  -3.9416
    -3.9319  -3.9260  -3.9172  -3.9098  -3.8980  -3.8940  -3.8873  -3.8871
    -3.8642  -3.8624  -3.8594  -3.8513  -3.8511  -3.8475  -3.8328  -3.8321
    -3.8304  -3.8023  -3.7958  -3.7901  -3.7885  -3.7867  -3.7814  -3.7792
    -3.7767  -3.7700  -3.7689  -3.7679  -3.7655  -3.7625  -3.7588  -3.7544
    -3.7525  -3.7471  -3.7400  -3.7376  -3.7344  -3.7313  -3.7216  -3.7162
    -3.7088  -3.6987  -3.6925  -3.6908  -3.6798  -3.6734  -3.6614  -3.6549
    -3.6536  -3.6534  -3.6482  -3.6453  -3.6420  -3.6337  -3.6303  -3.6282
    -3.6076  -3.6020  -3.5763  -3.5701  -3.5585  -3.5472  -3.5342  -3.5330
    -3.5222  -3.5143  -3.5075  -3.4998  -3.4342  -3.4277  -3.4016  -3.3981
    -3.3915  -3.3851  -3.3778  -3.3688  -3.3663  -3.3605  -3.3573  -3.3557
    -3.3499  -3.3356  -3.3326  -3.3312  -3.3153  -3.2992  -3.2945  -3.2935
    -3.2931  -3.2831  -3.2302  -3.2050  -3.1033  -3.0406  -2.9028  -2.8980
    -2.8927  -2.8756  -2.8090  -2.8043  -2.7820  -2.7706  -2.7674  -2.7387
    -2.7124  -2.6791  -2.6707  -2.6421  -2.6322  -2.6271  -2.6083  -2.5706
    -2.5560  -2.5526  -2.5154  -2.4417  -2.4185  -2.3855  -2.3849  -2.3145
    -2.2942  -2.2262  -2.0545  -2.0296  -1.9576  -1.6062  -1.5818  -1.5674
    -1.5583  -1.3399  -1.2790  -1.0674  -0.6739  -0.6682  -0.6674  -0.6230
    -0.6169  -0.6044

          k = 0.0000 0.2652 0.0000 (128375 PWs)   bands (ev):

   -90.8232 -90.8211 -90.7783 -90.7689 -90.7683 -90.7651 -90.7621 -90.7607
   -90.7585 -90.7576 -90.7554 -90.7529 -90.7492 -90.7458 -90.7427 -90.7390
   -90.7369 -90.7359 -90.7358 -90.7317 -90.7303 -90.7285 -90.7232 -90.7182
   -90.7125 -90.7107 -90.7079 -90.7072 -90.7054 -90.6983 -90.6732 -90.6677
   -90.6594 -90.6392 -90.6322 -90.6259 -90.6226 -90.6180 -90.6130 -90.6110
   -90.6082 -90.6058 -90.6045 -90.6040 -90.6009 -90.6003 -90.5987 -90.5951
   -90.5942 -90.5920 -90.5900 -90.5892 -90.5869 -90.5865 -90.5858 -90.5809
   -90.5798 -90.5776 -90.5754 -90.5717 -90.5664 -90.5632 -90.5572 -90.5494
   -57.0076 -56.9982 -56.9730 -56.9610 -56.9583 -56.9537 -56.9524 -56.9504
   -56.9486 -56.9467 -56.9446 -56.9440 -56.9428 -56.9409 -56.9388 -56.9368
   -56.9349 -56.9300 -56.9290 -56.9248 -56.9224 -56.9211 -56.9206 -56.9136
   -56.9128 -56.9101 -56.9072 -56.9052 -56.9021 -56.9000 -56.8984 -56.8967
   -56.8934 -56.8890 -56.8834 -56.8801 -56.8751 -56.8717 -56.8697 -56.8643
   -56.8593 -56.8576 -56.8530 -56.8510 -56.8495 -56.8431 -56.8234 -56.8212
   -56.8148 -56.8077 -56.8058 -56.8045 -56.8022 -56.7995 -56.7952 -56.7916
   -56.7889 -56.7842 -56.7811 -56.7801 -56.7795 -56.7771 -56.7765 -56.7732
   -56.7713 -56.7705 -56.7697 -56.7667 -56.7642 -56.7613 -56.7585 -56.7558
   -56.7539 -56.7525 -56.7508 -56.7484 -56.7459 -56.7384 -56.7367 -56.7347
   -56.7322 -56.7298 -56.7262 -56.7254 -56.7232 -56.7200 -56.7140 -56.7132
   -56.7110 -56.7083 -56.7045 -56.7033 -56.7006 -56.6987 -56.6960 -56.6958
   -56.6935 -56.6901 -56.6899 -56.6869 -56.6866 -56.6848 -56.6811 -56.6775
   -56.6759 -56.6731 -56.6717 -56.6685 -56.6663 -56.6655 -56.6637 -56.6615
   -56.6606 -56.6579 -56.6569 -56.6548 -56.6533 -56.6497 -56.6466 -56.6448
   -56.6441 -56.6412 -56.6374 -56.6372 -56.6328 -56.6310 -56.6300 -56.6284
   -56.6261 -56.6232 -56.6227 -56.6222 -56.6194 -56.6158 -56.6138 -56.6115
   -56.6102 -56.6084 -56.6070 -56.6025 -56.6021 -56.6000 -56.5993 -56.5949
   -56.5910 -56.5888 -56.5875 -56.5848 -56.5813 -56.5769 -56.5748 -56.5730
   -56.5711 -56.5675 -56.5669 -56.5648 -56.5610 -56.5604 -56.5572 -56.5556
   -56.5507 -56.5502 -56.5483 -56.5455 -56.5416 -56.5395 -56.5364 -56.5338
   -56.5329 -56.5296 -56.5268 -56.5242 -56.5236 -56.5195 -56.5194 -56.5183
   -56.5159 -56.5127 -56.5118 -56.5101 -56.5054 -56.5051 -56.5021 -56.5015
   -56.5014 -56.4996 -56.4987 -56.4964 -56.4955 -56.4932 -56.4911 -56.4859
   -18.9025 -10.7225 -10.3154  -9.5361  -9.1354  -9.0116  -8.7491  -8.5798
    -8.4594  -8.2145  -8.1948  -7.9955  -7.8960  -7.8388  -7.7351  -7.6826
    -7.5369  -7.4926  -7.4139  -7.3358  -7.2845  -7.2158  -7.1824  -7.1547
    -7.1403  -7.1240  -7.0971  -7.0753  -7.0536  -6.9401  -6.8770  -6.8332
    -6.8075  -6.7909  -6.7855  -6.7757  -6.7605  -6.7581  -6.7457  -6.7283
    -6.7152  -6.6978  -6.6858  -6.6675  -6.6514  -6.6419  -6.6227  -6.6182
    -6.5936  -6.5860  -6.5807  -6.5612  -6.5321  -6.5028  -6.4966  -6.4906
    -6.4846  -6.4779  -6.4396  -6.4003  -6.3937  -6.3363  -6.3158  -6.2892
    -6.2830  -6.2491  -6.1954  -6.1764  -6.1365  -6.0979  -6.0614  -6.0253
    -6.0066  -5.9951  -5.9676  -5.9184  -5.9075  -5.8959  -5.8900  -5.8788
    -5.8724  -5.8643  -5.8551  -5.8465  -5.8451  -5.8364  -5.8284  -5.8197
    -5.8094  -5.8036  -5.7978  -5.7958  -5.7812  -5.7781  -5.7678  -5.7579
    -5.7563  -5.7497  -5.7454  -5.7355  -5.7343  -5.7249  -5.7164  -5.6995
    -5.6695  -5.6631  -5.6552  -5.6444  -5.6408  -5.6243  -5.6043  -5.5975
    -5.5904  -5.5842  -5.5608  -5.5345  -5.4882  -5.4782  -5.4439  -5.4307
    -5.4087  -5.3991  -5.3922  -5.3814  -5.3696  -5.3239  -5.3011  -5.2986
    -5.2859  -5.2784  -5.2765  -5.2630  -5.2517  -5.2496  -5.2424  -5.2324
    -5.2267  -5.2060  -5.1967  -5.1922  -5.1894  -5.1659  -5.1528  -5.1400
    -5.1374  -5.0945  -5.0793  -5.0658  -5.0398  -5.0347  -5.0257  -5.0178
    -5.0100  -5.0015  -4.9954  -4.9922  -4.9866  -4.9771  -4.9672  -4.9587
    -4.9528  -4.9435  -4.9304  -4.9286  -4.9166  -4.8966  -4.8878  -4.8465
    -4.8349  -4.8219  -4.8037  -4.7955  -4.7827  -4.7681  -4.7629  -4.7418
    -4.7369  -4.7255  -4.7058  -4.6888  -4.6625  -4.6451  -4.6249  -4.5951
    -4.5932  -4.5614  -4.5354  -4.5320  -4.5177  -4.4600  -4.3627  -4.3310
    -4.3236  -4.3234  -4.2777  -4.2637  -4.2549  -4.2433  -4.2132  -4.2069
    -4.1849  -4.1767  -4.1732  -4.1663  -4.1516  -4.1406  -4.1403  -4.1279
    -4.1156  -4.0953  -4.0856  -4.0824  -4.0607  -4.0420  -4.0210  -4.0030
    -4.0007  -3.9939  -3.9887  -3.9832  -3.9779  -3.9698  -3.9595  -3.9536
    -3.9509  -3.9433  -3.9329  -3.9281  -3.8985  -3.8841  -3.8783  -3.8757
    -3.8695  -3.8635  -3.8526  -3.8488  -3.8447  -3.8367  -3.8290  -3.8275
    -3.8195  -3.8178  -3.8098  -3.8021  -3.7991  -3.7950  -3.7843  -3.7751
    -3.7712  -3.7579  -3.7534  -3.7495  -3.7415  -3.7355  -3.7310  -3.7286
    -3.7230  -3.7202  -3.7175  -3.7069  -3.7039  -3.6992  -3.6968  -3.6837
    -3.6780  -3.6745  -3.6618  -3.6595  -3.6572  -3.6543  -3.6513  -3.6504
    -3.6418  -3.6376  -3.6133  -3.6127  -3.6089  -3.6000  -3.5876  -3.5834
    -3.5779  -3.5571  -3.5410  -3.5219  -3.5157  -3.5138  -3.5026  -3.4985
    -3.4874  -3.4820  -3.4702  -3.4606  -3.4551  -3.4518  -3.4464  -3.4318
    -3.4179  -3.4075  -3.3844  -3.3823  -3.3776  -3.3704  -3.3582  -3.3533
    -3.3382  -3.3341  -3.3318  -3.3167  -3.3066  -3.2867  -3.2426  -3.2122
    -3.1965  -3.1879  -3.1120  -3.0748  -3.0450  -2.9562  -2.9418  -2.9164
    -2.9158  -2.8975  -2.8768  -2.8739  -2.8603  -2.8272  -2.7949  -2.7923
    -2.7786  -2.7722  -2.7522  -2.7439  -2.7341  -2.7159  -2.7075  -2.6731
    -2.6651  -2.6539  -2.6014  -2.5796  -2.5495  -2.5133  -2.5003  -2.3609
    -2.3275  -2.1087  -1.9532  -1.9164  -1.8523  -1.7277  -1.6501  -1.5575
    -1.4484  -1.3900  -1.3077  -1.2604  -1.2007  -1.0410  -1.0011  -0.9434
    -0.7802  -0.7171

          k = 0.0000-0.5303 0.0000 (128388 PWs)   bands (ev):

   -90.8231 -90.8211 -90.7760 -90.7728 -90.7672 -90.7667 -90.7601 -90.7594
   -90.7590 -90.7589 -90.7545 -90.7540 -90.7493 -90.7462 -90.7410 -90.7405
   -90.7365 -90.7354 -90.7342 -90.7334 -90.7315 -90.7282 -90.7208 -90.7200
   -90.7111 -90.7110 -90.7087 -90.7075 -90.7049 -90.6986 -90.6732 -90.6677
   -90.6592 -90.6381 -90.6348 -90.6264 -90.6213 -90.6156 -90.6139 -90.6095
   -90.6086 -90.6080 -90.6060 -90.6032 -90.6014 -90.5997 -90.5989 -90.5943
   -90.5940 -90.5920 -90.5906 -90.5891 -90.5875 -90.5852 -90.5846 -90.5807
   -90.5803 -90.5775 -90.5768 -90.5725 -90.5657 -90.5633 -90.5555 -90.5507
   -57.0067 -56.9983 -56.9691 -56.9668 -56.9573 -56.9533 -56.9530 -56.9521
   -56.9491 -56.9454 -56.9439 -56.9438 -56.9421 -56.9402 -56.9385 -56.9352
   -56.9336 -56.9331 -56.9266 -56.9250 -56.9229 -56.9212 -56.9203 -56.9141
   -56.9098 -56.9089 -56.9062 -56.9056 -56.9039 -56.8996 -56.8956 -56.8925
   -56.8865 -56.8804 -56.8794 -56.8784 -56.8778 -56.8770 -56.8692 -56.8614
   -56.8601 -56.8516 -56.8504 -56.8456 -56.8363 -56.8362 -56.8293 -56.8272
   -56.8200 -56.8199 -56.8180 -56.8087 -56.8072 -56.8066 -56.8035 -56.8020
   -56.7968 -56.7871 -56.7855 -56.7797 -56.7776 -56.7757 -56.7756 -56.7717
   -56.7691 -56.7662 -56.7641 -56.7639 -56.7611 -56.7608 -56.7576 -56.7562
   -56.7551 -56.7520 -56.7498 -56.7480 -56.7478 -56.7457 -56.7421 -56.7377
   -56.7369 -56.7362 -56.7337 -56.7302 -56.7296 -56.7272 -56.7270 -56.7264
   -56.7183 -56.7118 -56.7083 -56.7009 -56.7001 -56.6960 -56.6944 -56.6923
   -56.6918 -56.6904 -56.6852 -56.6830 -56.6829 -56.6803 -56.6762 -56.6761
   -56.6675 -56.6667 -56.6642 -56.6623 -56.6612 -56.6609 -56.6608 -56.6605
   -56.6590 -56.6572 -56.6553 -56.6551 -56.6501 -56.6497 -56.6455 -56.6442
   -56.6433 -56.6422 -56.6392 -56.6369 -56.6362 -56.6339 -56.6298 -56.6284
   -56.6265 -56.6243 -56.6231 -56.6179 -56.6152 -56.6130 -56.6117 -56.6067
   -56.6063 -56.6054 -56.6046 -56.5992 -56.5968 -56.5959 -56.5949 -56.5925
   -56.5882 -56.5882 -56.5855 -56.5855 -56.5831 -56.5811 -56.5806 -56.5755
   -56.5718 -56.5687 -56.5679 -56.5624 -56.5608 -56.5560 -56.5556 -56.5544
   -56.5493 -56.5463 -56.5382 -56.5369 -56.5368 -56.5353 -56.5340 -56.5295
   -56.5288 -56.5262 -56.5236 -56.5225 -56.5225 -56.5222 -56.5200 -56.5198
   -56.5188 -56.5166 -56.5151 -56.5136 -56.5125 -56.5118 -56.5115 -56.5082
   -56.5081 -56.5076 -56.5043 -56.4996 -56.4961 -56.4938 -56.4920 -56.4866
   -18.9025 -10.6861 -10.0971  -9.9765  -9.0027  -8.9572  -8.9246  -8.7363
    -8.2886  -8.1581  -8.0668  -7.9865  -7.8720  -7.7154  -7.5632  -7.5492
    -7.4952  -7.4570  -7.4093  -7.3939  -7.2945  -7.2413  -7.2224  -7.1846
    -7.1212  -7.0920  -7.0294  -7.0123  -7.0070  -6.9948  -6.9889  -6.9779
    -6.9689  -6.9566  -6.9423  -6.9312  -6.8618  -6.8527  -6.7989  -6.7531
    -6.7397  -6.6681  -6.6471  -6.6390  -6.6344  -6.6280  -6.5625  -6.5535
    -6.5504  -6.5406  -6.5378  -6.5276  -6.5180  -6.5178  -6.5084  -6.5048
    -6.4542  -6.4471  -6.3961  -6.3853  -6.3764  -6.3581  -6.3444  -6.3350
    -6.2722  -6.2681  -6.2357  -6.2140  -6.1758  -6.1696  -6.1607  -6.1124
    -6.0768  -6.0108  -5.9383  -5.9233  -5.9022  -5.8976  -5.8799  -5.8710
    -5.8661  -5.8484  -5.8437  -5.8326  -5.8312  -5.8245  -5.8194  -5.8185
    -5.8059  -5.7923  -5.7837  -5.7832  -5.7803  -5.7783  -5.7563  -5.7561
    -5.7422  -5.7359  -5.6835  -5.6824  -5.6646  -5.6513  -5.6465  -5.6330
    -5.6223  -5.6078  -5.6077  -5.6013  -5.5950  -5.5866  -5.5861  -5.5830
    -5.5688  -5.5654  -5.5599  -5.5384  -5.5283  -5.5196  -5.5146  -5.4879
    -5.4781  -5.4191  -5.3780  -5.3639  -5.3063  -5.3058  -5.2896  -5.2753
    -5.2693  -5.2658  -5.2552  -5.2551  -5.2478  -5.2474  -5.2421  -5.2370
    -5.2279  -5.2253  -5.2235  -5.2083  -5.2012  -5.1916  -5.1843  -5.1776
    -5.1682  -5.1681  -5.1551  -5.1539  -5.1131  -5.1097  -5.0887  -5.0798
    -5.0664  -5.0603  -5.0437  -5.0407  -5.0254  -5.0238  -5.0097  -5.0005
    -4.9733  -4.9695  -4.9372  -4.9326  -4.8962  -4.8951  -4.8678  -4.8322
    -4.8017  -4.7750  -4.7705  -4.7614  -4.7520  -4.7513  -4.7329  -4.7209
    -4.7097  -4.7029  -4.6271  -4.6184  -4.5601  -4.4708  -4.4632  -4.4539
    -4.4526  -4.4422  -4.4080  -4.4003  -4.3933  -4.3913  -4.3708  -4.3485
    -4.3175  -4.3151  -4.3004  -4.2983  -4.2858  -4.2822  -4.2583  -4.2555
    -4.2454  -4.2388  -4.2355  -4.2312  -4.2047  -4.1860  -4.1469  -4.1276
    -4.1144  -4.1049  -4.1033  -4.0939  -4.0731  -4.0716  -4.0664  -4.0611
    -4.0215  -4.0134  -3.9947  -3.9782  -3.9637  -3.9617  -3.9592  -3.9546
    -3.9545  -3.9514  -3.9415  -3.9408  -3.9339  -3.9265  -3.9222  -3.9192
    -3.9179  -3.9114  -3.9096  -3.8936  -3.8802  -3.8780  -3.8243  -3.8191
    -3.8097  -3.8055  -3.7954  -3.7856  -3.7843  -3.7805  -3.7793  -3.7622
    -3.7589  -3.7493  -3.7455  -3.7415  -3.7405  -3.7364  -3.7260  -3.7211
    -3.7208  -3.7108  -3.7060  -3.7036  -3.6926  -3.6858  -3.6723  -3.6719
    -3.6647  -3.6586  -3.6381  -3.6343  -3.6176  -3.6124  -3.5993  -3.5975
    -3.5896  -3.5819  -3.5718  -3.5553  -3.5537  -3.5520  -3.5235  -3.5147
    -3.5099  -3.5093  -3.5083  -3.5023  -3.5017  -3.4927  -3.4878  -3.4876
    -3.4816  -3.4776  -3.4709  -3.4695  -3.4640  -3.4616  -3.4526  -3.4521
    -3.4502  -3.4103  -3.3924  -3.3853  -3.3720  -3.3047  -3.3026  -3.2755
    -3.2652  -3.2307  -3.2277  -3.2132  -3.1979  -3.1760  -3.0997  -3.0980
    -3.0770  -3.0718  -3.0587  -3.0399  -3.0334  -3.0281  -2.9980  -2.9959
    -2.9802  -2.9666  -2.9541  -2.9445  -2.9313  -2.9254  -2.9064  -2.8507
    -2.8302  -2.8261  -2.7925  -2.7858  -2.7588  -2.7571  -2.7552  -2.7415
    -2.7148  -2.7132  -2.6972  -2.6817  -2.6697  -2.6630  -2.6601  -2.5017
    -2.4072  -2.3601  -2.2061  -2.0846  -2.0122  -1.9535  -1.6722  -1.6071
    -1.3364  -1.2992  -1.0090  -0.9809  -0.9410  -0.8930  -0.8521  -0.8333
    -0.7951  -0.7714

          k = 0.2500-0.0884 0.0000 (128371 PWs)   bands (ev):

   -90.8232 -90.8211 -90.7783 -90.7689 -90.7683 -90.7651 -90.7621 -90.7607
   -90.7584 -90.7576 -90.7554 -90.7529 -90.7492 -90.7458 -90.7427 -90.7390
   -90.7369 -90.7359 -90.7358 -90.7317 -90.7303 -90.7285 -90.7232 -90.7182
   -90.7125 -90.7107 -90.7079 -90.7072 -90.7054 -90.6983 -90.6732 -90.6677
   -90.6594 -90.6392 -90.6322 -90.6259 -90.6226 -90.6180 -90.6130 -90.6110
   -90.6082 -90.6058 -90.6045 -90.6040 -90.6009 -90.6003 -90.5987 -90.5951
   -90.5942 -90.5920 -90.5900 -90.5892 -90.5869 -90.5865 -90.5858 -90.5809
   -90.5798 -90.5776 -90.5754 -90.5717 -90.5664 -90.5632 -90.5572 -90.5494
   -57.0076 -56.9982 -56.9730 -56.9610 -56.9583 -56.9537 -56.9524 -56.9504
   -56.9486 -56.9467 -56.9446 -56.9440 -56.9428 -56.9409 -56.9388 -56.9368
   -56.9349 -56.9300 -56.9290 -56.9248 -56.9224 -56.9211 -56.9206 -56.9136
   -56.9128 -56.9101 -56.9072 -56.9052 -56.9021 -56.9000 -56.8984 -56.8967
   -56.8934 -56.8890 -56.8834 -56.8801 -56.8751 -56.8717 -56.8697 -56.8643
   -56.8593 -56.8576 -56.8530 -56.8510 -56.8495 -56.8431 -56.8234 -56.8212
   -56.8148 -56.8077 -56.8058 -56.8045 -56.8022 -56.7995 -56.7952 -56.7916
   -56.7889 -56.7842 -56.7811 -56.7801 -56.7795 -56.7771 -56.7765 -56.7732
   -56.7713 -56.7705 -56.7697 -56.7667 -56.7642 -56.7613 -56.7585 -56.7558
   -56.7539 -56.7524 -56.7508 -56.7484 -56.7459 -56.7384 -56.7367 -56.7347
   -56.7322 -56.7298 -56.7262 -56.7254 -56.7232 -56.7200 -56.7140 -56.7132
   -56.7110 -56.7083 -56.7045 -56.7033 -56.7006 -56.6987 -56.6960 -56.6958
   -56.6935 -56.6901 -56.6899 -56.6869 -56.6866 -56.6848 -56.6811 -56.6775
   -56.6759 -56.6731 -56.6717 -56.6685 -56.6663 -56.6655 -56.6637 -56.6615
   -56.6606 -56.6579 -56.6569 -56.6548 -56.6533 -56.6497 -56.6466 -56.6448
   -56.6441 -56.6412 -56.6374 -56.6372 -56.6328 -56.6310 -56.6300 -56.6284
   -56.6261 -56.6232 -56.6227 -56.6222 -56.6194 -56.6158 -56.6138 -56.6115
   -56.6102 -56.6084 -56.6070 -56.6025 -56.6021 -56.6000 -56.5993 -56.5949
   -56.5910 -56.5888 -56.5875 -56.5848 -56.5813 -56.5769 -56.5748 -56.5730
   -56.5711 -56.5675 -56.5669 -56.5648 -56.5610 -56.5604 -56.5572 -56.5556
   -56.5507 -56.5502 -56.5483 -56.5455 -56.5416 -56.5395 -56.5365 -56.5338
   -56.5329 -56.5296 -56.5268 -56.5242 -56.5236 -56.5195 -56.5194 -56.5183
   -56.5159 -56.5127 -56.5118 -56.5101 -56.5055 -56.5051 -56.5021 -56.5015
   -56.5014 -56.4996 -56.4987 -56.4963 -56.4955 -56.4932 -56.4911 -56.4859
   -18.9025 -10.7225 -10.3154  -9.5361  -9.1354  -9.0116  -8.7491  -8.5798
    -8.4595  -8.2145  -8.1948  -7.9955  -7.8960  -7.8388  -7.7351  -7.6826
    -7.5369  -7.4926  -7.4139  -7.3358  -7.2845  -7.2159  -7.1824  -7.1547
    -7.1403  -7.1240  -7.0971  -7.0753  -7.0536  -6.9401  -6.8770  -6.8332
    -6.8075  -6.7909  -6.7855  -6.7757  -6.7605  -6.7581  -6.7457  -6.7283
    -6.7152  -6.6978  -6.6858  -6.6675  -6.6514  -6.6419  -6.6227  -6.6182
    -6.5936  -6.5860  -6.5807  -6.5612  -6.5321  -6.5028  -6.4966  -6.4906
    -6.4846  -6.4779  -6.4396  -6.4003  -6.3937  -6.3363  -6.3158  -6.2892
    -6.2830  -6.2491  -6.1954  -6.1764  -6.1365  -6.0979  -6.0614  -6.0253
    -6.0066  -5.9951  -5.9676  -5.9184  -5.9075  -5.8959  -5.8900  -5.8788
    -5.8724  -5.8643  -5.8551  -5.8465  -5.8451  -5.8364  -5.8284  -5.8197
    -5.8094  -5.8036  -5.7978  -5.7958  -5.7812  -5.7780  -5.7678  -5.7579
    -5.7563  -5.7497  -5.7454  -5.7355  -5.7343  -5.7249  -5.7164  -5.6995
    -5.6695  -5.6631  -5.6552  -5.6444  -5.6408  -5.6243  -5.6043  -5.5975
    -5.5904  -5.5842  -5.5608  -5.5345  -5.4882  -5.4782  -5.4439  -5.4307
    -5.4087  -5.3991  -5.3921  -5.3814  -5.3696  -5.3239  -5.3010  -5.2986
    -5.2859  -5.2784  -5.2765  -5.2630  -5.2517  -5.2496  -5.2424  -5.2324
    -5.2267  -5.2060  -5.1966  -5.1922  -5.1894  -5.1659  -5.1528  -5.1400
    -5.1374  -5.0945  -5.0793  -5.0658  -5.0398  -5.0347  -5.0257  -5.0178
    -5.0100  -5.0015  -4.9954  -4.9922  -4.9866  -4.9771  -4.9672  -4.9587
    -4.9528  -4.9435  -4.9304  -4.9286  -4.9166  -4.8966  -4.8878  -4.8465
    -4.8349  -4.8219  -4.8037  -4.7955  -4.7827  -4.7681  -4.7629  -4.7418
    -4.7369  -4.7255  -4.7058  -4.6888  -4.6625  -4.6451  -4.6249  -4.5951
    -4.5932  -4.5614  -4.5354  -4.5320  -4.5177  -4.4600  -4.3627  -4.3310
    -4.3236  -4.3234  -4.2777  -4.2637  -4.2549  -4.2433  -4.2132  -4.2069
    -4.1849  -4.1767  -4.1732  -4.1663  -4.1516  -4.1406  -4.1403  -4.1279
    -4.1156  -4.0953  -4.0856  -4.0824  -4.0606  -4.0420  -4.0210  -4.0030
    -4.0007  -3.9939  -3.9887  -3.9832  -3.9779  -3.9698  -3.9595  -3.9536
    -3.9509  -3.9433  -3.9329  -3.9281  -3.8986  -3.8841  -3.8783  -3.8757
    -3.8695  -3.8635  -3.8526  -3.8488  -3.8447  -3.8367  -3.8290  -3.8275
    -3.8195  -3.8178  -3.8098  -3.8021  -3.7991  -3.7950  -3.7843  -3.7751
    -3.7712  -3.7579  -3.7535  -3.7495  -3.7415  -3.7355  -3.7310  -3.7286
    -3.7230  -3.7202  -3.7175  -3.7069  -3.7039  -3.6992  -3.6968  -3.6837
    -3.6780  -3.6745  -3.6618  -3.6595  -3.6572  -3.6543  -3.6513  -3.6504
    -3.6418  -3.6376  -3.6133  -3.6127  -3.6089  -3.6000  -3.5877  -3.5834
    -3.5779  -3.5571  -3.5410  -3.5219  -3.5157  -3.5138  -3.5026  -3.4985
    -3.4874  -3.4820  -3.4702  -3.4606  -3.4551  -3.4518  -3.4464  -3.4318
    -3.4179  -3.4075  -3.3844  -3.3823  -3.3776  -3.3704  -3.3582  -3.3533
    -3.3382  -3.3341  -3.3318  -3.3167  -3.3065  -3.2867  -3.2426  -3.2122
    -3.1965  -3.1879  -3.1120  -3.0748  -3.0450  -2.9562  -2.9418  -2.9164
    -2.9158  -2.8975  -2.8768  -2.8739  -2.8603  -2.8272  -2.7949  -2.7923
    -2.7787  -2.7722  -2.7522  -2.7439  -2.7341  -2.7159  -2.7075  -2.6731
    -2.6651  -2.6539  -2.6014  -2.5796  -2.5495  -2.5133  -2.5003  -2.3609
    -2.3275  -2.1087  -1.9532  -1.9165  -1.8523  -1.7277  -1.6501  -1.5574
    -1.4484  -1.3900  -1.3077  -1.2604  -1.2007  -1.0410  -1.0011  -0.9433
    -0.7801  -0.7164

          k = 0.2500 0.1768 0.0000 (128340 PWs)   bands (ev):

   -90.8231 -90.8211 -90.7775 -90.7688 -90.7684 -90.7638 -90.7627 -90.7623
   -90.7608 -90.7575 -90.7572 -90.7513 -90.7459 -90.7427 -90.7424 -90.7419
   -90.7396 -90.7365 -90.7344 -90.7338 -90.7285 -90.7280 -90.7219 -90.7195
   -90.7122 -90.7096 -90.7092 -90.7076 -90.7047 -90.6987 -90.6733 -90.6677
   -90.6593 -90.6389 -90.6317 -90.6268 -90.6231 -90.6201 -90.6134 -90.6090
   -90.6081 -90.6043 -90.6032 -90.6018 -90.6016 -90.6004 -90.5993 -90.5956
   -90.5927 -90.5925 -90.5917 -90.5910 -90.5889 -90.5862 -90.5843 -90.5821
   -90.5789 -90.5770 -90.5766 -90.5709 -90.5653 -90.5633 -90.5571 -90.5500
   -57.0070 -56.9983 -56.9725 -56.9602 -56.9590 -56.9539 -56.9510 -56.9493
   -56.9484 -56.9475 -56.9465 -56.9447 -56.9423 -56.9407 -56.9380 -56.9359
   -56.9323 -56.9302 -56.9296 -56.9261 -56.9247 -56.9228 -56.9181 -56.9125
   -56.9108 -56.9094 -56.9091 -56.9044 -56.9035 -56.9009 -56.8948 -56.8944
   -56.8883 -56.8868 -56.8771 -56.8758 -56.8755 -56.8739 -56.8575 -56.8567
   -56.8562 -56.8559 -56.8520 -56.8496 -56.8474 -56.8418 -56.8211 -56.8200
   -56.8182 -56.8155 -56.8126 -56.8103 -56.8061 -56.8043 -56.8036 -56.8002
   -56.7963 -56.7953 -56.7875 -56.7864 -56.7844 -56.7792 -56.7758 -56.7734
   -56.7721 -56.7709 -56.7706 -56.7693 -56.7670 -56.7633 -56.7600 -56.7587
   -56.7583 -56.7529 -56.7490 -56.7479 -56.7417 -56.7408 -56.7368 -56.7366
   -56.7336 -56.7317 -56.7286 -56.7267 -56.7207 -56.7201 -56.7194 -56.7141
   -56.7102 -56.7080 -56.7063 -56.7045 -56.6997 -56.6973 -56.6972 -56.6928
   -56.6923 -56.6910 -56.6855 -56.6841 -56.6834 -56.6830 -56.6795 -56.6783
   -56.6760 -56.6739 -56.6737 -56.6699 -56.6684 -56.6679 -56.6660 -56.6620
   -56.6611 -56.6599 -56.6526 -56.6501 -56.6466 -56.6466 -56.6447 -56.6437
   -56.6425 -56.6406 -56.6362 -56.6331 -56.6320 -56.6300 -56.6286 -56.6271
   -56.6252 -56.6239 -56.6175 -56.6154 -56.6142 -56.6135 -56.6123 -56.6102
   -56.6102 -56.6067 -56.6048 -56.5990 -56.5982 -56.5948 -56.5941 -56.5904
   -56.5898 -56.5879 -56.5854 -56.5844 -56.5828 -56.5798 -56.5780 -56.5760
   -56.5724 -56.5677 -56.5665 -56.5596 -56.5563 -56.5549 -56.5519 -56.5501
   -56.5496 -56.5474 -56.5468 -56.5432 -56.5409 -56.5385 -56.5360 -56.5350
   -56.5344 -56.5318 -56.5268 -56.5251 -56.5233 -56.5217 -56.5195 -56.5180
   -56.5177 -56.5142 -56.5127 -56.5109 -56.5087 -56.5058 -56.5049 -56.5044
   -56.5031 -56.5028 -56.5021 -56.5011 -56.5008 -56.4986 -56.4954 -56.4893
   -18.9025 -10.7128 -10.2848  -9.2681  -9.2374  -9.2269  -9.0494  -8.4138
    -8.3951  -8.2185  -8.1794  -8.1138  -7.8906  -7.8295  -7.7282  -7.6405
    -7.4435  -7.4330  -7.3227  -7.2076  -7.2024  -7.2021  -7.1536  -7.1415
    -7.0907  -7.0765  -7.0746  -7.0568  -6.9776  -6.9638  -6.9521  -6.9295
    -6.8483  -6.8417  -6.8297  -6.8088  -6.7551  -6.7525  -6.7392  -6.7163
    -6.7123  -6.7021  -6.6982  -6.6837  -6.6817  -6.6731  -6.6726  -6.6705
    -6.6323  -6.6236  -6.5972  -6.5927  -6.5767  -6.5611  -6.5306  -6.4999
    -6.4651  -6.4487  -6.4361  -6.3465  -6.3376  -6.3081  -6.2949  -6.2895
    -6.2186  -6.2169  -6.1996  -6.1981  -6.1674  -6.1441  -6.1128  -6.0304
    -6.0293  -5.9981  -5.9524  -5.9293  -5.9240  -5.9175  -5.9043  -5.9013
    -5.8957  -5.8956  -5.8876  -5.8815  -5.8809  -5.8726  -5.8686  -5.8664
    -5.8568  -5.8358  -5.8266  -5.8180  -5.7766  -5.7630  -5.7545  -5.7416
    -5.7238  -5.7106  -5.6930  -5.6913  -5.6861  -5.6784  -5.6782  -5.6703
    -5.6592  -5.6379  -5.6346  -5.6076  -5.5921  -5.5654  -5.5553  -5.5490
    -5.5340  -5.5224  -5.5008  -5.4898  -5.4850  -5.4828  -5.4774  -5.4719
    -5.4688  -5.4604  -5.4551  -5.4344  -5.4141  -5.3860  -5.3814  -5.3660
    -5.3484  -5.3056  -5.2858  -5.2817  -5.2747  -5.2722  -5.2614  -5.2454
    -5.2299  -5.2164  -5.1932  -5.1885  -5.1844  -5.1806  -5.1670  -5.1589
    -5.1328  -5.1278  -5.1103  -5.1058  -5.0862  -5.0790  -5.0549  -5.0328
    -5.0161  -5.0088  -4.9913  -4.9849  -4.9838  -4.9777  -4.9604  -4.9566
    -4.9407  -4.9075  -4.8886  -4.8850  -4.8772  -4.8747  -4.8673  -4.8622
    -4.8519  -4.8472  -4.8410  -4.8332  -4.8283  -4.8216  -4.8201  -4.8052
    -4.7905  -4.7682  -4.7350  -4.7171  -4.7064  -4.5759  -4.5565  -4.5358
    -4.5230  -4.5053  -4.5006  -4.4269  -4.4093  -4.3919  -4.3557  -4.3447
    -4.3175  -4.2957  -4.2822  -4.2764  -4.2726  -4.2461  -4.2182  -4.1988
    -4.1950  -4.1779  -4.1751  -4.1625  -4.1597  -4.1429  -4.1369  -4.1122
    -4.0977  -4.0965  -4.0892  -4.0830  -4.0726  -4.0539  -4.0526  -4.0454
    -4.0430  -4.0309  -4.0017  -3.9999  -3.9623  -3.9598  -3.9411  -3.9329
    -3.9314  -3.9267  -3.9237  -3.9158  -3.9103  -3.9039  -3.8921  -3.8909
    -3.8774  -3.8737  -3.8498  -3.8479  -3.8394  -3.8369  -3.8333  -3.8266
    -3.8197  -3.8159  -3.8052  -3.8004  -3.7950  -3.7862  -3.7633  -3.7579
    -3.7516  -3.7449  -3.7437  -3.7335  -3.7267  -3.7144  -3.7053  -3.6980
    -3.6825  -3.6776  -3.6770  -3.6744  -3.6702  -3.6586  -3.6527  -3.6358
    -3.6287  -3.6258  -3.6144  -3.6139  -3.6069  -3.6016  -3.5986  -3.5949
    -3.5922  -3.5870  -3.5860  -3.5849  -3.5718  -3.5716  -3.5561  -3.5556
    -3.5470  -3.5252  -3.5186  -3.5145  -3.5128  -3.5082  -3.5077  -3.5051
    -3.4875  -3.4835  -3.4742  -3.4737  -3.4609  -3.4522  -3.4344  -3.4343
    -3.4257  -3.4066  -3.4020  -3.3982  -3.3559  -3.3539  -3.3366  -3.3280
    -3.3113  -3.2989  -3.2949  -3.2824  -3.2766  -3.2240  -3.2052  -3.1875
    -3.1661  -3.1627  -3.1375  -3.0926  -3.0065  -2.9953  -2.9906  -2.9225
    -2.9220  -2.8916  -2.8805  -2.8280  -2.8057  -2.7903  -2.7775  -2.7679
    -2.7599  -2.7513  -2.7447  -2.7293  -2.7235  -2.7048  -2.6986  -2.6473
    -2.6385  -2.5755  -2.5453  -2.5431  -2.4351  -2.4349  -2.4283  -2.3378
    -2.3059  -2.1058  -2.1009  -1.8987  -1.8557  -1.7586  -1.7583  -1.7302
    -1.6936  -1.6293  -1.6281  -1.5778  -1.5016  -1.4231  -1.3775  -1.1767
    -1.0391  -0.9623

          k = 0.2500-0.6187 0.0000 (128424 PWs)   bands (ev):

   -90.8231 -90.8212 -90.7751 -90.7715 -90.7678 -90.7655 -90.7653 -90.7608
   -90.7604 -90.7576 -90.7546 -90.7486 -90.7482 -90.7449 -90.7433 -90.7404
   -90.7381 -90.7371 -90.7369 -90.7312 -90.7283 -90.7275 -90.7221 -90.7201
   -90.7113 -90.7108 -90.7087 -90.7075 -90.7046 -90.6990 -90.6733 -90.6676
   -90.6591 -90.6376 -90.6345 -90.6283 -90.6213 -90.6182 -90.6112 -90.6101
   -90.6080 -90.6064 -90.6040 -90.6039 -90.6013 -90.6000 -90.5980 -90.5958
   -90.5942 -90.5921 -90.5905 -90.5901 -90.5886 -90.5850 -90.5836 -90.5826
   -90.5794 -90.5779 -90.5770 -90.5718 -90.5656 -90.5617 -90.5557 -90.5514
   -57.0061 -56.9985 -56.9692 -56.9638 -56.9611 -56.9550 -56.9509 -56.9493
   -56.9483 -56.9466 -56.9452 -56.9432 -56.9425 -56.9387 -56.9375 -56.9350
   -56.9336 -56.9326 -56.9286 -56.9271 -56.9223 -56.9221 -56.9174 -56.9124
   -56.9119 -56.9084 -56.9066 -56.9055 -56.9037 -56.9005 -56.8935 -56.8907
   -56.8857 -56.8775 -56.8725 -56.8717 -56.8704 -56.8677 -56.8645 -56.8580
   -56.8548 -56.8513 -56.8463 -56.8438 -56.8413 -56.8335 -56.8307 -56.8303
   -56.8275 -56.8239 -56.8233 -56.8164 -56.8126 -56.8105 -56.8073 -56.8025
   -56.8000 -56.7962 -56.7930 -56.7869 -56.7837 -56.7830 -56.7794 -56.7762
   -56.7723 -56.7711 -56.7686 -56.7643 -56.7614 -56.7597 -56.7564 -56.7542
   -56.7532 -56.7523 -56.7507 -56.7497 -56.7488 -56.7470 -56.7457 -56.7407
   -56.7387 -56.7355 -56.7333 -56.7308 -56.7276 -56.7245 -56.7225 -56.7186
   -56.7161 -56.7149 -56.7139 -56.7088 -56.7052 -56.6995 -56.6976 -56.6955
   -56.6914 -56.6896 -56.6863 -56.6822 -56.6795 -56.6776 -56.6742 -56.6728
   -56.6704 -56.6674 -56.6652 -56.6641 -56.6635 -56.6602 -56.6591 -56.6573
   -56.6559 -56.6547 -56.6517 -56.6495 -56.6488 -56.6449 -56.6436 -56.6418
   -56.6401 -56.6398 -56.6363 -56.6362 -56.6339 -56.6324 -56.6305 -56.6287
   -56.6267 -56.6206 -56.6174 -56.6152 -56.6136 -56.6111 -56.6083 -56.6055
   -56.6038 -56.6027 -56.6024 -56.5997 -56.5966 -56.5946 -56.5922 -56.5910
   -56.5910 -56.5904 -56.5875 -56.5846 -56.5776 -56.5769 -56.5747 -56.5731
   -56.5707 -56.5658 -56.5655 -56.5622 -56.5613 -56.5519 -56.5490 -56.5471
   -56.5450 -56.5406 -56.5388 -56.5377 -56.5370 -56.5354 -56.5343 -56.5305
   -56.5300 -56.5273 -56.5264 -56.5244 -56.5231 -56.5228 -56.5219 -56.5204
   -56.5190 -56.5179 -56.5173 -56.5157 -56.5136 -56.5127 -56.5119 -56.5109
   -56.5097 -56.5080 -56.5072 -56.5041 -56.5016 -56.5007 -56.4994 -56.4923
   -18.9025 -10.6807 -10.0751  -9.7966  -9.5147  -8.8905  -8.7811  -8.6024
    -8.4380  -8.2890  -8.0906  -8.0209  -7.6453  -7.6059  -7.5091  -7.4828
    -7.4722  -7.3858  -7.3776  -7.3524  -7.2494  -7.2397  -7.1761  -7.1653
    -7.1408  -7.1057  -7.0768  -7.0481  -7.0216  -7.0119  -6.9830  -6.9743
    -6.9641  -6.9564  -6.9150  -6.8655  -6.8587  -6.8491  -6.8372  -6.8185
    -6.7939  -6.7635  -6.7441  -6.7419  -6.7206  -6.6700  -6.6287  -6.6194
    -6.5959  -6.5608  -6.5443  -6.5329  -6.4906  -6.4777  -6.4472  -6.4268
    -6.3994  -6.3913  -6.3716  -6.3608  -6.3383  -6.3226  -6.3134  -6.2982
    -6.2655  -6.2538  -6.2273  -6.2105  -6.1982  -6.1923  -6.1365  -6.1139
    -6.0888  -6.0828  -6.0343  -5.9767  -5.9444  -5.9302  -5.9169  -5.9103
    -5.9034  -5.8908  -5.8861  -5.8765  -5.8640  -5.8494  -5.8084  -5.7966
    -5.7759  -5.7646  -5.7556  -5.7476  -5.7324  -5.7224  -5.7111  -5.7010
    -5.6924  -5.6861  -5.6822  -5.6726  -5.6654  -5.6617  -5.6506  -5.6410
    -5.6245  -5.6136  -5.6035  -5.5982  -5.5764  -5.5692  -5.5626  -5.5497
    -5.5460  -5.5364  -5.5179  -5.5017  -5.4973  -5.4682  -5.4624  -5.4556
    -5.4481  -5.4370  -5.4292  -5.4271  -5.4156  -5.4082  -5.3979  -5.3857
    -5.3805  -5.3766  -5.3659  -5.3559  -5.3551  -5.3441  -5.3252  -5.3033
    -5.2914  -5.2612  -5.2481  -5.2271  -5.1735  -5.1518  -5.1406  -5.1273
    -5.1255  -5.1135  -5.1071  -5.0926  -5.0853  -5.0783  -5.0713  -5.0594
    -5.0468  -5.0452  -5.0396  -5.0356  -5.0195  -5.0162  -5.0037  -4.9816
    -4.9720  -4.9663  -4.9596  -4.9558  -4.9198  -4.9022  -4.8503  -4.8378
    -4.8163  -4.8144  -4.7774  -4.7712  -4.7463  -4.7209  -4.7064  -4.6823
    -4.6595  -4.6216  -4.5964  -4.5645  -4.5497  -4.5386  -4.5270  -4.4976
    -4.4591  -4.4389  -4.4345  -4.4062  -4.3785  -4.3738  -4.3673  -4.3529
    -4.3377  -4.3246  -4.3236  -4.3131  -4.3073  -4.2892  -4.2572  -4.2374
    -4.2258  -4.2181  -4.1954  -4.1851  -4.1661  -4.1560  -4.1487  -4.1348
    -4.1282  -4.1005  -4.0996  -4.0838  -4.0787  -4.0684  -4.0614  -4.0593
    -4.0421  -4.0252  -4.0129  -4.0014  -3.9918  -3.9711  -3.9664  -3.9593
    -3.9535  -3.9471  -3.9422  -3.9313  -3.9274  -3.9160  -3.9102  -3.9041
    -3.8962  -3.8920  -3.8767  -3.8566  -3.8494  -3.8449  -3.8352  -3.8286
    -3.8164  -3.8092  -3.7994  -3.7944  -3.7834  -3.7758  -3.7721  -3.7575
    -3.7511  -3.7426  -3.7324  -3.7245  -3.7183  -3.7103  -3.7093  -3.7049
    -3.6923  -3.6797  -3.6680  -3.6627  -3.6591  -3.6516  -3.6398  -3.6373
    -3.6289  -3.6241  -3.6214  -3.6157  -3.6071  -3.6007  -3.5956  -3.5791
    -3.5704  -3.5668  -3.5620  -3.5579  -3.5490  -3.5436  -3.5369  -3.5315
    -3.5262  -3.5206  -3.5142  -3.5140  -3.5038  -3.5017  -3.4902  -3.4771
    -3.4663  -3.4507  -3.4418  -3.4321  -3.4182  -3.4017  -3.3973  -3.3939
    -3.3787  -3.3551  -3.3402  -3.3061  -3.2937  -3.2901  -3.2772  -3.2470
    -3.2341  -3.2023  -3.1899  -3.1599  -3.1483  -3.1348  -3.1089  -3.0947
    -3.0868  -3.0777  -3.0706  -3.0204  -3.0138  -2.9972  -2.9908  -2.9684
    -2.9467  -2.9333  -2.9245  -2.8915  -2.8782  -2.8726  -2.8603  -2.8524
    -2.8332  -2.8063  -2.7908  -2.7822  -2.7682  -2.7646  -2.7581  -2.7285
    -2.7148  -2.7019  -2.6770  -2.6701  -2.6406  -2.5920  -2.5571  -2.5414
    -2.4212  -2.3130  -2.2612  -2.1138  -2.0229  -1.9551  -1.8728  -1.8266
    -1.7811  -1.6257  -1.5583  -1.4394  -1.2965  -1.2388  -1.0899  -1.0281
    -0.9467  -0.8682

          k = 0.2500-0.3536 0.0000 (128397 PWs)   bands (ev):

   -90.8231 -90.8211 -90.7769 -90.7692 -90.7673 -90.7670 -90.7665 -90.7590
   -90.7588 -90.7552 -90.7540 -90.7510 -90.7507 -90.7476 -90.7432 -90.7391
   -90.7371 -90.7366 -90.7349 -90.7325 -90.7279 -90.7279 -90.7243 -90.7185
   -90.7122 -90.7109 -90.7079 -90.7069 -90.7055 -90.6986 -90.6733 -90.6677
   -90.6592 -90.6378 -90.6347 -90.6281 -90.6194 -90.6160 -90.6123 -90.6103
   -90.6101 -90.6080 -90.6049 -90.6039 -90.6023 -90.5993 -90.5972 -90.5966
   -90.5945 -90.5920 -90.5895 -90.5876 -90.5874 -90.5861 -90.5837 -90.5822
   -90.5797 -90.5783 -90.5763 -90.5726 -90.5669 -90.5612 -90.5565 -90.5504
   -57.0067 -56.9983 -56.9702 -56.9637 -56.9600 -56.9560 -56.9519 -56.9499
   -56.9495 -56.9449 -56.9438 -56.9433 -56.9407 -56.9392 -56.9388 -56.9380
   -56.9351 -56.9303 -56.9293 -56.9261 -56.9216 -56.9204 -56.9176 -56.9139
   -56.9137 -56.9081 -56.9067 -56.9053 -56.9022 -56.9006 -56.8954 -56.8941
   -56.8897 -56.8870 -56.8769 -56.8731 -56.8718 -56.8692 -56.8658 -56.8641
   -56.8571 -56.8552 -56.8549 -56.8544 -56.8494 -56.8419 -56.8252 -56.8247
   -56.8160 -56.8143 -56.8100 -56.8071 -56.8003 -56.7979 -56.7952 -56.7948
   -56.7912 -56.7900 -56.7861 -56.7857 -56.7825 -56.7816 -56.7805 -56.7788
   -56.7782 -56.7743 -56.7705 -56.7688 -56.7671 -56.7650 -56.7635 -56.7586
   -56.7586 -56.7524 -56.7517 -56.7447 -56.7421 -56.7417 -56.7373 -56.7360
   -56.7314 -56.7303 -56.7285 -56.7255 -56.7238 -56.7201 -56.7189 -56.7183
   -56.7112 -56.7109 -56.7077 -56.7042 -56.7020 -56.6998 -56.6962 -56.6940
   -56.6938 -56.6921 -56.6913 -56.6875 -56.6873 -56.6828 -56.6804 -56.6731
   -56.6717 -56.6709 -56.6669 -56.6624 -56.6613 -56.6606 -56.6604 -56.6594
   -56.6591 -56.6560 -56.6560 -56.6548 -56.6525 -56.6490 -56.6475 -56.6459
   -56.6444 -56.6441 -56.6378 -56.6354 -56.6326 -56.6314 -56.6299 -56.6298
   -56.6256 -56.6237 -56.6200 -56.6198 -56.6143 -56.6120 -56.6095 -56.6066
   -56.6059 -56.6022 -56.6021 -56.5970 -56.5956 -56.5933 -56.5927 -56.5904
   -56.5901 -56.5874 -56.5870 -56.5859 -56.5825 -56.5789 -56.5786 -56.5746
   -56.5725 -56.5694 -56.5673 -56.5657 -56.5637 -56.5618 -56.5532 -56.5505
   -56.5504 -56.5491 -56.5422 -56.5404 -56.5390 -56.5378 -56.5370 -56.5341
   -56.5305 -56.5298 -56.5250 -56.5226 -56.5217 -56.5212 -56.5206 -56.5192
   -56.5172 -56.5167 -56.5132 -56.5121 -56.5092 -56.5062 -56.5054 -56.5048
   -56.5028 -56.5027 -56.5018 -56.5008 -56.4997 -56.4985 -56.4930 -56.4929
   -18.9025 -10.6893 -10.1737  -9.6494  -9.6021  -8.9701  -8.5703  -8.4662
    -8.2309  -8.2253  -8.1184  -8.0353  -7.9924  -7.8165  -7.7915  -7.5800
    -7.3061  -7.3055  -7.2801  -7.2744  -7.2547  -7.2431  -7.2303  -7.2012
    -7.1987  -7.1224  -7.1186  -7.1157  -7.0618  -7.0354  -7.0146  -7.0080
    -6.9701  -6.8673  -6.8443  -6.8436  -6.8252  -6.7980  -6.7976  -6.7694
    -6.7666  -6.7551  -6.7533  -6.7094  -6.6983  -6.6488  -6.6427  -6.6179
    -6.5995  -6.5858  -6.5719  -6.5314  -6.5160  -6.4589  -6.4361  -6.3830
    -6.3829  -6.3784  -6.3738  -6.3504  -6.3394  -6.3315  -6.3261  -6.3140
    -6.2694  -6.2457  -6.2282  -6.2133  -6.1870  -6.1314  -6.1190  -6.0868
    -6.0357  -6.0186  -5.9710  -5.9679  -5.9217  -5.9210  -5.9027  -5.9021
    -5.8707  -5.8636  -5.8552  -5.8460  -5.8440  -5.8236  -5.8197  -5.8161
    -5.8046  -5.7972  -5.7896  -5.7893  -5.7856  -5.7805  -5.7467  -5.7381
    -5.7315  -5.7007  -5.6991  -5.6946  -5.6782  -5.6772  -5.6756  -5.6609
    -5.6481  -5.6389  -5.6312  -5.6208  -5.6164  -5.5720  -5.5402  -5.5315
[...]
    -1.5864  -1.5484  -1.5197  -1.4983  -1.4815  -1.4585  -1.4416  -1.4375
    -1.4293  -1.4240  -1.4071  -1.4045  -1.3986  -1.3778  -1.3710  -1.3589
    -1.3232  -1.3084  -1.2840  -1.2543  -1.2442  -1.2272  -1.2131  -1.1920
    -1.1817  -1.1725  -1.1601  -1.1471  -1.1342  -1.1199  -1.1077  -1.0998
    -1.0928  -1.0827  -1.0714  -1.0505  -1.0484  -1.0408  -1.0286  -1.0115
    -1.0047  -0.9866  -0.9762  -0.9638  -0.9486  -0.9337  -0.9255  -0.9136
    -0.9116  -0.8987  -0.8946  -0.8924  -0.8881  -0.8768  -0.8735  -0.8599
    -0.8511  -0.8387  -0.8283  -0.8242  -0.8178  -0.7986  -0.7940  -0.7808
    -0.7769  -0.7641  -0.7579  -0.7491  -0.7439  -0.7256  -0.7082  -0.6972
    -0.6902  -0.6806  -0.6758  -0.6698  -0.6645  -0.6566  -0.6545  -0.6495
    -0.6405  -0.6346  -0.6307  -0.6115  -0.6033  -0.5964  -0.5886  -0.5732
    -0.5649  -0.5577  -0.5486  -0.5462  -0.5382  -0.5339  -0.5296  -0.5253
    -0.5195  -0.5123  -0.4992  -0.4957  -0.4891  -0.4774  -0.4727  -0.4600
    -0.4560  -0.4520  -0.4383  -0.4222  -0.4116  -0.3989  -0.3767  -0.3674
    -0.3646  -0.3467  -0.3358  -0.3275  -0.3164  -0.3122  -0.3039  -0.2954
    -0.2888  -0.2821  -0.2523  -0.2411  -0.2228  -0.2202  -0.2097  -0.1945
    -0.1836  -0.1603  -0.0971  -0.0558  -0.0010   0.0453   0.0916   0.1064
     0.1904   0.2585   0.2867   0.3083   0.3749   0.5014   0.5582   0.6567
     0.6917   0.7086

          k =-0.5000-0.3536 0.0000 (128560 PWs)   bands (ev):

   -88.2287 -88.2270 -87.8792 -87.8774 -87.8133 -87.8115 -87.7825 -87.7772
   -87.7638 -87.7602 -87.7538 -87.7522 -87.7478 -87.7441 -87.7397 -87.7387
   -87.7350 -87.7346 -87.7341 -87.7325 -87.7308 -87.7256 -87.7218 -87.7213
   -87.7175 -87.7138 -87.7134 -87.7129 -87.7121 -87.7121 -87.7113 -87.7107
   -87.6944 -87.6909 -87.6907 -87.6900 -87.6842 -87.6831 -87.6810 -87.6730
   -87.6726 -87.6725 -87.6724 -87.6707 -87.6690 -87.6637 -87.6631 -87.6580
   -87.6579 -87.6522 -87.6509 -87.6508 -87.6504 -87.6496 -87.6490 -87.6488
   -87.6478 -87.6471 -87.6415 -87.6362 -87.6284 -87.6282 -87.6278 -87.6274
   -54.6631 -54.6477 -54.3196 -54.3146 -54.1691 -54.1529 -54.1095 -54.1065
   -54.0416 -54.0399 -54.0379 -54.0376 -54.0320 -54.0312 -54.0303 -54.0229
   -54.0224 -54.0195 -54.0187 -54.0148 -54.0137 -54.0134 -54.0107 -54.0106
   -54.0095 -54.0037 -53.9998 -53.9998 -53.9962 -53.9898 -53.9872 -53.9868
   -53.9858 -53.9770 -53.9722 -53.9714 -53.9709 -53.9707 -53.9656 -53.9632
   -53.9592 -53.9511 -53.9503 -53.9485 -53.9409 -53.9408 -53.9367 -53.9354
   -53.9347 -53.9340 -53.9303 -53.9294 -53.9273 -53.9257 -53.9251 -53.9242
   -53.9214 -53.9203 -53.9193 -53.9181 -53.9159 -53.9159 -53.9154 -53.9109
   -53.9048 -53.9019 -53.9016 -53.8986 -53.8907 -53.8887 -53.8884 -53.8838
   -53.8752 -53.8710 -53.8683 -53.8608 -53.8545 -53.8518 -53.8514 -53.8507
   -53.8485 -53.8412 -53.8412 -53.8375 -53.8324 -53.8278 -53.8250 -53.8217
   -53.8217 -53.8200 -53.8182 -53.8165 -53.8122 -53.8108 -53.8098 -53.8078
   -53.8076 -53.8055 -53.8049 -53.8022 -53.7906 -53.7889 -53.7855 -53.7836
   -53.7820 -53.7791 -53.7767 -53.7763 -53.7758 -53.7744 -53.7730 -53.7718
   -53.7707 -53.7706 -53.7650 -53.7646 -53.7641 -53.7624 -53.7617 -53.7580
   -53.7568 -53.7477 -53.7472 -53.7453 -53.7451 -53.7398 -53.7391 -53.7389
   -53.7352 -53.7346 -53.7337 -53.7332 -53.7263 -53.7232 -53.7208 -53.7201
   -53.7178 -53.7165 -53.7153 -53.7147 -53.7144 -53.7143 -53.7107 -53.7093
   -53.7087 -53.7079 -53.7051 -53.7049 -53.7033 -53.7031 -53.7027 -53.6996
   -53.6965 -53.6953 -53.6934 -53.6921 -53.6910 -53.6901 -53.6886 -53.6872
   -53.6869 -53.6856 -53.6847 -53.6831 -53.6830 -53.6829 -53.6828 -53.6817
   -53.6813 -53.6802 -53.6794 -53.6786 -53.6752 -53.6745 -53.6737 -53.6713
   -53.6708 -53.6682 -53.6681 -53.6680 -53.6676 -53.6611 -53.6603 -53.6595
   -53.6586 -53.6570 -53.6563 -53.6541 -53.6539 -53.6528 -53.6492 -53.6490
   -18.9488 -10.4641  -9.7274  -9.6428  -9.1698  -9.0892  -8.4812  -8.3201
    -8.0606  -7.7779  -7.6731  -7.5218  -7.1405  -7.1231  -7.0768  -7.0292
    -6.6726  -6.6462  -6.3085  -6.3005  -6.2880  -6.2702  -6.2474  -6.2117
    -6.1901  -6.1726  -6.1559  -6.1154  -6.1037  -6.0527  -5.7520  -5.7300
    -5.7223  -5.7196  -5.6862  -5.6774  -5.5282  -5.4870  -5.2701  -5.2527
    -5.2462  -5.2220  -5.2108  -5.1920  -5.1835  -5.1613  -5.1231  -5.1080
    -5.0940  -5.0110  -4.9787  -4.9721  -4.9560  -4.9502  -4.9266  -4.8588
    -4.7106  -4.7035  -4.6839  -4.6681  -4.6564  -4.6512  -4.4489  -4.4277
    -4.4158  -4.3885  -4.3821  -4.3585  -4.2707  -4.2460  -4.2276  -4.2022
    -4.1968  -4.1661  -4.1569  -4.1534  -4.1510  -4.1437  -4.1287  -4.1239
    -4.0964  -4.0881  -4.0526  -4.0451  -4.0374  -4.0346  -4.0273  -4.0234
    -4.0202  -4.0040  -3.9824  -3.9107  -3.8975  -3.8186  -3.8130  -3.8045
    -3.7406  -3.6982  -3.6830  -3.6803  -3.6760  -3.6687  -3.6627  -3.6464
    -3.6387  -3.6325  -3.6255  -3.6021  -3.6003  -3.5972  -3.5962  -3.5892
    -3.5782  -3.5727  -3.5610  -3.5539  -3.5491  -3.5361  -3.5357  -3.5305
    -3.5282  -3.5256  -3.5209  -3.5188  -3.5033  -3.5014  -3.4895  -3.4719
    -3.4542  -3.4485  -3.4477  -3.4443  -3.4341  -3.4261  -3.4149  -3.4141
    -3.4105  -3.3821  -3.3798  -3.3755  -3.3247  -3.3118  -3.2280  -3.2097
    -3.1787  -3.1647  -3.1528  -3.1521  -3.1397  -3.1339  -3.1246  -3.1126
    -3.0994  -3.0547  -3.0409  -3.0101  -2.9978  -2.9773  -2.9662  -2.9592
    -2.9481  -2.9410  -2.9186  -2.9064  -2.8949  -2.8912  -2.8636  -2.8075
    -2.7604  -2.7370  -2.7141  -2.6891  -2.6856  -2.6493  -2.6429  -2.6416
    -2.6292  -2.6264  -2.6223  -2.5895  -2.5625  -2.5561  -2.5535  -2.5362
    -2.5297  -2.5266  -2.5226  -2.4939  -2.4806  -2.2549  -2.2433  -2.2276
    -2.1802  -2.1361  -2.1338  -2.1052  -1.9582  -1.9175  -1.8621  -1.8550
    -1.8335  -1.7900  -1.7896  -1.7664  -1.7595  -1.7359  -1.7339  -1.6908
    -1.6898  -1.6800  -1.6796  -1.6392  -1.5935  -1.5929  -1.5724  -1.5686
    -1.5535  -1.5291  -1.5280  -1.4964  -1.4882  -1.4785  -1.4506  -1.3969
    -1.3947  -1.3828  -1.3736  -1.3661  -1.3619  -1.3583  -1.3552  -1.3424
    -1.3345  -1.3301  -1.2806  -1.2802  -1.2790  -1.2616  -1.2141  -1.2074
    -1.1935  -1.1890  -1.1771  -1.1629  -1.1512  -1.1308  -1.0765  -1.0614
    -1.0511  -1.0468  -1.0070  -1.0056  -0.9719  -0.9623  -0.9416  -0.9341
    -0.9330  -0.9324  -0.9278  -0.9137  -0.9022  -0.8952  -0.8818  -0.8724
    -0.8623  -0.8619  -0.8605  -0.8601  -0.8575  -0.8429  -0.8408  -0.8163
    -0.8124  -0.8092  -0.8022  -0.7910  -0.7828  -0.7771  -0.7663  -0.7612
    -0.7594  -0.7583  -0.7527  -0.7523  -0.7498  -0.7284  -0.7223  -0.7191
    -0.7051  -0.6903  -0.6891  -0.6877  -0.6852  -0.6767  -0.6752  -0.6733
    -0.6634  -0.6438  -0.6391  -0.6283  -0.5936  -0.5724  -0.5677  -0.5664
    -0.5562  -0.5476  -0.5452  -0.5359  -0.5273  -0.5203  -0.5071  -0.4972
    -0.4969  -0.4936  -0.4876  -0.4804  -0.4758  -0.4741  -0.4702  -0.4617
    -0.4582  -0.4571  -0.4563  -0.4322  -0.4303  -0.4216  -0.4207  -0.4110
    -0.4107  -0.4050  -0.3970  -0.3926  -0.3926  -0.3821  -0.3791  -0.3612
    -0.3346  -0.3154  -0.3134  -0.2874  -0.2839  -0.2672  -0.1991  -0.1684
    -0.0914  -0.0910  -0.0789  -0.0724   0.1278   0.1382   0.1399   0.1454
     0.1906   0.2052   0.2134   0.2141   0.2344   0.2377   0.2438   0.3678
     0.4117   0.4388

     the Fermi energy is    -2.6151 ev

!    total energy              =  -21093.74876518 Ry
     Harris-Foulkes estimate   =  -21093.74876396 Ry
     estimated scf accuracy    <          8.8E-11 Ry

     The total energy is the sum of the following terms:

     one-electron contribution = -743491.04204881 Ry
     hartree contribution      =  371641.81992913 Ry
     xc contribution           =   -2234.27798246 Ry
     ewald contribution        =  357864.58418777 Ry
     Dispersion Correction     =      -1.39239684 Ry
     one-center paw contrib.   =   -4873.44208546 Ry
     smearing contrib. (-TS)   =       0.00163148 Ry

     total magnetization       =   161.05 Bohr mag/cell
     absolute magnetization    =   167.67 Bohr mag/cell

     convergence has been achieved in  15 iterations

     negative rho (up, down):  2.489E-02 1.839E-02

     Forces acting on atoms (cartesian axes, Ry/au):

     atom    1 type  1   force =     0.00047961   -0.00027882    0.00921024
     atom    2 type  1   force =     0.00175532   -0.00246998   -0.01301860
     atom    3 type  1   force =    -0.00039549   -0.00034592    0.00890385
     atom    4 type  1   force =     0.00045587    0.00059421   -0.00820780
     atom    5 type  1   force =    -0.00001365   -0.00000554   -0.00000382
     atom    6 type  1   force =     0.00002873   -0.00004492    0.00003362
     atom    7 type  1   force =     0.00003380   -0.00002275   -0.00005338
     atom    8 type  1   force =     0.00001298    0.00001465    0.00001942
     atom    9 type  1   force =     0.00000418    0.00001267    0.00953119
     atom   10 type  1   force =    -0.00019862   -0.00014002    0.00929125
     atom   11 type  1   force =    -0.00033416    0.00125094   -0.00713991
     atom   12 type  1   force =     0.00091075    0.00072578   -0.01144974
     atom   13 type  1   force =     0.00000040   -0.00000712    0.00002444
     atom   14 type  1   force =     0.00004068    0.00001760   -0.00004989
     atom   15 type  1   force =    -0.00006765   -0.00004384    0.00003908
     atom   16 type  1   force =    -0.00002999   -0.00003744    0.00005128
     atom   17 type  1   force =    -0.00045021   -0.00023447    0.00885124
     atom   18 type  1   force =     0.00071662    0.00029704   -0.00822214
     atom   19 type  1   force =     0.00038438    0.00034091    0.00884339
     atom   20 type  1   force =     0.00066967   -0.00090093   -0.01138570
     atom   21 type  1   force =    -0.00000093    0.00003182   -0.00005025
     atom   22 type  1   force =     0.00002622   -0.00001482    0.00002055
     atom   23 type  1   force =    -0.00003595    0.00000903   -0.00005397
     atom   24 type  1   force =     0.00004517   -0.00007390   -0.00001659
     atom   25 type  1   force =     0.00000973    0.00000319    0.00785103
     atom   26 type  1   force =    -0.00072128    0.00100316    0.00963670
     atom   27 type  1   force =    -0.00009019   -0.00010516   -0.00653659
     atom   28 type  1   force =    -0.00104159    0.00076996   -0.00713667
     atom   29 type  1   force =     0.00000324   -0.00001041   -0.00010765
     atom   30 type  1   force =     0.00001807   -0.00003105   -0.00006832
     atom   31 type  1   force =    -0.00000349   -0.00001840    0.00003417
     atom   32 type  1   force =     0.00005900    0.00004083    0.00003801
     atom   33 type  1   force =    -0.00048517    0.00025282    0.00923433
     atom   34 type  1   force =    -0.00049148   -0.00057305   -0.00821107
     atom   35 type  1   force =    -0.00009152    0.00053382    0.00925263
     atom   36 type  1   force =    -0.00185738    0.00261964   -0.01301283
     atom   37 type  1   force =     0.00002093   -0.00000453    0.00000168
     atom   38 type  1   force =    -0.00000881   -0.00003351    0.00002273
     atom   39 type  1   force =    -0.00000417   -0.00002681    0.00000170
     atom   40 type  1   force =    -0.00001912    0.00002002    0.00001967
     atom   41 type  1   force =     0.00000903   -0.00001005    0.00813197
     atom   42 type  1   force =     0.00072261   -0.00099225    0.00971777
     atom   43 type  1   force =    -0.00097859   -0.00059736   -0.01145232
     atom   44 type  1   force =     0.00034163   -0.00120634   -0.00712209
     atom   45 type  1   force =     0.00000012   -0.00000591   -0.00004591
     atom   46 type  1   force =    -0.00001088    0.00001308   -0.00007039
     atom   47 type  1   force =     0.00003934    0.00001169    0.00004879
     atom   48 type  1   force =     0.00007488    0.00002695    0.00004588
     atom   49 type  1   force =     0.00045752    0.00024933    0.00891686
     atom   50 type  1   force =    -0.00057793    0.00084514   -0.01144475
     atom   51 type  1   force =     0.00011257   -0.00055399    0.00921997
     atom   52 type  1   force =    -0.00070463   -0.00019899   -0.00820226
     atom   53 type  1   force =     0.00000424   -0.00004414   -0.00005318
     atom   54 type  1   force =    -0.00003361    0.00003736   -0.00001828
     atom   55 type  1   force =     0.00000425    0.00000763   -0.00000343
     atom   56 type  1   force =    -0.00002745   -0.00001642    0.00002194
     atom   57 type  1   force =    -0.00003742   -0.00001366    0.00953732
     atom   58 type  1   force =     0.00019025    0.00014881    0.00928606
     atom   59 type  1   force =     0.00104040   -0.00069483   -0.00712428
     atom   60 type  1   force =     0.00015333    0.00007595   -0.00654469
     atom   61 type  1   force =     0.00000056   -0.00000683    0.00002645
     atom   62 type  1   force =    -0.00003629   -0.00003640   -0.00004992
     atom   63 type  1   force =    -0.00006046   -0.00007394    0.00004689
     atom   64 type  1   force =     0.00000556   -0.00001569    0.00003542
     atom   65 type  2   force =    -0.00001070   -0.00002703   -0.00001968
     atom   66 type  3   force =    -0.00001283   -0.00003683    0.00018769

     Total force =     0.000400     Total SCF correction =     0.000022

     bfgs converged in  11 scf cycles and  10 bfgs steps
     (criteria: energy <  7.3E-07 Ry, force <  3.9E-04 Ry/Bohr)

     End of BFGS Geometry Optimization

     Final energy   =  -21093.7487651830 Ry
Begin final coordinates

ATOMIC_POSITIONS (angstrom)
Fe       1.654912953   1.170200133   0.000000000    0   0   0
Fe       0.000000000   0.000000000   2.026984232    0   0   0
Fe       4.964738858   3.510600399   0.000000000    0   0   0
Fe       3.309825906   2.340400266   2.026984232    0   0   0
Fe       1.674869788   1.169821379   4.025299490
Fe       3.317758244   9.351111482   5.996216418
Fe       4.974862935   3.522325075   4.041253347
Fe       3.365433207   2.336647033   6.014646916
Fe       2.482363858   3.510600399   0.000000000    0   0   0
Fe       4.137287953   1.170200133   0.000000000    0   0   0
Fe       0.827450906   2.340400266   2.026984232    0   0   0
Fe       2.482375000   0.000000000   2.026984232    0   0   0
Fe       2.482458544   3.510802569   4.040526527
Fe       4.160882165   1.187097454   4.032598706
Fe       0.861713569   2.322862434   5.999661182
Fe       2.495702275   0.009546468   6.013120226
Fe       6.619662953   1.170200133   0.000000000    0   0   0
Fe       4.964750000   0.000000000   2.026984232    0   0   0
Fe       9.929488858   3.510600399   0.000000000    0   0   0
Fe       8.274575906   2.340400266   2.026984232    0   0   0
Fe       6.634045761   1.176010576   4.041136330
Fe       4.979902476   0.053654479   6.014896316
Fe       9.919822850   3.499344102   4.041143771
Fe       8.362577142   2.217053589   5.980992787
Fe       7.447113858   3.510600399   0.000000000    0   0   0
Fe       9.102037953   1.170200133   0.000000000    0   0   0
Fe       5.792200906   2.340400266   2.026984232    0   0   0
Fe       7.447125000   0.000000000   2.026984232    0   0   0
Fe       7.447431572   3.510767008   4.000456663
Fe       9.119323008   1.146300335   4.007569066
Fe       5.880839952   2.402966972   6.052157081
Fe      10.762879359   9.324287358   5.999655815
Fe       3.309814764   5.851000664   0.000000000    0   0   0
Fe       1.654901811   4.680800531   2.026984232    0   0   0
Fe       6.619640670   8.191400930   0.000000000    0   0   0
Fe       4.964727717   7.021200797   2.026984232    0   0   0
Fe       3.290255552   5.851728029   4.025327785
Fe      11.529948714   4.684936967   6.014876072
Fe       6.625956134   8.210492010   4.025298557
Fe       4.957390833   7.032312031   5.995491621
Fe       4.137265670   8.191400930   0.000000000    0   0   0
Fe       5.792189764   5.851000664   0.000000000    0   0   0
Fe      12.411852717   7.021200797   2.026984232    0   0   0
Fe       4.137276811   4.680800531   2.026984232    0   0   0
Fe       4.137374745   8.191762236   4.022665774
Fe       5.775434408   5.875220755   4.007435075
Fe      12.399145624   7.012373778   6.013080614
Fe       4.103898376   4.698920740   5.999794905
Fe       8.274564764   5.851000664   0.000000000    0   0   0
Fe       6.619651811   4.680800531   2.026984232    0   0   0
Fe      11.584390670   8.191400930   0.000000000    0   0   0
Fe       9.929477717   7.021200797   2.026984232    0   0   0
Fe       8.260736095   5.845831982   4.041254064
Fe       6.532530644   4.805173412   5.980841720
Fe      11.578587425   8.172872712   4.025293491
Fe       9.915350416   6.968368156   6.014544157
Fe       9.102015670   8.191400930   0.000000000    0   0   0
Fe      10.756939764   5.851000664   0.000000000    0   0   0
Fe       7.447102717   7.021200797   2.026984232    0   0   0
Fe       9.102026811   4.680800531   2.026984232    0   0   0
Fe       9.102313764   8.191856135   4.040510293
Fe      10.733758028   5.834771386   4.032621388
Fe       7.441986104   7.059632555   5.999759536
Fe       9.014929512   4.619034864   6.052020219
N        7.448658588   3.512043677   6.999694391
H        7.448740133   3.512579245   8.026883892
End final coordinates



     Writing output data file Fe_NH_paper_480c_ESM_p25.save/

     init_run     :    111.58s CPU    113.13s WALL (       1 calls)
     electrons    : 241686.53s CPU 242539.26s WALL (      11 calls)
     update_pot   :    275.34s CPU    275.82s WALL (      10 calls)
     forces       :    956.23s CPU    961.73s WALL (      11 calls)

     Called by init_run:
     wfcinit      :     58.41s CPU     59.69s WALL (       1 calls)
     potinit      :     10.14s CPU     10.19s WALL (       1 calls)
     hinit0       :     14.72s CPU     14.79s WALL (       1 calls)

     Called by electrons:
     c_bands      : 206045.17s CPU 206754.74s WALL (     221 calls)
     sum_band     :  13782.88s CPU  13866.35s WALL (     221 calls)
     v_of_rho     :    363.84s CPU    365.59s WALL (     222 calls)
     newd         :    710.41s CPU    712.97s WALL (     222 calls)
     PAW_pot      :   1705.01s CPU   1707.94s WALL (     232 calls)
     mix_rho      :   2105.44s CPU   2127.82s WALL (     221 calls)

     Called by c_bands:
     init_us_2    :     99.55s CPU    100.46s WALL (    1392 calls)
     cegterg      :  54384.70s CPU  54723.58s WALL (     669 calls)

     Called by sum_band:
     sum_band:bec :      6.53s CPU      6.54s WALL (     693 calls)
     addusdens    :    491.18s CPU    494.63s WALL (     221 calls)

     Called by *egterg:
     h_psi        :  16952.95s CPU  17091.64s WALL (    5342 calls)
     s_psi        :   3534.27s CPU   3539.58s WALL (    5342 calls)
     g_psi        :     49.02s CPU     49.17s WALL (    4670 calls)
     cdiaghg      :  18733.44s CPU  18816.32s WALL (    5279 calls)

     Called by h_psi:
     h_psi:pot    :  16864.69s CPU  16951.82s WALL (    5342 calls)
     h_psi:calbec :   3644.91s CPU   3650.39s WALL (    5342 calls)
     vloc_psi     :   9676.86s CPU   9754.75s WALL (    5342 calls)
     add_vuspsi   :   3542.84s CPU   3546.64s WALL (    5342 calls)

     General routines
     calbec       :   5148.36s CPU   5157.40s WALL (    6167 calls)
     fft          :    267.71s CPU    269.26s WALL (    5723 calls)
     ffts         :   1092.88s CPU   1101.42s WALL (  128960 calls)
     fftw         :   9293.65s CPU   9372.51s WALL ( 2749570 calls)
     interpolate  :     22.01s CPU     22.27s WALL (     444 calls)
     davcio       :      1.05s CPU    151.61s WALL (    5632 calls)

     Parallel routines
     fft_scatt_xy :   1927.80s CPU   1937.74s WALL ( 2884253 calls)
     fft_scatt_yz :   2945.15s CPU   2986.65s WALL ( 2884253 calls)

     PWSCF        :   2d19h34m CPU   2d19h49m WALL


   This run was terminated on:  11:44: 9  11Jun2022            

=------------------------------------------------------------------------------=
   JOB DONE.
=------------------------------------------------------------------------------=
