     Message from routine get_command_line:
     unexpected argument # 4     :-in

     Program PWSCF v.6.7MaX starts on  4Jul2022 at  0: 2:18 

     This program is part of the open-source Quantum ESPRESSO suite
     for quantum simulation of materials; please cite
         "P. Giannozzi et al., J. Phys.:Condens. Matter 21 395502 (2009);
         "P. Giannozzi et al., J. Phys.:Condens. Matter 29 465901 (2017);
          URL http://www.quantum-espresso.org", 
     in publications or presentations arising from this work. More details at
     http://www.quantum-espresso.org/quote

     Parallel version (MPI), running on   120 processors

     MPI processes distributed on     1 nodes
     K-points division:     npool     =       8
     R & G space division:  proc/nbgrp/npool/nimage =      15
     Waiting for input...
     Reading input from standard input
Warning: card &CELL ignored
Warning: card / ignored

     Current dimensions of program PWSCF are:
     Max number of different atomic species (ntypx) = 10
     Max number of k-points (npk) =  40000
     Max angular momentum in pseudopotentials (lmaxx) =  3

     IMPORTANT: XC functional enforced from input :
     Exchange-correlation= PBE
                           (   1   4   3   4   0   0   0)
     Any further DFT definition will be discarded
     Please, verify this is what you really want


     -------------------------------------------------
     Parameters for Dispersion (Grimme-D2) Correction:
     -------------------------------------------------
       atom      VdW radius       C_6     

        N          2.640         42.670
        H          1.892          4.857

     Subspace diagonalization in iterative solution of the eigenvalue problem:
     one sub-group per band group will be used
     scalapack distributed-memory algorithm (size of sub-group:  3*  3 procs)


     Parallelization info
     --------------------
     sticks:   dense  smooth     PW     G-vecs:    dense   smooth      PW
     Min        3636    1818    468               639190   225950   29545
     Max        3637    1819    470               639197   225953   29547
     Sum       54553   27281   7033              9587919  3389267  443191



     bravais-lattice index     =            0
     lattice parameter (alat)  =      37.7945  a.u.
     unit-cell volume          =   53986.6760 (a.u.)^3
     number of atoms/cell      =            3
     number of atomic types    =            2
     number of electrons       =         7.00
     number of Kohn-Sham states=            8
     kinetic-energy cutoff     =      60.0000  Ry
     charge density cutoff     =     480.0000  Ry
     scf convergence threshold =      1.0E-08
     mixing beta               =       0.7000
     number of iterations used =           10  plain     mixing
     energy convergence thresh.=      7.3E-07
     force convergence thresh. =      3.9E-04
     Exchange-correlation= PBE
                           (   1   4   3   4   0   0   0)
     nstep                     =           50


     Effective Screening Medium Method
     =================================
     Boundary Conditions: Metal-Slab-Metal
     field strength                   =    -0.02 Ry/a.u.
     grid points for fit at edges     =        4 


     celldm(1)=  37.794522  celldm(2)=   0.000000  celldm(3)=   0.000000
     celldm(4)=   0.000000  celldm(5)=   0.000000  celldm(6)=   0.000000

     crystal axes: (cart. coord. in units of alat)
               a(1) = (   1.000000   0.000000   0.000000 )  
               a(2) = (   0.000000   1.000000   0.000000 )  
               a(3) = (   0.000000   0.000000   1.000000 )  

     reciprocal axes: (cart. coord. in units 2 pi/alat)
               b(1) = (  1.000000  0.000000  0.000000 )  
               b(2) = (  0.000000  1.000000  0.000000 )  
               b(3) = (  0.000000  0.000000  1.000000 )  


     PseudoPot. # 1 for N  read from file:
     ../../SSSP/N.pbe-n-radius_5.UPF
     MD5 check sum: 16739722b17309cd8fe442a2ace49922
     Pseudo is Ultrasoft + core correction, Zval =  5.0
     Generated using "atomic" code by A. Dal Corso  v.5.1
     Using radial grid of 1085 points,  4 beta functions with: 
                l(1) =   0
                l(2) =   0
                l(3) =   1
                l(4) =   1
     Q(r) pseudized with 0 coefficients 


     PseudoPot. # 2 for H  read from file:
     ../../SSSP/H.pbe-rrkjus_psl.1.0.0.UPF
     MD5 check sum: f52b6d4d1c606e5624b1dc7b2218f220
     Pseudo is Ultrasoft, Zval =  1.0
     Generated using "atomic" code by A. Dal Corso  v.5.1
     Using radial grid of  929 points,  2 beta functions with: 
                l(1) =   0
                l(2) =   0
     Q(r) pseudized with 0 coefficients 


     atomic species   valence    mass     pseudopotential
        N              5.00    14.00700     N ( 1.00)
        H              1.00     1.00800     H ( 1.00)

     Starting magnetic structure 
     atomic species   magnetization
        N            0.100
        H            0.100

     No symmetry found



   Cartesian axes

     site n.     atom                  positions (alat units)
         1           N   tau(   1) = (   0.5000000   0.5000000   0.0000000  )
         2           H   tau(   2) = (   0.5000000   0.5402498   0.0326149  )
         3           H   tau(   3) = (   0.5000000   0.4597502   0.0326149  )

     number of k points=    10  Methfessel-Paxton smearing, width (Ry)=  0.0100
                       cart. coord. in units 2pi/alat
        k(    1) = (   0.0000000   0.0000000   0.0000000), wk =   0.0625000
        k(    2) = (   0.0000000   0.2500000   0.0000000), wk =   0.1250000
        k(    3) = (   0.0000000  -0.5000000   0.0000000), wk =   0.0625000
        k(    4) = (   0.2500000   0.0000000   0.0000000), wk =   0.1250000
        k(    5) = (   0.2500000   0.2500000   0.0000000), wk =   0.1250000
        k(    6) = (   0.2500000  -0.5000000   0.0000000), wk =   0.1250000
        k(    7) = (   0.2500000  -0.2500000   0.0000000), wk =   0.1250000
        k(    8) = (  -0.5000000   0.0000000   0.0000000), wk =   0.0625000
        k(    9) = (  -0.5000000   0.2500000   0.0000000), wk =   0.1250000
        k(   10) = (  -0.5000000  -0.5000000   0.0000000), wk =   0.0625000

     Dense  grid:  9587919 G-vectors     FFT dimensions: ( 270, 270, 270)

     Smooth grid:  3389267 G-vectors     FFT dimensions: ( 192, 192, 192)

     Estimated max dynamical RAM per process >     388.03 MB

     Estimated total dynamical RAM >      45.47 GB
     Generating pointlists ...
     new r_m :   0.0214 (alat units)  0.8077 (a.u.) for type    1
     new r_m :   0.0214 (alat units)  0.8077 (a.u.) for type    2

     Initial potential from superposition of free atoms

     starting charge    6.99997, renormalised to    7.00000

     negative rho (up, down):  9.681E-05 7.921E-05
     Starting wfcs are    6 randomized atomic wfcs +    2 random wfcs

     total cpu time spent up to now is       22.1 secs

     Self-consistent Calculation

     iteration #  1     ecut=    60.00 Ry     beta= 0.70
     CG style diagonalization
     c_bands:  3 eigenvalues not converged
     c_bands:  2 eigenvalues not converged
     c_bands:  3 eigenvalues not converged
     ethr =  1.00E-04,  avg # of iterations = 13.2

     negative rho (up, down):  2.197E-04 1.459E-04

     total cpu time spent up to now is       59.1 secs

     total energy              =     -22.31686249 Ry
     estimated scf accuracy    <       0.32761195 Ry

     total magnetization       =     1.00 Bohr mag/cell
     absolute magnetization    =     1.01 Bohr mag/cell

     iteration #  2     ecut=    60.00 Ry     beta= 0.70
     CG style diagonalization
     ethr =  4.68E-03,  avg # of iterations =  3.4

     negative rho (up, down):  1.844E-04 1.742E-04

     total cpu time spent up to now is       77.7 secs

     total energy              =     -22.36233457 Ry
     estimated scf accuracy    <       0.11663835 Ry

     total magnetization       =     1.00 Bohr mag/cell
     absolute magnetization    =     1.04 Bohr mag/cell

     iteration #  3     ecut=    60.00 Ry     beta= 0.70
     CG style diagonalization
     ethr =  1.67E-03,  avg # of iterations =  3.4

     negative rho (up, down):  2.194E-04 1.616E-04

     total cpu time spent up to now is       96.3 secs

     total energy              =     -22.42051548 Ry
     estimated scf accuracy    <       0.00222916 Ry

     total magnetization       =     1.00 Bohr mag/cell
     absolute magnetization    =     1.05 Bohr mag/cell

     iteration #  4     ecut=    60.00 Ry     beta= 0.70
     CG style diagonalization
     ethr =  3.18E-05,  avg # of iterations =  6.2

     negative rho (up, down):  2.257E-04 1.574E-04

     total cpu time spent up to now is      120.5 secs

     total energy              =     -22.42140603 Ry
     estimated scf accuracy    <       0.00066445 Ry

     total magnetization       =     1.00 Bohr mag/cell
     absolute magnetization    =     1.07 Bohr mag/cell

     iteration #  5     ecut=    60.00 Ry     beta= 0.70
     CG style diagonalization
     ethr =  9.49E-06,  avg # of iterations =  5.6

     negative rho (up, down):  2.326E-04 1.623E-04

     total cpu time spent up to now is      143.7 secs

     total energy              =     -22.42135746 Ry
     estimated scf accuracy    <       0.00002523 Ry

     total magnetization       =     1.00 Bohr mag/cell
     absolute magnetization    =     1.07 Bohr mag/cell

     iteration #  6     ecut=    60.00 Ry     beta= 0.70
     CG style diagonalization
     ethr =  3.60E-07,  avg # of iterations =  6.4

     negative rho (up, down):  2.343E-04 1.634E-04

     total cpu time spent up to now is      168.2 secs

     total energy              =     -22.42137984 Ry
     estimated scf accuracy    <       0.00000965 Ry

     total magnetization       =     1.00 Bohr mag/cell
     absolute magnetization    =     1.07 Bohr mag/cell

     iteration #  7     ecut=    60.00 Ry     beta= 0.70
     CG style diagonalization
     ethr =  1.38E-07,  avg # of iterations =  4.3

     negative rho (up, down):  2.345E-04 1.632E-04

     total cpu time spent up to now is      189.1 secs

     total energy              =     -22.42138356 Ry
     estimated scf accuracy    <       0.00000110 Ry

     total magnetization       =     1.00 Bohr mag/cell
     absolute magnetization    =     1.07 Bohr mag/cell

     iteration #  8     ecut=    60.00 Ry     beta= 0.70
     CG style diagonalization
     ethr =  1.57E-08,  avg # of iterations =  3.8

     negative rho (up, down):  2.346E-04 1.631E-04

     total cpu time spent up to now is      209.0 secs

     total energy              =     -22.42138387 Ry
     estimated scf accuracy    <       0.00000005 Ry

     total magnetization       =     1.00 Bohr mag/cell
     absolute magnetization    =     1.07 Bohr mag/cell

     iteration #  9     ecut=    60.00 Ry     beta= 0.70
     CG style diagonalization
     ethr =  6.87E-10,  avg # of iterations =  4.2

     negative rho (up, down):  2.347E-04 1.630E-04

     total cpu time spent up to now is      229.9 secs

     total energy              =     -22.42138404 Ry
     estimated scf accuracy    <       0.00000017 Ry

     total magnetization       =     1.00 Bohr mag/cell
     absolute magnetization    =     1.08 Bohr mag/cell

     iteration # 10     ecut=    60.00 Ry     beta= 0.70
     CG style diagonalization
     ethr =  6.87E-10,  avg # of iterations =  3.2

     negative rho (up, down):  2.347E-04 1.630E-04

     total cpu time spent up to now is      248.8 secs

     total energy              =     -22.42138401 Ry
     estimated scf accuracy    <       0.00000009 Ry

     total magnetization       =     1.00 Bohr mag/cell
     absolute magnetization    =     1.08 Bohr mag/cell

     iteration # 11     ecut=    60.00 Ry     beta= 0.70
     CG style diagonalization
     ethr =  6.87E-10,  avg # of iterations =  3.8

     negative rho (up, down):  2.347E-04 1.630E-04

     Magnetic moment per site:
     atom:    1    charge:    1.3454    magn:    0.2675    constr:    0.0000
     atom:    2    charge:    0.4517    magn:   -0.0052    constr:    0.0000
     atom:    3    charge:    0.4517    magn:   -0.0052    constr:    0.0000

     total cpu time spent up to now is      266.5 secs

     End of self-consistent calculation

 ------ SPIN UP ------------


          k = 0.0000 0.0000 0.0000 (423701 PWs)   bands (ev):

   -25.2186 -15.5067 -11.8885 -11.5561  -6.5617  -6.1867  -6.1859  -6.1820

          k = 0.0000 0.2500 0.0000 (423725 PWs)   bands (ev):

   -25.2186 -15.5067 -11.8885 -11.5561  -6.5378  -6.3495  -6.1612  -6.1611

          k = 0.0000-0.5000 0.0000 (423542 PWs)   bands (ev):

   -25.2186 -15.5067 -11.8885 -11.5561  -6.4712  -6.4642  -6.0940  -6.0898

          k = 0.2500 0.0000 0.0000 (423725 PWs)   bands (ev):

   -25.2186 -15.5067 -11.8885 -11.5561  -6.5383  -6.3498  -6.1621  -6.1603

          k = 0.2500 0.2500 0.0000 (423766 PWs)   bands (ev):

   -25.2186 -15.5067 -11.8885 -11.5561  -6.5144  -6.3279  -6.3251  -6.1369

          k = 0.2500-0.5000 0.0000 (423782 PWs)   bands (ev):

   -25.2186 -15.5067 -11.8885 -11.5561  -6.4479  -6.4407  -6.2593  -6.2523

          k = 0.2500-0.2500 0.0000 (423766 PWs)   bands (ev):

   -25.2186 -15.5067 -11.8885 -11.5561  -6.5149  -6.3280  -6.3253  -6.1372

          k =-0.5000 0.0000 0.0000 (423542 PWs)   bands (ev):

   -25.2186 -15.5067 -11.8885 -11.5561  -6.4683  -6.4663  -6.0919  -6.0898

          k =-0.5000 0.2500 0.0000 (423782 PWs)   bands (ev):

   -25.2186 -15.5067 -11.8885 -11.5561  -6.4450  -6.4432  -6.2570  -6.2552

          k =-0.5000-0.5000 0.0000 (423708 PWs)   bands (ev):

   -25.2186 -15.5067 -11.8885 -11.5561  -6.3778  -6.3768  -6.3724  -6.3678

 ------ SPIN DOWN ----------


          k = 0.0000 0.0000 0.0000 (423701 PWs)   bands (ev):

   -23.9564 -15.1409 -11.3057  -8.3777  -6.5595  -6.1839  -6.1832  -6.1805

          k = 0.0000 0.2500 0.0000 (423725 PWs)   bands (ev):

   -23.9564 -15.1409 -11.3057  -8.3777  -6.5360  -6.3471  -6.1592  -6.1568

          k = 0.0000-0.5000 0.0000 (423542 PWs)   bands (ev):

   -23.9564 -15.1409 -11.3057  -8.3777  -6.4693  -6.4609  -6.0924  -6.0858

          k = 0.2500 0.0000 0.0000 (423725 PWs)   bands (ev):

   -23.9564 -15.1409 -11.3057  -8.3777  -6.5359  -6.3479  -6.1590  -6.1581

          k = 0.2500 0.2500 0.0000 (423766 PWs)   bands (ev):

   -23.9564 -15.1409 -11.3057  -8.3777  -6.5126  -6.3253  -6.3230  -6.1355

          k = 0.2500-0.5000 0.0000 (423782 PWs)   bands (ev):

   -23.9564 -15.1409 -11.3057  -8.3777  -6.4458  -6.4378  -6.2578  -6.2499

          k = 0.2500-0.2500 0.0000 (423766 PWs)   bands (ev):

   -23.9564 -15.1409 -11.3057  -8.3777  -6.5123  -6.3246  -6.3229  -6.1350

          k =-0.5000 0.0000 0.0000 (423542 PWs)   bands (ev):

   -23.9564 -15.1409 -11.3057  -8.3777  -6.4652  -6.4643  -6.0906  -6.0882

          k =-0.5000 0.2500 0.0000 (423782 PWs)   bands (ev):

   -23.9564 -15.1409 -11.3057  -8.3777  -6.4421  -6.4415  -6.2539  -6.2535

          k =-0.5000-0.5000 0.0000 (423708 PWs)   bands (ev):

   -23.9564 -15.1409 -11.3057  -8.3777  -6.3765  -6.3739  -6.3685  -6.3665

     the Fermi energy is   -11.1915 ev

!    total energy              =     -22.42138403 Ry
     estimated scf accuracy    <          8.6E-09 Ry
     smearing contrib. (-TS)   =       0.00030003 Ry
     internal energy E=F+TS    =     -22.42168407 Ry

     The total energy is F=E-TS. E is the sum of the following terms:
     one-electron contribution =     -55.15316112 Ry
     hartree contribution      =      27.52521166 Ry
     xc contribution           =      -6.71847011 Ry
     ewald contribution        =      11.92482951 Ry
     Dispersion Correction     =      -0.00009401 Ry

     total magnetization       =     1.00 Bohr mag/cell
     absolute magnetization    =     1.08 Bohr mag/cell

     convergence has been achieved in  11 iterations

     negative rho (up, down):  2.347E-04 1.630E-04

     Forces acting on atoms (cartesian axes, Ry/au):

     atom    1 type  1   force =     0.00000000   -0.00000000   -0.00015995
     atom    2 type  2   force =     0.00000000    0.00012486    0.00007576
     atom    3 type  2   force =    -0.00000000   -0.00012486    0.00007575

     Total force =     0.000207     Total SCF correction =     0.000039
     SCF correction compared to forces is large: reduce conv_thr to get better values

     BFGS Geometry Optimization
     Energy error            =      0.0E+00
     Gradient error          =      1.2E-04

     bfgs converged in   1 scf cycles and   0 bfgs steps
     (criteria: energy <  7.3E-07 Ry, force <  3.9E-04 Ry/Bohr)

     End of BFGS Geometry Optimization

     Final energy   =     -22.4213840348 Ry
Begin final coordinates

ATOMIC_POSITIONS (angstrom)
N            10.0000000000       10.0000000000        0.0000000000    0   0   0
H            10.0000000146       10.8049967218        0.6522980842
H             9.9999999987        9.1950032958        0.6522981121
End final coordinates



     Writing output data file ./NH2_ESM_pn25.save/

     init_run     :     20.76s CPU     21.89s WALL (       1 calls)
     electrons    :    232.14s CPU    247.05s WALL (       1 calls)
     forces       :      8.69s CPU      9.27s WALL (       1 calls)

     Called by init_run:
     wfcinit      :      1.65s CPU      1.72s WALL (       1 calls)
     potinit      :      7.53s CPU      8.19s WALL (       1 calls)
     hinit0       :      1.70s CPU      1.85s WALL (       1 calls)

     Called by electrons:
     c_bands      :    108.32s CPU    109.75s WALL (      11 calls)
     sum_band     :     24.97s CPU     25.78s WALL (      11 calls)
     v_of_rho     :     69.87s CPU     76.08s WALL (      12 calls)
     newd         :      8.19s CPU      8.67s WALL (      12 calls)
     mix_rho      :     15.23s CPU     18.70s WALL (      11 calls)

     Called by c_bands:
     init_us_2    :      0.42s CPU      0.44s WALL (      72 calls)
     ccgdiagg     :     85.44s CPU     86.36s WALL (      33 calls)
     wfcrot       :     18.20s CPU     18.41s WALL (      33 calls)

     Called by *cgdiagg:
     h_psi        :     89.93s CPU     90.91s WALL (    1183 calls)
     s_psi        :      4.88s CPU      4.93s WALL (    2333 calls)

     Called by h_psi:
     h_psi:calbec :      3.57s CPU      3.61s WALL (    1183 calls)
     vloc_psi     :     81.85s CPU     82.74s WALL (    1183 calls)
     add_vuspsi   :      4.07s CPU      4.11s WALL (    1183 calls)
     hs_1psi      :     75.43s CPU     76.25s WALL (    1150 calls)
     s_1psi       :      5.54s CPU      5.60s WALL (    1150 calls)

     General routines
     calbec       :      6.73s CPU      6.82s WALL (    2378 calls)
     fft          :     72.07s CPU     74.07s WALL (     313 calls)
     ffts         :      3.67s CPU      3.70s WALL (      46 calls)
     fftw         :     74.38s CPU     75.15s WALL (    3092 calls)
     interpolate  :      8.29s CPU      9.04s WALL (      24 calls)
     davcio       :      0.04s CPU      2.04s WALL (     236 calls)

     Parallel routines
     fft_scatt_xy :     24.89s CPU     25.16s WALL (    3451 calls)
     fft_scatt_yz :     49.29s CPU     49.86s WALL (    3451 calls)

     PWSCF        :   4m22.34s CPU   4m39.98s WALL


   This run was terminated on:   0: 6:58   4Jul2022            

=------------------------------------------------------------------------------=
   JOB DONE.
=------------------------------------------------------------------------------=
