
     Program PHONON v.6.7MaX starts on 16Sep2022 at 19:30:16 

     This program is part of the open-source Quantum ESPRESSO suite
     for quantum simulation of materials; please cite
         "P. Giannozzi et al., J. Phys.:Condens. Matter 21 395502 (2009);
         "P. Giannozzi et al., J. Phys.:Condens. Matter 29 465901 (2017);
          URL http://www.quantum-espresso.org", 
     in publications or presentations arising from this work. More details at
     http://www.quantum-espresso.org/quote

     Parallel version (MPI), running on   120 processors

     MPI processes distributed on     1 nodes
     K-points division:     npool     =       8
     R & G space division:  proc/nbgrp/npool/nimage =      15
     Waiting for input...
     Reading input from standard input

     Reading xml data from directory:

     ./NH2_ESM_pn25.save/

     IMPORTANT: XC functional enforced from input :
     Exchange-correlation= PBE
                           (   1   4   3   4   0   0   0)
     Any further DFT definition will be discarded
     Please, verify this is what you really want


     Parallelization info
     --------------------
     sticks:   dense  smooth     PW     G-vecs:    dense   smooth      PW
     Min        3636    1818    468               639190   225950   29545
     Max        3637    1819    470               639197   225953   29547
     Sum       54553   27281   7033              9587919  3389267  443191


     negative rho (up, down):  2.347E-04 1.630E-04
     Reading collected, re-writing distributed wavefunctions

     Calculation of q =    0.0000000   0.0000000   0.0000000

     phonons (vibrational modes) for NH2                                        

     bravais-lattice index     =            0
     lattice parameter (alat)  =      37.7945  a.u.
     unit-cell volume          =   53986.6760 (a.u.)^3
     number of atoms/cell      =            3
     number of atomic types    =            2
     kinetic-energy cut-off    =      60.0000  Ry
     charge density cut-off    =     480.0000  Ry
     convergence threshold     =      1.0E-12
     beta                      =       0.7000
     number of iterations used =            4
     Exchange-correlation= PBE
                           (   1   4   3   4   0   0   0)


     celldm(1)=   37.79452  celldm(2)=    0.00000  celldm(3)=    0.00000
     celldm(4)=    0.00000  celldm(5)=    0.00000  celldm(6)=    0.00000

     crystal axes: (cart. coord. in units of alat)
               a(1) = (  1.0000  0.0000  0.0000 )  
               a(2) = (  0.0000  1.0000  0.0000 )  
               a(3) = (  0.0000  0.0000  1.0000 )  

     reciprocal axes: (cart. coord. in units 2 pi/alat)
               b(1) = (  1.0000  0.0000  0.0000 )  
               b(2) = (  0.0000  1.0000  0.0000 )  
               b(3) = (  0.0000  0.0000  1.0000 )  


     Atoms inside the unit cell: 

     Cartesian axes

     site n.  atom      mass           positions (alat units)
        1     N   14.0067   tau(    1) = (    0.50000    0.50000    0.00000  )
        2     H    1.0078   tau(    2) = (    0.50000    0.54025    0.03261  )
        3     H    1.0078   tau(    3) = (    0.50000    0.45975    0.03261  )

     Computing dynamical matrix for 
                    q = (   0.0000000   0.0000000   0.0000000 )

      2 Sym.Ops. (with q -> -q+G )


     G cutoff =17367.5767  ( 639197 G-vectors)     FFT grid: (270,270,270)
     G cutoff = 8683.7884  ( 225950 G-vectors)  smooth grid: (192,192,192)

     number of k points=    20  Methfessel-Paxton smearing, width (Ry)=  0.0100
                       cart. coord. in units 2pi/alat
        k(    1) = (   0.0000000   0.0000000   0.0000000), wk =   0.0625000
        k(    2) = (   0.0000000   0.2500000   0.0000000), wk =   0.1250000
        k(    3) = (   0.0000000  -0.5000000   0.0000000), wk =   0.0625000
        k(    4) = (   0.2500000   0.0000000   0.0000000), wk =   0.1250000
        k(    5) = (   0.2500000   0.2500000   0.0000000), wk =   0.1250000
        k(    6) = (   0.2500000  -0.5000000   0.0000000), wk =   0.1250000
        k(    7) = (   0.2500000  -0.2500000   0.0000000), wk =   0.1250000
        k(    8) = (  -0.5000000   0.0000000   0.0000000), wk =   0.0625000
        k(    9) = (  -0.5000000   0.2500000   0.0000000), wk =   0.1250000
        k(   10) = (  -0.5000000  -0.5000000   0.0000000), wk =   0.0625000
        k(   11) = (   0.0000000   0.0000000   0.0000000), wk =   0.0625000
        k(   12) = (   0.0000000   0.2500000   0.0000000), wk =   0.1250000
        k(   13) = (   0.0000000  -0.5000000   0.0000000), wk =   0.0625000
        k(   14) = (   0.2500000   0.0000000   0.0000000), wk =   0.1250000
        k(   15) = (   0.2500000   0.2500000   0.0000000), wk =   0.1250000
        k(   16) = (   0.2500000  -0.5000000   0.0000000), wk =   0.1250000
        k(   17) = (   0.2500000  -0.2500000   0.0000000), wk =   0.1250000
        k(   18) = (  -0.5000000   0.0000000   0.0000000), wk =   0.0625000
        k(   19) = (  -0.5000000   0.2500000   0.0000000), wk =   0.1250000
        k(   20) = (  -0.5000000  -0.5000000   0.0000000), wk =   0.0625000

     PseudoPot. # 1 for N  read from file:
     ../../SSSP/N.pbe-n-radius_5.UPF
     MD5 check sum: 16739722b17309cd8fe442a2ace49922
     Pseudo is Ultrasoft + core correction, Zval =  5.0
     Generated using "atomic" code by A. Dal Corso  v.5.1
     Using radial grid of 1085 points,  4 beta functions with: 
                l(1) =   0
                l(2) =   0
                l(3) =   1
                l(4) =   1
     Q(r) pseudized with 0 coefficients 


     PseudoPot. # 2 for H  read from file:
     ../../SSSP/H.pbe-rrkjus_psl.1.0.0.UPF
     MD5 check sum: f52b6d4d1c606e5624b1dc7b2218f220
     Pseudo is Ultrasoft, Zval =  1.0
     Generated using "atomic" code by A. Dal Corso  v.5.1
     Using radial grid of  929 points,  2 beta functions with: 
                l(1) =   0
                l(2) =   0
     Q(r) pseudized with 0 coefficients 


     Mode symmetry, C_1 (1)     point group:


     Atomic displacements:
     There are    9 irreducible representations

     Representation     1      1 modes -  To be done

     Representation     2      1 modes -  To be done

     Representation     3      1 modes -  To be done

     Representation     4      1 modes -  To be done

     Representation     5      1 modes -  To be done

     Representation     6      1 modes -  To be done

     Representation     7      1 modes -  To be done

     Representation     8      1 modes -  To be done

     Representation     9      1 modes -  To be done



     Alpha used in Ewald sum =   2.8000

     -------------------------------------------------
     Parameters for Dispersion (Grimme-D2) Correction:
     -------------------------------------------------
       atom      VdW radius       C_6     

        N          2.640         42.670
        H          1.892          4.857

     Calculating the D2 contribution to the dynamical matrix.
     D2 energy =       -0.00009401 Ry
     Done.


     negative rho (up, down):  2.347E-04 1.630E-04
     PHONON       :   3m 1.82s CPU   3m 8.65s WALL



     Representation #   1 mode #   1

     Self-consistent Calculation

     Pert. #  1: Fermi energy shift (Ry) =    -2.6865E-09     0.0000E+00

      iter #   1 total cpu time :   227.1 secs   av.it.:   6.5
      thresh= 1.000E-02 alpha_mix =  0.700 |ddv_scf|^2 =  2.489E-09

     Pert. #  1: Fermi energy shift (Ry) =    -6.8762E-10     0.0000E+00

      iter #   2 total cpu time :   266.4 secs   av.it.:  12.7
      thresh= 4.989E-06 alpha_mix =  0.700 |ddv_scf|^2 =  3.777E-10

     Pert. #  1: Fermi energy shift (Ry) =     2.1100E-08     0.0000E+00

      iter #   3 total cpu time :   308.5 secs   av.it.:  12.5
      thresh= 1.943E-06 alpha_mix =  0.700 |ddv_scf|^2 =  3.242E-12

     Pert. #  1: Fermi energy shift (Ry) =    -2.3814E-08     0.0000E+00

      iter #   4 total cpu time :   347.3 secs   av.it.:  13.6
      thresh= 1.801E-07 alpha_mix =  0.700 |ddv_scf|^2 =  3.125E-14

     End of self-consistent calculation

     Convergence has been achieved 


     Representation #   2 mode #   2

     Self-consistent Calculation

     Pert. #  1: Fermi energy shift (Ry) =     2.0025E-08     0.0000E+00

      iter #   1 total cpu time :   406.1 secs   av.it.:   7.0
      thresh= 1.000E-02 alpha_mix =  0.700 |ddv_scf|^2 =  2.739E-09

     Pert. #  1: Fermi energy shift (Ry) =     5.0477E-09     0.0000E+00

      iter #   2 total cpu time :   445.7 secs   av.it.:  12.9
      thresh= 5.234E-06 alpha_mix =  0.700 |ddv_scf|^2 =  3.918E-10

     Pert. #  1: Fermi energy shift (Ry) =     1.7406E-08     0.0000E+00

      iter #   3 total cpu time :   485.7 secs   av.it.:  13.0
      thresh= 1.979E-06 alpha_mix =  0.700 |ddv_scf|^2 =  3.694E-12

     Pert. #  1: Fermi energy shift (Ry) =    -2.5552E-09     0.0000E+00

      iter #   4 total cpu time :   524.9 secs   av.it.:  14.0
      thresh= 1.922E-07 alpha_mix =  0.700 |ddv_scf|^2 =  1.576E-14

     End of self-consistent calculation

     Convergence has been achieved 


     Representation #   3 mode #   3

     Self-consistent Calculation

     Pert. #  1: Fermi energy shift (Ry) =     4.8422E-01     0.0000E+00

      iter #   1 total cpu time :   581.9 secs   av.it.:   7.0
      thresh= 1.000E-02 alpha_mix =  0.700 |ddv_scf|^2 =  5.362E-09

     Pert. #  1: Fermi energy shift (Ry) =     1.1685E-01     0.0000E+00

      iter #   2 total cpu time :   621.4 secs   av.it.:  13.5
      thresh= 7.323E-06 alpha_mix =  0.700 |ddv_scf|^2 =  6.060E-10

     Pert. #  1: Fermi energy shift (Ry) =     2.7896E-01     0.0000E+00

      iter #   3 total cpu time :   662.6 secs   av.it.:  13.5
      thresh= 2.462E-06 alpha_mix =  0.700 |ddv_scf|^2 =  4.282E-11

     Pert. #  1: Fermi energy shift (Ry) =     1.6233E-01     0.0000E+00

      iter #   4 total cpu time :   706.6 secs   av.it.:  14.5
      thresh= 6.543E-07 alpha_mix =  0.700 |ddv_scf|^2 =  9.802E-13

     End of self-consistent calculation

     Convergence has been achieved 


     Representation #   4 mode #   4

     Self-consistent Calculation

     Pert. #  1: Fermi energy shift (Ry) =     3.3528E-09     0.0000E+00

      iter #   1 total cpu time :   763.0 secs   av.it.:   5.0
      thresh= 1.000E-02 alpha_mix =  0.700 |ddv_scf|^2 =  5.789E-11

     Pert. #  1: Fermi energy shift (Ry) =    -1.3339E-09     0.0000E+00

      iter #   2 total cpu time :   801.6 secs   av.it.:  13.2
      thresh= 7.609E-07 alpha_mix =  0.700 |ddv_scf|^2 =  5.406E-12

     Pert. #  1: Fermi energy shift (Ry) =     6.2769E-09     0.0000E+00

      iter #   3 total cpu time :   839.6 secs   av.it.:  12.5
      thresh= 2.325E-07 alpha_mix =  0.700 |ddv_scf|^2 =  5.044E-14

     End of self-consistent calculation

     Convergence has been achieved 


     Representation #   5 mode #   5

     Self-consistent Calculation

     Pert. #  1: Fermi energy shift (Ry) =     1.9720E-01     0.0000E+00

      iter #   1 total cpu time :   897.0 secs   av.it.:   5.5
      thresh= 1.000E-02 alpha_mix =  0.700 |ddv_scf|^2 =  1.670E-10

     Pert. #  1: Fermi energy shift (Ry) =    -1.4577E-02     0.0000E+00

      iter #   2 total cpu time :   937.1 secs   av.it.:  15.5
      thresh= 1.292E-06 alpha_mix =  0.700 |ddv_scf|^2 =  4.078E-11

     Pert. #  1: Fermi energy shift (Ry) =     7.5043E-02     0.0000E+00

      iter #   3 total cpu time :   979.9 secs   av.it.:  15.0
      thresh= 6.386E-07 alpha_mix =  0.700 |ddv_scf|^2 =  2.154E-12

     Pert. #  1: Fermi energy shift (Ry) =     5.3683E-02     0.0000E+00

      iter #   4 total cpu time :  1023.9 secs   av.it.:  15.1
      thresh= 1.468E-07 alpha_mix =  0.700 |ddv_scf|^2 =  1.611E-13

     End of self-consistent calculation

     Convergence has been achieved 


     Representation #   6 mode #   6

     Self-consistent Calculation

     Pert. #  1: Fermi energy shift (Ry) =     8.8325E-02     0.0000E+00

      iter #   1 total cpu time :  1080.1 secs   av.it.:   5.5
      thresh= 1.000E-02 alpha_mix =  0.700 |ddv_scf|^2 =  1.401E-10

     Pert. #  1: Fermi energy shift (Ry) =    -1.2953E-01     0.0000E+00

      iter #   2 total cpu time :  1122.5 secs   av.it.:  15.5
      thresh= 1.184E-06 alpha_mix =  0.700 |ddv_scf|^2 =  5.127E-11

     Pert. #  1: Fermi energy shift (Ry) =    -2.5763E-02     0.0000E+00

      iter #   3 total cpu time :  1162.5 secs   av.it.:  15.0
      thresh= 7.161E-07 alpha_mix =  0.700 |ddv_scf|^2 =  3.094E-12

     Pert. #  1: Fermi energy shift (Ry) =    -3.7963E-02     0.0000E+00

      iter #   4 total cpu time :  1202.7 secs   av.it.:  14.9
      thresh= 1.759E-07 alpha_mix =  0.700 |ddv_scf|^2 =  2.591E-14

     End of self-consistent calculation

     Convergence has been achieved 


     Representation #   7 mode #   7

     Self-consistent Calculation

     Pert. #  1: Fermi energy shift (Ry) =    -9.1247E-10     0.0000E+00

      iter #   1 total cpu time :  1258.1 secs   av.it.:   5.0
      thresh= 1.000E-02 alpha_mix =  0.700 |ddv_scf|^2 =  5.789E-11

     Pert. #  1: Fermi energy shift (Ry) =    -4.1211E-10     0.0000E+00

      iter #   2 total cpu time :  1298.5 secs   av.it.:  13.2
      thresh= 7.609E-07 alpha_mix =  0.700 |ddv_scf|^2 =  5.406E-12

     Pert. #  1: Fermi energy shift (Ry) =    -2.1346E-09     0.0000E+00

      iter #   3 total cpu time :  1336.6 secs   av.it.:  12.5
      thresh= 2.325E-07 alpha_mix =  0.700 |ddv_scf|^2 =  5.044E-14

     End of self-consistent calculation

     Convergence has been achieved 


     Representation #   8 mode #   8

     Self-consistent Calculation

     Pert. #  1: Fermi energy shift (Ry) =    -1.9720E-01     0.0000E+00

      iter #   1 total cpu time :  1394.1 secs   av.it.:   5.5
      thresh= 1.000E-02 alpha_mix =  0.700 |ddv_scf|^2 =  1.670E-10

     Pert. #  1: Fermi energy shift (Ry) =     1.4577E-02     0.0000E+00

      iter #   2 total cpu time :  1434.9 secs   av.it.:  15.5
      thresh= 1.292E-06 alpha_mix =  0.700 |ddv_scf|^2 =  4.078E-11

     Pert. #  1: Fermi energy shift (Ry) =    -7.5043E-02     0.0000E+00

      iter #   3 total cpu time :  1475.8 secs   av.it.:  15.0
      thresh= 6.386E-07 alpha_mix =  0.700 |ddv_scf|^2 =  2.154E-12

     Pert. #  1: Fermi energy shift (Ry) =    -5.3683E-02     0.0000E+00

      iter #   4 total cpu time :  1515.7 secs   av.it.:  15.1
      thresh= 1.468E-07 alpha_mix =  0.700 |ddv_scf|^2 =  1.611E-13

     End of self-consistent calculation

     Convergence has been achieved 


     Representation #   9 mode #   9

     Self-consistent Calculation

     Pert. #  1: Fermi energy shift (Ry) =     8.8325E-02     0.0000E+00

      iter #   1 total cpu time :  1572.4 secs   av.it.:   5.5
      thresh= 1.000E-02 alpha_mix =  0.700 |ddv_scf|^2 =  1.401E-10

     Pert. #  1: Fermi energy shift (Ry) =    -1.2953E-01     0.0000E+00

      iter #   2 total cpu time :  1613.9 secs   av.it.:  15.5
      thresh= 1.184E-06 alpha_mix =  0.700 |ddv_scf|^2 =  5.127E-11

     Pert. #  1: Fermi energy shift (Ry) =    -2.5763E-02     0.0000E+00

      iter #   3 total cpu time :  1655.8 secs   av.it.:  15.0
      thresh= 7.161E-07 alpha_mix =  0.700 |ddv_scf|^2 =  3.094E-12

     Pert. #  1: Fermi energy shift (Ry) =    -3.7963E-02     0.0000E+00

      iter #   4 total cpu time :  1696.1 secs   av.it.:  14.9
      thresh= 1.759E-07 alpha_mix =  0.700 |ddv_scf|^2 =  2.591E-14

     End of self-consistent calculation

     Convergence has been achieved 

     Number of q in the star =    1
     List of q in the star:
          1   0.000000000   0.000000000   0.000000000

     Diagonalizing the dynamical matrix

     q = (    0.000000000   0.000000000   0.000000000 ) 

 **************************************************************************
     freq (    1) =      29.331397 [THz] =     978.390090 [cm-1]
     freq (    2) =      33.922849 [THz] =    1131.544457 [cm-1]
     freq (    3) =      34.334270 [THz] =    1145.267962 [cm-1]
     freq (    4) =      38.936761 [THz] =    1298.790543 [cm-1]
     freq (    5) =      44.608735 [THz] =    1487.987223 [cm-1]
     freq (    6) =      45.029760 [THz] =    1502.031104 [cm-1]
     freq (    7) =      54.528780 [THz] =    1818.884315 [cm-1]
     freq (    8) =     108.324558 [THz] =    3613.318322 [cm-1]
     freq (    9) =     110.298558 [THz] =    3679.163869 [cm-1]
 **************************************************************************

     Mode symmetry, C_1 (1)     point group:

     freq (   1-   1) =        978.4  [cm-1]   --> A               I+R
     freq (   2-   2) =       1131.5  [cm-1]   --> A               I+R
     freq (   3-   3) =       1145.3  [cm-1]   --> A               I+R
     freq (   4-   4) =       1298.8  [cm-1]   --> A               I+R
     freq (   5-   5) =       1488.0  [cm-1]   --> A               I+R
     freq (   6-   6) =       1502.0  [cm-1]   --> A               I+R
     freq (   7-   7) =       1818.9  [cm-1]   --> A               I+R
     freq (   8-   8) =       3613.3  [cm-1]   --> A               I+R
     freq (   9-   9) =       3679.2  [cm-1]   --> A               I+R

     PHONON       :  24m51.65s CPU  28m40.39s WALL

     INITIALIZATION: 
     phq_setup    :     14.62s CPU     15.81s WALL (       1 calls)
     phq_init     :    148.58s CPU    152.37s WALL (       1 calls)

     phq_init     :    148.58s CPU    152.37s WALL (       1 calls)
     set_drhoc    :     24.04s CPU     24.14s WALL (       3 calls)
     init_vloc    :      0.33s CPU      0.33s WALL (       1 calls)
     init_us_1    :      0.09s CPU      0.09s WALL (       1 calls)
     newd         :      1.27s CPU      1.31s WALL (       1 calls)
     dvanqq       :     57.69s CPU     58.32s WALL (       1 calls)
     drho         :     43.93s CPU     46.27s WALL (       1 calls)

     DYNAMICAL MATRIX:
     dynmat0      :     24.51s CPU     25.22s WALL (       1 calls)
     phqscf       :   1309.34s CPU   1523.84s WALL (       1 calls)
     dynmatrix    :      0.36s CPU      0.42s WALL (       1 calls)

     phqscf       :   1309.34s CPU   1523.84s WALL (       1 calls)
     solve_linter :   1299.06s CPU   1498.00s WALL (       9 calls)
     drhodv       :     10.27s CPU     10.65s WALL (       9 calls)

     dynmat0      :     24.51s CPU     25.22s WALL (       1 calls)
     dynmat_us    :      1.82s CPU      1.87s WALL (       1 calls)
     d2ionq       :      0.50s CPU      0.50s WALL (       1 calls)
     dynmatcc     :     22.14s CPU     22.79s WALL (       1 calls)

     dynmat_us    :      1.82s CPU      1.87s WALL (       1 calls)
     addusdynmat  :      0.00s CPU      0.00s WALL (       1 calls)

     phqscf       :   1309.34s CPU   1523.84s WALL (       1 calls)
     solve_linter :   1299.06s CPU   1498.00s WALL (       9 calls)

     solve_linter :   1299.06s CPU   1498.00s WALL (       9 calls)
     dvqpsi_us    :     18.56s CPU     18.93s WALL (      27 calls)
     ortho        :      2.67s CPU      2.74s WALL (     102 calls)
     cgsolve      :    380.01s CPU    384.64s WALL (     102 calls)
     incdrhoscf   :     29.18s CPU     29.63s WALL (     102 calls)
     addusddens   :     80.29s CPU     85.49s WALL (      43 calls)
     vpsifft      :     22.51s CPU     22.88s WALL (      75 calls)
     dv_of_drho   :    226.92s CPU    235.52s WALL (      34 calls)
     mix_pot      :     10.62s CPU     33.23s WALL (      34 calls)
     ef_shift     :     34.40s CPU     35.06s WALL (      43 calls)
     localdos     :     49.44s CPU     51.17s WALL (       9 calls)
     psymdvscf    :    149.72s CPU    244.93s WALL (      34 calls)
     newdq        :    104.78s CPU    109.73s WALL (      34 calls)
     adddvscf     :      0.71s CPU      0.72s WALL (      75 calls)
     drhodvus     :      4.82s CPU     32.87s WALL (       9 calls)

     dvqpsi_us    :     18.56s CPU     18.93s WALL (      27 calls)
     dvqpsi_us_on :      0.34s CPU      0.35s WALL (      27 calls)

     cgsolve      :    380.01s CPU    384.64s WALL (     102 calls)
     ch_psi       :    367.40s CPU    371.87s WALL (    1464 calls)

     ch_psi       :    367.40s CPU    371.87s WALL (    1464 calls)
     h_psi        :    333.80s CPU    337.84s WALL (    1464 calls)
     last         :     23.84s CPU     24.13s WALL (    1464 calls)

     h_psi        :    333.80s CPU    337.84s WALL (    1464 calls)
     add_vuspsi   :      6.33s CPU      6.42s WALL (    1464 calls)

     incdrhoscf   :     29.18s CPU     29.63s WALL (     102 calls)
     addusdbec    :      1.28s CPU      1.29s WALL (     129 calls)

     drhodvus     :      4.82s CPU     32.87s WALL (       9 calls)

      General routines
     calbec       :     20.31s CPU     20.77s WALL (    3324 calls)
     fft          :    405.53s CPU    414.28s WALL (    1509 calls)
     ffts         :     30.99s CPU     31.53s WALL (     399 calls)
     fftw         :    322.79s CPU    326.68s WALL (   11812 calls)
     davcio       :      0.22s CPU     53.70s WALL (     780 calls)
     write_rec    :      0.17s CPU     28.07s WALL (      43 calls)


     PHONON       :  24m51.65s CPU  28m40.39s WALL


   This run was terminated on:  19:58:56  16Sep2022            

=------------------------------------------------------------------------------=
   JOB DONE.
=------------------------------------------------------------------------------=
