     Message from routine get_command_line:
     unexpected argument # 4     :-in

     Program PWSCF v.6.7MaX starts on 30Jun2022 at 18:11:52 

     This program is part of the open-source Quantum ESPRESSO suite
     for quantum simulation of materials; please cite
         "P. Giannozzi et al., J. Phys.:Condens. Matter 21 395502 (2009);
         "P. Giannozzi et al., J. Phys.:Condens. Matter 29 465901 (2017);
          URL http://www.quantum-espresso.org", 
     in publications or presentations arising from this work. More details at
     http://www.quantum-espresso.org/quote

     Parallel version (MPI), running on   120 processors

     MPI processes distributed on     1 nodes
     K-points division:     npool     =       8
     R & G space division:  proc/nbgrp/npool/nimage =      15
     Waiting for input...
     Reading input from standard input
Warning: card &CELL ignored
Warning: card / ignored

     Current dimensions of program PWSCF are:
     Max number of different atomic species (ntypx) = 10
     Max number of k-points (npk) =  40000
     Max angular momentum in pseudopotentials (lmaxx) =  3

     IMPORTANT: XC functional enforced from input :
     Exchange-correlation= PBE
                           (   1   4   3   4   0   0   0)
     Any further DFT definition will be discarded
     Please, verify this is what you really want


     -------------------------------------------------
     Parameters for Dispersion (Grimme-D2) Correction:
     -------------------------------------------------
       atom      VdW radius       C_6     

        N          2.640         42.670
        H          1.892          4.857

     Subspace diagonalization in iterative solution of the eigenvalue problem:
     one sub-group per band group will be used
     scalapack distributed-memory algorithm (size of sub-group:  3*  3 procs)


     Parallelization info
     --------------------
     sticks:   dense  smooth     PW     G-vecs:    dense   smooth      PW
     Min        3636    1818    468               639190   225950   29545
     Max        3637    1819    470               639197   225953   29547
     Sum       54553   27281   7033              9587919  3389267  443191



     bravais-lattice index     =            0
     lattice parameter (alat)  =      37.7945  a.u.
     unit-cell volume          =   53986.6760 (a.u.)^3
     number of atoms/cell      =            4
     number of atomic types    =            2
     number of electrons       =         8.00
     number of Kohn-Sham states=            8
     kinetic-energy cutoff     =      60.0000  Ry
     charge density cutoff     =     480.0000  Ry
     scf convergence threshold =      1.0E-08
     mixing beta               =       0.7000
     number of iterations used =           10  plain     mixing
     energy convergence thresh.=      7.3E-07
     force convergence thresh. =      3.9E-04
     Exchange-correlation= PBE
                           (   1   4   3   4   0   0   0)
     nstep                     =           50


     Effective Screening Medium Method
     =================================
     Boundary Conditions: Metal-Slab-Metal
     field strength                   =    -0.05 Ry/a.u.
     grid points for fit at edges     =        4 


     celldm(1)=  37.794522  celldm(2)=   0.000000  celldm(3)=   0.000000
     celldm(4)=   0.000000  celldm(5)=   0.000000  celldm(6)=   0.000000

     crystal axes: (cart. coord. in units of alat)
               a(1) = (   1.000000   0.000000   0.000000 )  
               a(2) = (   0.000000   1.000000   0.000000 )  
               a(3) = (   0.000000   0.000000   1.000000 )  

     reciprocal axes: (cart. coord. in units 2 pi/alat)
               b(1) = (  1.000000  0.000000  0.000000 )  
               b(2) = (  0.000000  1.000000  0.000000 )  
               b(3) = (  0.000000  0.000000  1.000000 )  


     PseudoPot. # 1 for N  read from file:
     ../../SSSP/N.pbe-n-radius_5.UPF
     MD5 check sum: 16739722b17309cd8fe442a2ace49922
     Pseudo is Ultrasoft + core correction, Zval =  5.0
     Generated using "atomic" code by A. Dal Corso  v.5.1
     Using radial grid of 1085 points,  4 beta functions with: 
                l(1) =   0
                l(2) =   0
                l(3) =   1
                l(4) =   1
     Q(r) pseudized with 0 coefficients 


     PseudoPot. # 2 for H  read from file:
     ../../SSSP/H.pbe-rrkjus_psl.1.0.0.UPF
     MD5 check sum: f52b6d4d1c606e5624b1dc7b2218f220
     Pseudo is Ultrasoft, Zval =  1.0
     Generated using "atomic" code by A. Dal Corso  v.5.1
     Using radial grid of  929 points,  2 beta functions with: 
                l(1) =   0
                l(2) =   0
     Q(r) pseudized with 0 coefficients 


     atomic species   valence    mass     pseudopotential
        N              5.00    14.00700     N ( 1.00)
        H              1.00     1.00800     H ( 1.00)

     Starting magnetic structure 
     atomic species   magnetization
        N            0.100
        H            0.100

     No symmetry found



   Cartesian axes

     site n.     atom                  positions (alat units)
         1           N   tau(   1) = (   0.5000000   0.5000000   0.0000000  )
         2           H   tau(   2) = (   0.5000000   0.5468389   0.0205034  )
         3           H   tau(   3) = (   0.5405636   0.4765807   0.0205037  )
         4           H   tau(   4) = (   0.4594364   0.4765807   0.0205037  )

     number of k points=    10  Methfessel-Paxton smearing, width (Ry)=  0.0100
                       cart. coord. in units 2pi/alat
        k(    1) = (   0.0000000   0.0000000   0.0000000), wk =   0.0625000
        k(    2) = (   0.0000000   0.2500000   0.0000000), wk =   0.1250000
        k(    3) = (   0.0000000  -0.5000000   0.0000000), wk =   0.0625000
        k(    4) = (   0.2500000   0.0000000   0.0000000), wk =   0.1250000
        k(    5) = (   0.2500000   0.2500000   0.0000000), wk =   0.1250000
        k(    6) = (   0.2500000  -0.5000000   0.0000000), wk =   0.1250000
        k(    7) = (   0.2500000  -0.2500000   0.0000000), wk =   0.1250000
        k(    8) = (  -0.5000000   0.0000000   0.0000000), wk =   0.0625000
        k(    9) = (  -0.5000000   0.2500000   0.0000000), wk =   0.1250000
        k(   10) = (  -0.5000000  -0.5000000   0.0000000), wk =   0.0625000

     Dense  grid:  9587919 G-vectors     FFT dimensions: ( 270, 270, 270)

     Smooth grid:  3389267 G-vectors     FFT dimensions: ( 192, 192, 192)

     Estimated max dynamical RAM per process >     390.11 MB

     Estimated total dynamical RAM >      45.72 GB
     Generating pointlists ...
     new r_m :   0.0211 (alat units)  0.7971 (a.u.) for type    1
     new r_m :   0.0211 (alat units)  0.7971 (a.u.) for type    2

     Initial potential from superposition of free atoms

     starting charge    7.99996, renormalised to    8.00000

     negative rho (up, down):  9.707E-05 7.942E-05
     Starting wfcs are    7 randomized atomic wfcs +    1 random wfcs

     total cpu time spent up to now is       22.4 secs

     Self-consistent Calculation

     iteration #  1     ecut=    60.00 Ry     beta= 0.70
     CG style diagonalization
     c_bands:  4 eigenvalues not converged
     c_bands:  4 eigenvalues not converged
     c_bands:  4 eigenvalues not converged
     ethr =  1.00E-04,  avg # of iterations = 14.1

     negative rho (up, down):  1.830E-02 4.016E-04

     total cpu time spent up to now is       61.5 secs

     total energy              =     -23.53684822 Ry
     estimated scf accuracy    <       0.71199895 Ry

     total magnetization       =    -0.05 Bohr mag/cell
     absolute magnetization    =     0.11 Bohr mag/cell

     iteration #  2     ecut=    60.00 Ry     beta= 0.70
     CG style diagonalization
     ethr =  8.90E-03,  avg # of iterations =  3.1

     negative rho (up, down):  7.622E-04 7.332E-04

     total cpu time spent up to now is       80.0 secs

     total energy              =     -22.36026975 Ry
     estimated scf accuracy    <      19.72295809 Ry

     total magnetization       =    -0.65 Bohr mag/cell
     absolute magnetization    =     0.67 Bohr mag/cell

     iteration #  3     ecut=    60.00 Ry     beta= 0.70
     CG style diagonalization
     ethr =  8.90E-03,  avg # of iterations =  3.4

     negative rho (up, down):  3.614E-04 4.656E-04

     total cpu time spent up to now is       99.1 secs

     total energy              =     -23.79917466 Ry
     estimated scf accuracy    <       0.90847432 Ry

     total magnetization       =     0.18 Bohr mag/cell
     absolute magnetization    =     0.86 Bohr mag/cell

     iteration #  4     ecut=    60.00 Ry     beta= 0.70
     CG style diagonalization
     ethr =  8.90E-03,  avg # of iterations =  3.0

     negative rho (up, down):  1.347E-04 1.273E-04

     total cpu time spent up to now is      117.4 secs

     total energy              =     -23.90502671 Ry
     estimated scf accuracy    <       0.20175632 Ry

     total magnetization       =    -0.00 Bohr mag/cell
     absolute magnetization    =     0.05 Bohr mag/cell

     iteration #  5     ecut=    60.00 Ry     beta= 0.70
     CG style diagonalization
     ethr =  2.52E-03,  avg # of iterations =  3.0

     negative rho (up, down):  1.502E-04 1.445E-04

     total cpu time spent up to now is      135.9 secs

     total energy              =     -23.87035785 Ry
     estimated scf accuracy    <       0.18646205 Ry

     total magnetization       =    -0.04 Bohr mag/cell
     absolute magnetization    =     0.05 Bohr mag/cell

     iteration #  6     ecut=    60.00 Ry     beta= 0.70
     CG style diagonalization
     ethr =  2.33E-03,  avg # of iterations =  3.0

     negative rho (up, down):  5.725E-04 5.694E-04

     total cpu time spent up to now is      154.5 secs

     total energy              =     -23.92832862 Ry
     estimated scf accuracy    <       1.57731036 Ry

     total magnetization       =    -0.34 Bohr mag/cell
     absolute magnetization    =     0.36 Bohr mag/cell

     iteration #  7     ecut=    60.00 Ry     beta= 0.70
     CG style diagonalization
     ethr =  2.33E-03,  avg # of iterations =  3.0

     negative rho (up, down):  7.430E-04 7.299E-04

     total cpu time spent up to now is      173.1 secs

     total energy              =     -23.92814560 Ry
     estimated scf accuracy    <       1.61282838 Ry

     total magnetization       =    -0.29 Bohr mag/cell
     absolute magnetization    =     0.32 Bohr mag/cell

     iteration #  8     ecut=    60.00 Ry     beta= 0.70
     CG style diagonalization
     ethr =  2.33E-03,  avg # of iterations =  3.0

     negative rho (up, down):  7.566E-04 7.138E-04

     total cpu time spent up to now is      191.8 secs

     total energy              =     -23.96203234 Ry
     estimated scf accuracy    <       1.61584152 Ry

     total magnetization       =    -0.28 Bohr mag/cell
     absolute magnetization    =     0.31 Bohr mag/cell

     iteration #  9     ecut=    60.00 Ry     beta= 0.70
     CG style diagonalization
     ethr =  2.33E-03,  avg # of iterations =  3.0

     negative rho (up, down):  7.594E-04 7.050E-04

     total cpu time spent up to now is      210.7 secs

     total energy              =     -23.94972721 Ry
     estimated scf accuracy    <       1.58687895 Ry

     total magnetization       =    -0.24 Bohr mag/cell
     absolute magnetization    =     0.28 Bohr mag/cell

     iteration # 10     ecut=    60.00 Ry     beta= 0.70
     CG style diagonalization
     ethr =  2.33E-03,  avg # of iterations =  3.0

     negative rho (up, down):  7.919E-04 7.472E-04

     total cpu time spent up to now is      229.7 secs

     total energy              =     -23.90784387 Ry
     estimated scf accuracy    <       1.57317588 Ry

     total magnetization       =    -0.30 Bohr mag/cell
     absolute magnetization    =     0.33 Bohr mag/cell

     iteration # 11     ecut=    60.00 Ry     beta= 0.70
     CG style diagonalization
     ethr =  2.33E-03,  avg # of iterations =  3.0

     negative rho (up, down):  5.759E-04 6.209E-04

     total cpu time spent up to now is      248.8 secs

     total energy              =     -23.89464607 Ry
     estimated scf accuracy    <       0.97678442 Ry

     total magnetization       =    -0.04 Bohr mag/cell
     absolute magnetization    =     0.67 Bohr mag/cell

     iteration # 12     ecut=    60.00 Ry     beta= 0.70
     CG style diagonalization
     ethr =  2.33E-03,  avg # of iterations =  3.0

     negative rho (up, down):  1.612E-04 6.177E-04

     total cpu time spent up to now is      268.0 secs

     total energy              =     -23.91246710 Ry
     estimated scf accuracy    <       0.19633130 Ry

     total magnetization       =     0.18 Bohr mag/cell
     absolute magnetization    =     1.94 Bohr mag/cell

     iteration # 13     ecut=    60.00 Ry     beta= 0.70
     CG style diagonalization
     ethr =  2.33E-03,  avg # of iterations =  3.0

     negative rho (up, down):  2.050E-04 5.460E-04

     total cpu time spent up to now is      287.0 secs

     total energy              =     -23.88716502 Ry
     estimated scf accuracy    <       0.18991867 Ry

     total magnetization       =     0.11 Bohr mag/cell
     absolute magnetization    =     1.99 Bohr mag/cell

     iteration # 14     ecut=    60.00 Ry     beta= 0.70
     CG style diagonalization
     ethr =  2.33E-03,  avg # of iterations =  3.0

     negative rho (up, down):  1.926E-04 1.501E-04

     total cpu time spent up to now is      306.0 secs

     total energy              =     -23.91154162 Ry
     estimated scf accuracy    <       0.21659697 Ry

     total magnetization       =    -0.06 Bohr mag/cell
     absolute magnetization    =     0.06 Bohr mag/cell

     iteration # 15     ecut=    60.00 Ry     beta= 0.70
     CG style diagonalization
     ethr =  2.33E-03,  avg # of iterations =  3.0

     negative rho (up, down):  1.918E-04 1.979E-04

     total cpu time spent up to now is      325.0 secs

     total energy              =     -23.91146125 Ry
     estimated scf accuracy    <       0.19249283 Ry

     total magnetization       =     0.04 Bohr mag/cell
     absolute magnetization    =     0.07 Bohr mag/cell

     iteration # 16     ecut=    60.00 Ry     beta= 0.70
     CG style diagonalization
     ethr =  2.33E-03,  avg # of iterations =  3.0

     negative rho (up, down):  1.989E-04 2.263E-04

     total cpu time spent up to now is      344.0 secs

     total energy              =     -23.91142374 Ry
     estimated scf accuracy    <       0.19412255 Ry

     total magnetization       =    -0.05 Bohr mag/cell
     absolute magnetization    =     0.05 Bohr mag/cell

     iteration # 17     ecut=    60.00 Ry     beta= 0.70
     CG style diagonalization
     ethr =  2.33E-03,  avg # of iterations =  3.0

     negative rho (up, down):  1.868E-04 2.342E-04

     total cpu time spent up to now is      363.2 secs

     total energy              =     -23.91501762 Ry
     estimated scf accuracy    <       0.20233572 Ry

     total magnetization       =     0.00 Bohr mag/cell
     absolute magnetization    =     0.02 Bohr mag/cell

     iteration # 18     ecut=    60.00 Ry     beta= 0.70
     CG style diagonalization
     ethr =  2.33E-03,  avg # of iterations =  3.0

     negative rho (up, down):  2.115E-04 3.223E-04

     total cpu time spent up to now is      382.3 secs

     total energy              =     -23.91828800 Ry
     estimated scf accuracy    <       0.20125275 Ry

     total magnetization       =     0.06 Bohr mag/cell
     absolute magnetization    =     0.08 Bohr mag/cell

     iteration # 19     ecut=    60.00 Ry     beta= 0.70
     CG style diagonalization
     ethr =  2.33E-03,  avg # of iterations =  3.0

     negative rho (up, down):  1.323E-03 2.020E-03

     total cpu time spent up to now is      401.2 secs

     total energy              =     -23.92156556 Ry
     estimated scf accuracy    <       0.20859894 Ry

     total magnetization       =    -0.00 Bohr mag/cell
     absolute magnetization    =     0.03 Bohr mag/cell

     iteration # 20     ecut=    60.00 Ry     beta= 0.70
     CG style diagonalization
     ethr =  2.33E-03,  avg # of iterations =  3.0

     negative rho (up, down):  2.388E-04 2.633E-04

     total cpu time spent up to now is      420.4 secs

     total energy              =     -23.91323948 Ry
     estimated scf accuracy    <       0.25297227 Ry

     total magnetization       =    -0.00 Bohr mag/cell
     absolute magnetization    =     0.08 Bohr mag/cell

     iteration # 21     ecut=    60.00 Ry     beta= 0.70
     CG style diagonalization
     ethr =  2.33E-03,  avg # of iterations =  3.0

     negative rho (up, down):  2.279E-04 2.507E-04

     total cpu time spent up to now is      439.4 secs

     total energy              =     -23.91029497 Ry
     estimated scf accuracy    <       0.20687993 Ry

     total magnetization       =     0.01 Bohr mag/cell
     absolute magnetization    =     0.05 Bohr mag/cell

     iteration # 22     ecut=    60.00 Ry     beta= 0.70
     CG style diagonalization
     ethr =  2.33E-03,  avg # of iterations =  3.0

     negative rho (up, down):  2.225E-04 3.774E-04

     total cpu time spent up to now is      458.4 secs

     total energy              =     -23.91114880 Ry
     estimated scf accuracy    <       0.21392565 Ry

     total magnetization       =     0.00 Bohr mag/cell
     absolute magnetization    =     0.07 Bohr mag/cell

     iteration # 23     ecut=    60.00 Ry     beta= 0.70
     CG style diagonalization
     ethr =  2.33E-03,  avg # of iterations =  3.0

     negative rho (up, down):  3.292E-03 3.397E-04

     total cpu time spent up to now is      477.1 secs

     total energy              =     -23.90641669 Ry
     estimated scf accuracy    <       0.12357909 Ry

     total magnetization       =    -0.00 Bohr mag/cell
     absolute magnetization    =     0.25 Bohr mag/cell

     iteration # 24     ecut=    60.00 Ry     beta= 0.70
     CG style diagonalization
     ethr =  1.54E-03,  avg # of iterations =  3.0

     negative rho (up, down):  5.554E-03 7.882E-04

     total cpu time spent up to now is      495.7 secs

     total energy              =     -23.93505134 Ry
     estimated scf accuracy    <       0.14253593 Ry

     total magnetization       =    -0.00 Bohr mag/cell
     absolute magnetization    =     2.03 Bohr mag/cell

     iteration # 25     ecut=    60.00 Ry     beta= 0.70
     CG style diagonalization
     ethr =  1.54E-03,  avg # of iterations =  3.0

     negative rho (up, down):  2.365E-02 4.490E-04

     total cpu time spent up to now is      514.3 secs

     total energy              =     -23.94329502 Ry
     estimated scf accuracy    <       0.14092927 Ry

     total magnetization       =    -0.00 Bohr mag/cell
     absolute magnetization    =     2.02 Bohr mag/cell

     iteration # 26     ecut=    60.00 Ry     beta= 0.70
     CG style diagonalization
     ethr =  1.54E-03,  avg # of iterations =  3.0

     negative rho (up, down):  2.277E-02 8.150E-04

     total cpu time spent up to now is      532.9 secs

     total energy              =     -23.94672483 Ry
     estimated scf accuracy    <       0.14667743 Ry

     total magnetization       =    -0.00 Bohr mag/cell
     absolute magnetization    =     2.04 Bohr mag/cell

     iteration # 27     ecut=    60.00 Ry     beta= 0.70
     CG style diagonalization
     ethr =  1.54E-03,  avg # of iterations =  3.0

     negative rho (up, down):  3.816E-02 1.049E-03

     total cpu time spent up to now is      551.4 secs

     total energy              =     -23.94814208 Ry
     estimated scf accuracy    <       0.13759974 Ry

     total magnetization       =    -0.00 Bohr mag/cell
     absolute magnetization    =     2.02 Bohr mag/cell

     iteration # 28     ecut=    60.00 Ry     beta= 0.70
     CG style diagonalization
     ethr =  1.54E-03,  avg # of iterations =  3.0

     negative rho (up, down):  2.646E-02 1.288E-03

     total cpu time spent up to now is      570.0 secs

     total energy              =     -23.94948161 Ry
     estimated scf accuracy    <       0.13952227 Ry

     total magnetization       =    -0.00 Bohr mag/cell
     absolute magnetization    =     2.02 Bohr mag/cell

     iteration # 29     ecut=    60.00 Ry     beta= 0.70
     CG style diagonalization
     ethr =  1.54E-03,  avg # of iterations =  3.0

     negative rho (up, down):  2.261E-02 4.791E-04

     total cpu time spent up to now is      588.6 secs

     total energy              =     -23.95047524 Ry
     estimated scf accuracy    <       0.14076206 Ry

     total magnetization       =    -0.00 Bohr mag/cell
     absolute magnetization    =     2.02 Bohr mag/cell

     iteration # 30     ecut=    60.00 Ry     beta= 0.70
     CG style diagonalization
     ethr =  1.54E-03,  avg # of iterations =  3.0

     negative rho (up, down):  1.043E-02 1.004E-03

     total cpu time spent up to now is      607.2 secs

     total energy              =     -23.95038504 Ry
     estimated scf accuracy    <       0.14550856 Ry

     total magnetization       =    -0.00 Bohr mag/cell
     absolute magnetization    =     2.02 Bohr mag/cell

     iteration # 31     ecut=    60.00 Ry     beta= 0.70
     CG style diagonalization
     ethr =  1.54E-03,  avg # of iterations =  3.0

     negative rho (up, down):  2.692E-04 2.163E-03

     total cpu time spent up to now is      625.8 secs

     total energy              =     -23.93575237 Ry
     estimated scf accuracy    <       0.14270751 Ry

     total magnetization       =    -0.00 Bohr mag/cell
     absolute magnetization    =     2.02 Bohr mag/cell

     iteration # 32     ecut=    60.00 Ry     beta= 0.70
     CG style diagonalization
     ethr =  1.54E-03,  avg # of iterations =  3.0

     negative rho (up, down):  1.731E-04 2.074E-02

     total cpu time spent up to now is      644.5 secs

     total energy              =     -23.93153880 Ry
     estimated scf accuracy    <       0.13286710 Ry

     total magnetization       =    -0.00 Bohr mag/cell
     absolute magnetization    =     2.00 Bohr mag/cell

     iteration # 33     ecut=    60.00 Ry     beta= 0.70
     CG style diagonalization
     ethr =  1.54E-03,  avg # of iterations =  3.0

     negative rho (up, down):  1.951E-04 5.345E-03

     total cpu time spent up to now is      663.1 secs

     total energy              =     -23.93340319 Ry
     estimated scf accuracy    <       0.12653468 Ry

     total magnetization       =     0.00 Bohr mag/cell
     absolute magnetization    =     2.02 Bohr mag/cell

     iteration # 34     ecut=    60.00 Ry     beta= 0.70
     CG style diagonalization
     ethr =  1.54E-03,  avg # of iterations =  3.0

     negative rho (up, down):  1.248E-03 1.216E-01

     total cpu time spent up to now is      681.9 secs

     total energy              =     -23.89357563 Ry
     estimated scf accuracy    <       0.11788669 Ry

     total magnetization       =    -0.00 Bohr mag/cell
     absolute magnetization    =     1.98 Bohr mag/cell

     iteration # 35     ecut=    60.00 Ry     beta= 0.70
     CG style diagonalization
     ethr =  1.47E-03,  avg # of iterations =  3.1

     negative rho (up, down):  7.019E-04 1.769E-01

     total cpu time spent up to now is      700.7 secs

     total energy              =     -23.92716315 Ry
     estimated scf accuracy    <       0.31910503 Ry

     total magnetization       =     0.00 Bohr mag/cell
     absolute magnetization    =     0.15 Bohr mag/cell

     iteration # 36     ecut=    60.00 Ry     beta= 0.70
     CG style diagonalization
     ethr =  1.47E-03,  avg # of iterations =  3.0

     negative rho (up, down):  1.753E-04 3.592E-02

     total cpu time spent up to now is      719.4 secs

     total energy              =     -23.91464239 Ry
     estimated scf accuracy    <       0.22645369 Ry

     total magnetization       =    -0.00 Bohr mag/cell
     absolute magnetization    =     0.31 Bohr mag/cell

     iteration # 37     ecut=    60.00 Ry     beta= 0.70
     CG style diagonalization
     ethr =  1.47E-03,  avg # of iterations =  3.0

     negative rho (up, down):  1.741E-04 2.436E-02

     total cpu time spent up to now is      738.1 secs

     total energy              =     -23.92256179 Ry
     estimated scf accuracy    <       0.03836346 Ry

     total magnetization       =    -0.00 Bohr mag/cell
     absolute magnetization    =     1.74 Bohr mag/cell

     iteration # 38     ecut=    60.00 Ry     beta= 0.70
     CG style diagonalization
     ethr =  4.80E-04,  avg # of iterations =  3.1

     negative rho (up, down):  1.800E-04 1.466E-03

     total cpu time spent up to now is      757.0 secs

     total energy              =     -23.92470027 Ry
     estimated scf accuracy    <       0.05025273 Ry

     total magnetization       =     0.00 Bohr mag/cell
     absolute magnetization    =     1.80 Bohr mag/cell

     iteration # 39     ecut=    60.00 Ry     beta= 0.70
     CG style diagonalization
     ethr =  4.80E-04,  avg # of iterations =  3.0

     negative rho (up, down):  9.601E-04 2.581E-03

     total cpu time spent up to now is      775.8 secs

     total energy              =     -23.93194251 Ry
     estimated scf accuracy    <       0.08520927 Ry

     total magnetization       =     0.00 Bohr mag/cell
     absolute magnetization    =     1.95 Bohr mag/cell

     iteration # 40     ecut=    60.00 Ry     beta= 0.70
     CG style diagonalization
     ethr =  4.80E-04,  avg # of iterations =  3.0

     negative rho (up, down):  2.513E-04 4.111E-03

     total cpu time spent up to now is      794.5 secs

     total energy              =     -23.92257088 Ry
     estimated scf accuracy    <       0.09214518 Ry

     total magnetization       =    -0.00 Bohr mag/cell
     absolute magnetization    =     2.00 Bohr mag/cell

     iteration # 41     ecut=    60.00 Ry     beta= 0.70
     CG style diagonalization
     ethr =  4.80E-04,  avg # of iterations =  3.0

     negative rho (up, down):  2.962E-03 7.436E-04

     total cpu time spent up to now is      813.3 secs

     total energy              =     -23.93313500 Ry
     estimated scf accuracy    <       0.01360331 Ry

     total magnetization       =     0.00 Bohr mag/cell
     absolute magnetization    =     1.55 Bohr mag/cell

     iteration # 42     ecut=    60.00 Ry     beta= 0.70
     CG style diagonalization
     ethr =  1.70E-04,  avg # of iterations =  3.1

     negative rho (up, down):  2.099E-03 1.847E-03

     total cpu time spent up to now is      832.2 secs

     total energy              =     -23.93390052 Ry
     estimated scf accuracy    <       0.10149265 Ry

     total magnetization       =    -0.00 Bohr mag/cell
     absolute magnetization    =     2.04 Bohr mag/cell

     iteration # 43     ecut=    60.00 Ry     beta= 0.70
     CG style diagonalization
     ethr =  1.70E-04,  avg # of iterations =  3.5

     negative rho (up, down):  2.125E-03 3.109E-03

     total cpu time spent up to now is      851.9 secs

     total energy              =     -23.93392086 Ry
     estimated scf accuracy    <       0.08746402 Ry

     total magnetization       =     0.00 Bohr mag/cell
     absolute magnetization    =     1.99 Bohr mag/cell

     iteration # 44     ecut=    60.00 Ry     beta= 0.70
     CG style diagonalization
     ethr =  1.70E-04,  avg # of iterations =  3.1

     negative rho (up, down):  1.861E-03 1.920E-03

     total cpu time spent up to now is      870.9 secs

     total energy              =     -23.93469535 Ry
     estimated scf accuracy    <       0.07636111 Ry

     total magnetization       =     0.00 Bohr mag/cell
     absolute magnetization    =     1.95 Bohr mag/cell

     iteration # 45     ecut=    60.00 Ry     beta= 0.70
     CG style diagonalization
     ethr =  1.70E-04,  avg # of iterations =  3.0

     negative rho (up, down):  2.301E-03 1.299E-03

     total cpu time spent up to now is      889.6 secs

     total energy              =     -23.93508634 Ry
     estimated scf accuracy    <       0.09307008 Ry

     total magnetization       =     0.00 Bohr mag/cell
     absolute magnetization    =     2.01 Bohr mag/cell

     iteration # 46     ecut=    60.00 Ry     beta= 0.70
     CG style diagonalization
     ethr =  1.70E-04,  avg # of iterations =  3.0

     negative rho (up, down):  2.088E-03 8.968E-04

     total cpu time spent up to now is      908.3 secs

     total energy              =     -23.93612797 Ry
     estimated scf accuracy    <       0.09783831 Ry

     total magnetization       =    -0.00 Bohr mag/cell
     absolute magnetization    =     2.03 Bohr mag/cell

     iteration # 47     ecut=    60.00 Ry     beta= 0.70
     CG style diagonalization
     ethr =  1.70E-04,  avg # of iterations =  3.0

     negative rho (up, down):  1.960E-03 7.586E-04

     total cpu time spent up to now is      926.9 secs

     total energy              =     -23.93659235 Ry
     estimated scf accuracy    <       0.11272390 Ry

     total magnetization       =    -0.00 Bohr mag/cell
     absolute magnetization    =     2.08 Bohr mag/cell

     iteration # 48     ecut=    60.00 Ry     beta= 0.70
     CG style diagonalization
     ethr =  1.70E-04,  avg # of iterations =  3.0

     negative rho (up, down):  1.791E-03 6.079E-04

     total cpu time spent up to now is      945.5 secs

     total energy              =     -23.93685775 Ry
     estimated scf accuracy    <       0.11587996 Ry

     total magnetization       =     0.00 Bohr mag/cell
     absolute magnetization    =     2.08 Bohr mag/cell

     iteration # 49     ecut=    60.00 Ry     beta= 0.70
     CG style diagonalization
     ethr =  1.70E-04,  avg # of iterations =  3.0

     negative rho (up, down):  1.915E-04 1.968E-03

     total cpu time spent up to now is      964.1 secs

     total energy              =     -23.92403335 Ry
     estimated scf accuracy    <       0.11772297 Ry

     total magnetization       =    -0.00 Bohr mag/cell
     absolute magnetization    =     2.09 Bohr mag/cell

     iteration # 50     ecut=    60.00 Ry     beta= 0.70
     CG style diagonalization
     ethr =  1.70E-04,  avg # of iterations =  3.0

     negative rho (up, down):  1.936E-04 1.866E-03

     total cpu time spent up to now is      982.7 secs

     total energy              =     -23.92495942 Ry
     estimated scf accuracy    <       0.04357236 Ry

     total magnetization       =    -0.00 Bohr mag/cell
     absolute magnetization    =     1.76 Bohr mag/cell

     iteration # 51     ecut=    60.00 Ry     beta= 0.70
     CG style diagonalization
     ethr =  1.70E-04,  avg # of iterations =  3.0

     negative rho (up, down):  1.940E-04 4.242E-04

     total cpu time spent up to now is     1001.5 secs

     total energy              =     -23.92398875 Ry
     estimated scf accuracy    <       0.04787913 Ry

     total magnetization       =     0.00 Bohr mag/cell
     absolute magnetization    =     1.79 Bohr mag/cell

     iteration # 52     ecut=    60.00 Ry     beta= 0.70
     CG style diagonalization
     ethr =  1.70E-04,  avg # of iterations =  3.0

     negative rho (up, down):  2.049E-04 2.554E-04

     total cpu time spent up to now is     1020.2 secs

     total energy              =     -23.92364686 Ry
     estimated scf accuracy    <       0.01383708 Ry

     total magnetization       =     0.00 Bohr mag/cell
     absolute magnetization    =     1.55 Bohr mag/cell

     iteration # 53     ecut=    60.00 Ry     beta= 0.70
     CG style diagonalization
     ethr =  1.70E-04,  avg # of iterations =  3.0

     negative rho (up, down):  2.171E-04 1.606E-04

     total cpu time spent up to now is     1038.9 secs

     total energy              =     -23.92416417 Ry
     estimated scf accuracy    <       0.00370456 Ry

     total magnetization       =     0.00 Bohr mag/cell
     absolute magnetization    =     1.14 Bohr mag/cell

     iteration # 54     ecut=    60.00 Ry     beta= 0.70
     CG style diagonalization
     ethr =  4.63E-05,  avg # of iterations =  4.5

     negative rho (up, down):  2.192E-04 1.662E-04

     total cpu time spent up to now is     1060.9 secs

     total energy              =     -23.92445552 Ry
     estimated scf accuracy    <       0.00343276 Ry

     total magnetization       =     0.00 Bohr mag/cell
     absolute magnetization    =     1.42 Bohr mag/cell

     iteration # 55     ecut=    60.00 Ry     beta= 0.70
     CG style diagonalization
     ethr =  4.29E-05,  avg # of iterations =  3.5

     negative rho (up, down):  2.221E-04 1.650E-04

     total cpu time spent up to now is     1080.6 secs

     total energy              =     -23.92443406 Ry
     estimated scf accuracy    <       0.00106987 Ry

     total magnetization       =     0.00 Bohr mag/cell
     absolute magnetization    =     1.36 Bohr mag/cell

     iteration # 56     ecut=    60.00 Ry     beta= 0.70
     CG style diagonalization
     c_bands:  1 eigenvalues not converged
     ethr =  1.34E-05,  avg # of iterations =  4.1

     negative rho (up, down):  2.333E-04 1.638E-04

     total cpu time spent up to now is     1101.6 secs

     total energy              =     -23.92466547 Ry
     estimated scf accuracy    <       0.00069537 Ry

     total magnetization       =    -0.00 Bohr mag/cell
     absolute magnetization    =     1.34 Bohr mag/cell

     iteration # 57     ecut=    60.00 Ry     beta= 0.70
     CG style diagonalization
     ethr =  8.69E-06,  avg # of iterations =  4.0

     negative rho (up, down):  2.229E-04 1.622E-04

     total cpu time spent up to now is     1122.6 secs

     total energy              =     -23.92454783 Ry
     estimated scf accuracy    <       0.00018134 Ry

     total magnetization       =     0.00 Bohr mag/cell
     absolute magnetization    =     1.32 Bohr mag/cell

     iteration # 58     ecut=    60.00 Ry     beta= 0.70
     CG style diagonalization
     c_bands:  1 eigenvalues not converged
     c_bands:  1 eigenvalues not converged
     ethr =  2.27E-06,  avg # of iterations =  5.5

     negative rho (up, down):  2.300E-04 1.622E-04

     total cpu time spent up to now is     1146.4 secs

     total energy              =     -23.92510294 Ry
     estimated scf accuracy    <       0.00033060 Ry

     total magnetization       =    -0.00 Bohr mag/cell
     absolute magnetization    =     1.33 Bohr mag/cell

     iteration # 59     ecut=    60.00 Ry     beta= 0.70
     CG style diagonalization
     c_bands:  1 eigenvalues not converged
     ethr =  2.27E-06,  avg # of iterations =  4.4

     negative rho (up, down):  2.440E-04 1.638E-04

     total cpu time spent up to now is     1168.1 secs

     total energy              =     -23.92720609 Ry
     estimated scf accuracy    <       0.00089446 Ry

     total magnetization       =     0.00 Bohr mag/cell
     absolute magnetization    =     1.36 Bohr mag/cell

     iteration # 60     ecut=    60.00 Ry     beta= 0.70
     CG style diagonalization
     c_bands:  1 eigenvalues not converged
     ethr =  2.27E-06,  avg # of iterations =  5.1

     negative rho (up, down):  2.369E-04 1.913E-04

     total cpu time spent up to now is     1191.1 secs

     total energy              =     -23.92635721 Ry
     estimated scf accuracy    <       0.01629225 Ry

     total magnetization       =    -0.00 Bohr mag/cell
     absolute magnetization    =     1.59 Bohr mag/cell

     iteration # 61     ecut=    60.00 Ry     beta= 0.70
     CG style diagonalization
     c_bands:  1 eigenvalues not converged
     ethr =  2.27E-06,  avg # of iterations =  4.0

     negative rho (up, down):  2.371E-04 1.910E-04

     total cpu time spent up to now is     1212.0 secs

     total energy              =     -23.92619835 Ry
     estimated scf accuracy    <       0.00928732 Ry

     total magnetization       =    -0.00 Bohr mag/cell
     absolute magnetization    =     1.52 Bohr mag/cell

     iteration # 62     ecut=    60.00 Ry     beta= 0.70
     CG style diagonalization
     ethr =  2.27E-06,  avg # of iterations =  3.1

     negative rho (up, down):  2.580E-04 1.894E-04

     total cpu time spent up to now is     1230.8 secs

     total energy              =     -23.92882273 Ry
     estimated scf accuracy    <       0.00826860 Ry

     total magnetization       =    -0.00 Bohr mag/cell
     absolute magnetization    =     1.50 Bohr mag/cell

     iteration # 63     ecut=    60.00 Ry     beta= 0.70
     CG style diagonalization
     ethr =  2.27E-06,  avg # of iterations =  5.4

     negative rho (up, down):  2.432E-04 2.353E-04

     total cpu time spent up to now is     1254.7 secs

     total energy              =     -23.92717932 Ry
     estimated scf accuracy    <       0.03717429 Ry

     total magnetization       =     0.00 Bohr mag/cell
     absolute magnetization    =     1.74 Bohr mag/cell

     iteration # 64     ecut=    60.00 Ry     beta= 0.70
     CG style diagonalization
     ethr =  2.27E-06,  avg # of iterations =  4.7

     negative rho (up, down):  2.400E-04 2.200E-04

     total cpu time spent up to now is     1277.1 secs

     total energy              =     -23.92660857 Ry
     estimated scf accuracy    <       0.01805383 Ry

     total magnetization       =     0.00 Bohr mag/cell
     absolute magnetization    =     1.61 Bohr mag/cell

     iteration # 65     ecut=    60.00 Ry     beta= 0.70
     CG style diagonalization
     ethr =  2.27E-06,  avg # of iterations =  3.7

     negative rho (up, down):  2.435E-04 1.998E-04

     total cpu time spent up to now is     1297.3 secs

     total energy              =     -23.92715100 Ry
     estimated scf accuracy    <       0.00986677 Ry

     total magnetization       =     0.00 Bohr mag/cell
     absolute magnetization    =     1.52 Bohr mag/cell

     iteration # 66     ecut=    60.00 Ry     beta= 0.70
     CG style diagonalization
     ethr =  2.27E-06,  avg # of iterations =  3.2

     negative rho (up, down):  2.420E-04 1.995E-04

     total cpu time spent up to now is     1316.3 secs

     total energy              =     -23.92693806 Ry
     estimated scf accuracy    <       0.01232733 Ry

     total magnetization       =     0.00 Bohr mag/cell
     absolute magnetization    =     1.55 Bohr mag/cell

     iteration # 67     ecut=    60.00 Ry     beta= 0.70
     CG style diagonalization
     ethr =  2.27E-06,  avg # of iterations =  3.0

     negative rho (up, down):  2.422E-04 1.965E-04

     total cpu time spent up to now is     1334.9 secs

     total energy              =     -23.92682044 Ry
     estimated scf accuracy    <       0.01076585 Ry

     total magnetization       =     0.00 Bohr mag/cell
     absolute magnetization    =     1.53 Bohr mag/cell

     iteration # 68     ecut=    60.00 Ry     beta= 0.70
     CG style diagonalization
     ethr =  2.27E-06,  avg # of iterations =  3.0

     negative rho (up, down):  2.495E-04 1.928E-04

     total cpu time spent up to now is     1353.6 secs

     total energy              =     -23.92796569 Ry
     estimated scf accuracy    <       0.00960800 Ry

     total magnetization       =     0.00 Bohr mag/cell
     absolute magnetization    =     1.52 Bohr mag/cell

     iteration # 69     ecut=    60.00 Ry     beta= 0.70
     CG style diagonalization
     ethr =  2.27E-06,  avg # of iterations =  3.7

     negative rho (up, down):  2.391E-04 2.103E-04

     total cpu time spent up to now is     1373.9 secs

     total energy              =     -23.92652853 Ry
     estimated scf accuracy    <       0.01907677 Ry

     total magnetization       =     0.00 Bohr mag/cell
     absolute magnetization    =     1.62 Bohr mag/cell

     iteration # 70     ecut=    60.00 Ry     beta= 0.70
     CG style diagonalization
     ethr =  2.27E-06,  avg # of iterations =  3.7

     negative rho (up, down):  2.431E-04 1.966E-04

     total cpu time spent up to now is     1394.1 secs

     total energy              =     -23.92719199 Ry
     estimated scf accuracy    <       0.00976158 Ry

     total magnetization       =    -0.00 Bohr mag/cell
     absolute magnetization    =     1.52 Bohr mag/cell

     iteration # 71     ecut=    60.00 Ry     beta= 0.70
     CG style diagonalization
     ethr =  2.27E-06,  avg # of iterations =  3.1

     negative rho (up, down):  2.461E-04 1.989E-04

     total cpu time spent up to now is     1413.1 secs

     total energy              =     -23.92741946 Ry
     estimated scf accuracy    <       0.01288132 Ry

     total magnetization       =     0.00 Bohr mag/cell
     absolute magnetization    =     1.56 Bohr mag/cell

     iteration # 72     ecut=    60.00 Ry     beta= 0.70
     CG style diagonalization
     ethr =  2.27E-06,  avg # of iterations =  3.2

     negative rho (up, down):  2.510E-04 1.881E-04

     total cpu time spent up to now is     1432.3 secs

     total energy              =     -23.92775981 Ry
     estimated scf accuracy    <       0.00691009 Ry

     total magnetization       =    -0.00 Bohr mag/cell
     absolute magnetization    =     1.49 Bohr mag/cell

     iteration # 73     ecut=    60.00 Ry     beta= 0.70
     CG style diagonalization
     ethr =  2.27E-06,  avg # of iterations =  3.8

     negative rho (up, down):  2.507E-04 1.705E-04

     total cpu time spent up to now is     1452.8 secs

     total energy              =     -23.92780436 Ry
     estimated scf accuracy    <       0.00082628 Ry

     total magnetization       =    -0.00 Bohr mag/cell
     absolute magnetization    =     1.37 Bohr mag/cell

     iteration # 74     ecut=    60.00 Ry     beta= 0.70
     CG style diagonalization
     ethr =  2.27E-06,  avg # of iterations =  3.6

     negative rho (up, down):  2.507E-04 1.684E-04

     total cpu time spent up to now is     1472.7 secs

     total energy              =     -23.92780092 Ry
     estimated scf accuracy    <       0.00134866 Ry

     total magnetization       =    -0.00 Bohr mag/cell
     absolute magnetization    =     1.39 Bohr mag/cell

     iteration # 75     ecut=    60.00 Ry     beta= 0.70
     CG style diagonalization
     ethr =  2.27E-06,  avg # of iterations =  3.1

     negative rho (up, down):  2.471E-04 1.679E-04

     total cpu time spent up to now is     1491.5 secs

     total energy              =     -23.92733323 Ry
     estimated scf accuracy    <       0.00143541 Ry

     total magnetization       =    -0.00 Bohr mag/cell
     absolute magnetization    =     1.39 Bohr mag/cell

     iteration # 76     ecut=    60.00 Ry     beta= 0.70
     CG style diagonalization
     ethr =  2.27E-06,  avg # of iterations =  3.4

     negative rho (up, down):  2.482E-04 1.768E-04

     total cpu time spent up to now is     1511.1 secs

     total energy              =     -23.92756103 Ry
     estimated scf accuracy    <       0.00604399 Ry

     total magnetization       =     0.00 Bohr mag/cell
     absolute magnetization    =     1.48 Bohr mag/cell

     iteration # 77     ecut=    60.00 Ry     beta= 0.70
     CG style diagonalization
     ethr =  2.27E-06,  avg # of iterations =  3.1

     negative rho (up, down):  2.479E-04 1.767E-04

     total cpu time spent up to now is     1530.0 secs

     total energy              =     -23.92758115 Ry
     estimated scf accuracy    <       0.00435049 Ry

     total magnetization       =     0.00 Bohr mag/cell
     absolute magnetization    =     1.45 Bohr mag/cell

     iteration # 78     ecut=    60.00 Ry     beta= 0.70
     CG style diagonalization
     ethr =  2.27E-06,  avg # of iterations =  3.0

     negative rho (up, down):  2.476E-04 1.769E-04

     total cpu time spent up to now is     1548.7 secs

     total energy              =     -23.92756452 Ry
     estimated scf accuracy    <       0.00443759 Ry

     total magnetization       =    -0.00 Bohr mag/cell
     absolute magnetization    =     1.45 Bohr mag/cell

     iteration # 79     ecut=    60.00 Ry     beta= 0.70
     CG style diagonalization
     ethr =  2.27E-06,  avg # of iterations =  3.0

     negative rho (up, down):  2.471E-04 1.776E-04

     total cpu time spent up to now is     1567.3 secs

     total energy              =     -23.92751930 Ry
     estimated scf accuracy    <       0.00474729 Ry

     total magnetization       =     0.00 Bohr mag/cell
     absolute magnetization    =     1.46 Bohr mag/cell

     iteration # 80     ecut=    60.00 Ry     beta= 0.70
     CG style diagonalization
     ethr =  2.27E-06,  avg # of iterations =  3.0

     negative rho (up, down):  2.532E-04 1.810E-04

     total cpu time spent up to now is     1585.9 secs

     total energy              =     -23.92771928 Ry
     estimated scf accuracy    <       0.00558307 Ry

     total magnetization       =     0.00 Bohr mag/cell
     absolute magnetization    =     1.47 Bohr mag/cell

     iteration # 81     ecut=    60.00 Ry     beta= 0.70
     CG style diagonalization
     ethr =  2.27E-06,  avg # of iterations =  4.5

     negative rho (up, down):  2.542E-04 1.659E-04

     total cpu time spent up to now is     1607.7 secs

     total energy              =     -23.92819706 Ry
     estimated scf accuracy    <       0.00000515 Ry

     total magnetization       =     0.00 Bohr mag/cell
     absolute magnetization    =     1.30 Bohr mag/cell

     iteration # 82     ecut=    60.00 Ry     beta= 0.70
     CG style diagonalization
     ethr =  6.44E-08,  avg # of iterations =  4.8

     negative rho (up, down):  2.542E-04 1.641E-04

     total cpu time spent up to now is     1630.1 secs

     total energy              =     -23.92821291 Ry
     estimated scf accuracy    <       0.00003165 Ry

     total magnetization       =    -0.00 Bohr mag/cell
     absolute magnetization    =     1.29 Bohr mag/cell

     iteration # 83     ecut=    60.00 Ry     beta= 0.70
     CG style diagonalization
     ethr =  6.44E-08,  avg # of iterations =  3.5

     negative rho (up, down):  2.545E-04 1.637E-04

     total cpu time spent up to now is     1649.9 secs

     total energy              =     -23.92822491 Ry
     estimated scf accuracy    <       0.00005224 Ry

     total magnetization       =     0.00 Bohr mag/cell
     absolute magnetization    =     1.29 Bohr mag/cell

     iteration # 84     ecut=    60.00 Ry     beta= 0.70
     CG style diagonalization
     ethr =  6.44E-08,  avg # of iterations =  3.3

     negative rho (up, down):  2.550E-04 1.622E-04

     total cpu time spent up to now is     1669.2 secs

     total energy              =     -23.92820394 Ry
     estimated scf accuracy    <       0.00006762 Ry

     total magnetization       =     0.00 Bohr mag/cell
     absolute magnetization    =     1.29 Bohr mag/cell

     iteration # 85     ecut=    60.00 Ry     beta= 0.70
     CG style diagonalization
     ethr =  6.44E-08,  avg # of iterations =  3.5

     negative rho (up, down):  2.553E-04 1.615E-04

     total cpu time spent up to now is     1689.1 secs

     total energy              =     -23.92815520 Ry
     estimated scf accuracy    <       0.00000684 Ry

     total magnetization       =     0.00 Bohr mag/cell
     absolute magnetization    =     1.30 Bohr mag/cell

     iteration # 86     ecut=    60.00 Ry     beta= 0.70
     CG style diagonalization
     ethr =  6.44E-08,  avg # of iterations =  4.1

     negative rho (up, down):  2.553E-04 1.629E-04

     total cpu time spent up to now is     1710.0 secs

     total energy              =     -23.92818885 Ry
     estimated scf accuracy    <       0.00004203 Ry

     total magnetization       =    -0.00 Bohr mag/cell
     absolute magnetization    =     1.32 Bohr mag/cell

     iteration # 87     ecut=    60.00 Ry     beta= 0.70
     CG style diagonalization
     ethr =  6.44E-08,  avg # of iterations =  3.9

     negative rho (up, down):  2.551E-04 1.632E-04

     total cpu time spent up to now is     1730.6 secs

     total energy              =     -23.92819429 Ry
     estimated scf accuracy    <       0.00000309 Ry

     total magnetization       =    -0.00 Bohr mag/cell
     absolute magnetization    =     1.30 Bohr mag/cell

     iteration # 88     ecut=    60.00 Ry     beta= 0.70
     CG style diagonalization
     ethr =  3.86E-08,  avg # of iterations =  3.4

     negative rho (up, down):  2.551E-04 1.633E-04

     total cpu time spent up to now is     1750.4 secs

     total energy              =     -23.92818782 Ry
     estimated scf accuracy    <       0.00000567 Ry

     total magnetization       =     0.00 Bohr mag/cell
     absolute magnetization    =     1.31 Bohr mag/cell

     iteration # 89     ecut=    60.00 Ry     beta= 0.70
     CG style diagonalization
     ethr =  3.86E-08,  avg # of iterations =  3.5

     negative rho (up, down):  2.551E-04 1.628E-04

     total cpu time spent up to now is     1770.1 secs

     total energy              =     -23.92820070 Ry
     estimated scf accuracy    <       0.00000275 Ry

     total magnetization       =    -0.00 Bohr mag/cell
     absolute magnetization    =     1.30 Bohr mag/cell

     iteration # 90     ecut=    60.00 Ry     beta= 0.70
     CG style diagonalization
     ethr =  3.44E-08,  avg # of iterations =  3.3

     negative rho (up, down):  2.550E-04 1.627E-04

     total cpu time spent up to now is     1789.5 secs

     total energy              =     -23.92819985 Ry
     estimated scf accuracy    <       0.00000135 Ry

     total magnetization       =    -0.00 Bohr mag/cell
     absolute magnetization    =     1.30 Bohr mag/cell

     iteration # 91     ecut=    60.00 Ry     beta= 0.70
     CG style diagonalization
     ethr =  1.69E-08,  avg # of iterations =  3.1

     negative rho (up, down):  2.553E-04 1.630E-04

     total cpu time spent up to now is     1808.4 secs

     total energy              =     -23.92821644 Ry
     estimated scf accuracy    <       0.00000895 Ry

     total magnetization       =    -0.00 Bohr mag/cell
     absolute magnetization    =     1.31 Bohr mag/cell

     iteration # 92     ecut=    60.00 Ry     beta= 0.70
     CG style diagonalization
     ethr =  1.69E-08,  avg # of iterations =  3.6

     negative rho (up, down):  2.553E-04 1.629E-04

     total cpu time spent up to now is     1828.6 secs

     total energy              =     -23.92822060 Ry
     estimated scf accuracy    <       0.00000577 Ry

     total magnetization       =    -0.00 Bohr mag/cell
     absolute magnetization    =     1.31 Bohr mag/cell

     iteration # 93     ecut=    60.00 Ry     beta= 0.70
     CG style diagonalization
     ethr =  1.69E-08,  avg # of iterations =  3.3

     negative rho (up, down):  2.553E-04 1.628E-04

     total cpu time spent up to now is     1847.9 secs

     total energy              =     -23.92821739 Ry
     estimated scf accuracy    <       0.00000020 Ry

     total magnetization       =     0.00 Bohr mag/cell
     absolute magnetization    =     1.30 Bohr mag/cell

     iteration # 94     ecut=    60.00 Ry     beta= 0.70
     CG style diagonalization
     ethr =  2.54E-09,  avg # of iterations =  3.4

     negative rho (up, down):  2.552E-04 1.627E-04

     total cpu time spent up to now is     1867.4 secs

     total energy              =     -23.92821205 Ry
     estimated scf accuracy    <       0.00000080 Ry

     total magnetization       =     0.00 Bohr mag/cell
     absolute magnetization    =     1.30 Bohr mag/cell

     iteration # 95     ecut=    60.00 Ry     beta= 0.70
     CG style diagonalization
     ethr =  2.54E-09,  avg # of iterations =  3.3

     negative rho (up, down):  2.552E-04 1.627E-04

     total cpu time spent up to now is     1886.7 secs

     total energy              =     -23.92821182 Ry
     estimated scf accuracy    <       0.00000012 Ry

     total magnetization       =     0.00 Bohr mag/cell
     absolute magnetization    =     1.30 Bohr mag/cell

     iteration # 96     ecut=    60.00 Ry     beta= 0.70
     CG style diagonalization
     ethr =  1.45E-09,  avg # of iterations =  3.2

     negative rho (up, down):  2.553E-04 1.628E-04

     total cpu time spent up to now is     1905.9 secs

     total energy              =     -23.92821532 Ry
     estimated scf accuracy    <       0.00000054 Ry

     total magnetization       =     0.00 Bohr mag/cell
     absolute magnetization    =     1.31 Bohr mag/cell

     iteration # 97     ecut=    60.00 Ry     beta= 0.70
     CG style diagonalization
     ethr =  1.45E-09,  avg # of iterations =  3.4

     negative rho (up, down):  2.552E-04 1.628E-04

     total cpu time spent up to now is     1925.4 secs

     total energy              =     -23.92821524 Ry
     estimated scf accuracy    <       0.00000005 Ry

     total magnetization       =     0.00 Bohr mag/cell
     absolute magnetization    =     1.30 Bohr mag/cell

     iteration # 98     ecut=    60.00 Ry     beta= 0.70
     CG style diagonalization
     ethr =  6.09E-10,  avg # of iterations =  3.2

     negative rho (up, down):  2.552E-04 1.628E-04

     Magnetic moment per site:
     atom:    1    charge:    1.3428    magn:    0.1685    constr:    0.0000
     atom:    2    charge:    0.4267    magn:    0.0030    constr:    0.0000
     atom:    3    charge:    0.4268    magn:    0.0030    constr:    0.0000
     atom:    4    charge:    0.4268    magn:    0.0030    constr:    0.0000

     total cpu time spent up to now is     1942.1 secs

     End of self-consistent calculation

 ------ SPIN UP ------------


          k = 0.0000 0.0000 0.0000 (423701 PWs)   bands (ev):

   -41.3021 -30.8648 -30.8648 -27.5702 -24.1880 -23.8738 -23.8368 -23.8367

          k = 0.0000 0.2500 0.0000 (423725 PWs)   bands (ev):

   -41.3021 -30.8648 -30.8648 -27.5702 -24.1658 -23.9887 -23.8133 -23.7607

          k = 0.0000-0.5000 0.0000 (423542 PWs)   bands (ev):

   -41.3021 -30.8648 -30.8648 -27.5702 -24.1113 -24.0841 -23.7486 -23.7137

          k = 0.2500 0.0000 0.0000 (423725 PWs)   bands (ev):

   -41.3021 -30.8648 -30.8648 -27.5702 -24.1658 -23.9888 -23.8134 -23.7609

          k = 0.2500 0.2500 0.0000 (423766 PWs)   bands (ev):

   -41.3021 -30.8648 -30.8648 -27.5702 -24.1439 -23.9970 -23.9093 -23.7546

          k = 0.2500-0.5000 0.0000 (423782 PWs)   bands (ev):

   -41.3021 -30.8648 -30.8648 -27.5702 -24.0893 -24.0678 -23.8933 -23.8411

          k = 0.2500-0.2500 0.0000 (423766 PWs)   bands (ev):

   -41.3021 -30.8648 -30.8648 -27.5702 -24.1439 -23.9970 -23.9092 -23.7548

          k =-0.5000 0.0000 0.0000 (423542 PWs)   bands (ev):

   -41.3021 -30.8648 -30.8648 -27.5702 -24.1114 -24.0841 -23.7487 -23.7135

          k =-0.5000 0.2500 0.0000 (423782 PWs)   bands (ev):

   -41.3021 -30.8648 -30.8648 -27.5702 -24.0894 -24.0678 -23.8933 -23.8411

          k =-0.5000-0.5000 0.0000 (423708 PWs)   bands (ev):

   -41.3021 -30.8648 -30.8648 -27.5702 -24.0438 -24.0436 -23.9852 -23.9070

 ------ SPIN DOWN ----------


          k = 0.0000 0.0000 0.0000 (423701 PWs)   bands (ev):

   -40.6505 -30.5991 -30.5991 -25.6730 -25.6274 -24.9313 -24.9310 -24.5004

          k = 0.0000 0.2500 0.0000 (423725 PWs)   bands (ev):

   -40.6505 -30.5991 -30.5991 -25.6725 -25.6274 -24.9447 -24.9299 -24.4713

          k = 0.0000-0.5000 0.0000 (423542 PWs)   bands (ev):

   -40.6505 -30.5991 -30.5991 -25.6720 -25.6274 -24.9563 -24.9287 -24.4538

          k = 0.2500 0.0000 0.0000 (423725 PWs)   bands (ev):

   -40.6505 -30.5991 -30.5991 -25.6725 -25.6274 -24.9446 -24.9301 -24.4715

          k = 0.2500 0.2500 0.0000 (423766 PWs)   bands (ev):

   -40.6505 -30.5991 -30.5991 -25.6720 -25.6274 -24.9435 -24.9431 -24.4213

          k = 0.2500-0.5000 0.0000 (423782 PWs)   bands (ev):

   -40.6505 -30.5991 -30.5991 -25.6715 -25.6274 -24.9554 -24.9420 -24.3752

          k = 0.2500-0.2500 0.0000 (423766 PWs)   bands (ev):

   -40.6505 -30.5991 -30.5991 -25.6720 -25.6274 -24.9437 -24.9431 -24.4217

          k =-0.5000 0.0000 0.0000 (423542 PWs)   bands (ev):

   -40.6505 -30.5991 -30.5991 -25.6720 -25.6274 -24.9568 -24.9290 -24.4534

          k =-0.5000 0.2500 0.0000 (423782 PWs)   bands (ev):

   -40.6505 -30.5991 -30.5991 -25.6715 -25.6274 -24.9554 -24.9417 -24.3585

          k =-0.5000-0.5000 0.0000 (423708 PWs)   bands (ev):

   -40.6505 -30.5991 -30.5991 -25.6710 -25.6274 -24.9540 -24.9538 -24.3837

     the Fermi energy is   -25.6497 ev

!    total energy              =     -23.92821537 Ry
     estimated scf accuracy    <          4.9E-09 Ry
     smearing contrib. (-TS)   =      -0.00259789 Ry
     internal energy E=F+TS    =     -23.92561748 Ry

     The total energy is F=E-TS. E is the sum of the following terms:
     one-electron contribution =     -71.83961492 Ry
     hartree contribution      =      30.97007814 Ry
     xc contribution           =      -7.29955856 Ry
     ewald contribution        =      24.24377398 Ry
     Dispersion Correction     =      -0.00029612 Ry

     total magnetization       =    -0.00 Bohr mag/cell
     absolute magnetization    =     1.30 Bohr mag/cell

     convergence has been achieved in  98 iterations

     negative rho (up, down):  2.552E-04 1.628E-04

     Forces acting on atoms (cartesian axes, Ry/au):

     atom    1 type  1   force =     0.00000098    0.00000730    0.09017238
     atom    2 type  2   force =    -0.00000028    0.03065845   -0.01882421
     atom    3 type  2   force =     0.02655212   -0.01533287   -0.01882567
     atom    4 type  2   force =    -0.02655282   -0.01533287   -0.01882550

     Total force =     0.062317     Total SCF correction =     0.000021

     BFGS Geometry Optimization
     Energy error            =      0.0E+00
     Gradient error          =      3.1E-02

     number of scf cycles    =   1
     number of bfgs steps    =   0

     energy   new            =     -23.9282153695 Ry

     new trust radius        =       0.0359798347 bohr
     new conv_thr            =       0.0000000100 Ry


ATOMIC_POSITIONS (angstrom)
N            10.0000000000       10.0000000000        0.0000000000    0   0   0
H             9.9999998407       10.9530021039        0.4001075258
H            10.8253234213        9.5234998261        0.4001121736
H             9.1746761458        9.5234998233        0.4001121326



     Writing output data file ./NH3_ESM_pn5_right.save/
     NEW-OLD atomic charge density approx. for the potential

     negative rho (up, down):  2.476E-04 1.813E-04
     Generating pointlists ...

     total cpu time spent up to now is     1965.5 secs

     Self-consistent Calculation

     iteration #  1     ecut=    60.00 Ry     beta= 0.70
     CG style diagonalization
     ethr =  1.00E-06,  avg # of iterations =  4.1

     negative rho (up, down):  3.282E-04 2.272E-04

     total cpu time spent up to now is     1985.9 secs

     total energy              =     -23.88531516 Ry
     estimated scf accuracy    <       0.07851101 Ry

     total magnetization       =     0.00 Bohr mag/cell
     absolute magnetization    =     1.96 Bohr mag/cell

     iteration #  2     ecut=    60.00 Ry     beta= 0.70
     CG style diagonalization
     ethr =  9.81E-04,  avg # of iterations =  3.5

     negative rho (up, down):  3.220E-04 4.609E-04

     total cpu time spent up to now is     2004.6 secs

     total energy              =     -23.93288362 Ry
     estimated scf accuracy    <       0.71648380 Ry

     total magnetization       =     0.00 Bohr mag/cell
     absolute magnetization    =     0.20 Bohr mag/cell

     iteration #  3     ecut=    60.00 Ry     beta= 0.70
     CG style diagonalization
     ethr =  9.81E-04,  avg # of iterations =  3.4

     negative rho (up, down):  2.886E-04 5.433E-04

     total cpu time spent up to now is     2023.3 secs

     total energy              =     -23.93267615 Ry
     estimated scf accuracy    <       0.35745411 Ry

     total magnetization       =     0.00 Bohr mag/cell
     absolute magnetization    =     0.17 Bohr mag/cell

     iteration #  4     ecut=    60.00 Ry     beta= 0.70
     CG style diagonalization
     ethr =  9.81E-04,  avg # of iterations =  3.0

     negative rho (up, down):  2.749E-04 4.178E-04

     total cpu time spent up to now is     2041.2 secs

     total energy              =     -23.91331222 Ry
     estimated scf accuracy    <       0.17047292 Ry

     total magnetization       =    -0.00 Bohr mag/cell
     absolute magnetization    =     0.46 Bohr mag/cell

     iteration #  5     ecut=    60.00 Ry     beta= 0.70
     CG style diagonalization
     ethr =  9.81E-04,  avg # of iterations =  3.0

     negative rho (up, down):  2.566E-04 2.149E-04

     total cpu time spent up to now is     2059.3 secs

     total energy              =     -23.94186743 Ry
     estimated scf accuracy    <       0.10256743 Ry

     total magnetization       =     0.00 Bohr mag/cell
     absolute magnetization    =     2.02 Bohr mag/cell

     iteration #  6     ecut=    60.00 Ry     beta= 0.70
     CG style diagonalization
     ethr =  9.81E-04,  avg # of iterations =  3.0

     negative rho (up, down):  2.546E-04 2.840E-04

     total cpu time spent up to now is     2077.3 secs

     total energy              =     -23.93141352 Ry
     estimated scf accuracy    <       0.10375600 Ry

     total magnetization       =     0.00 Bohr mag/cell
     absolute magnetization    =     2.02 Bohr mag/cell

     iteration #  7     ecut=    60.00 Ry     beta= 0.70
     CG style diagonalization
     ethr =  9.81E-04,  avg # of iterations =  3.0

     negative rho (up, down):  2.533E-04 2.295E-04

     total cpu time spent up to now is     2095.6 secs

     total energy              =     -23.93063953 Ry
     estimated scf accuracy    <       0.02087212 Ry

     total magnetization       =    -0.00 Bohr mag/cell
     absolute magnetization    =     1.66 Bohr mag/cell

     iteration #  8     ecut=    60.00 Ry     beta= 0.70
     CG style diagonalization
     ethr =  2.61E-04,  avg # of iterations =  3.0

     negative rho (up, down):  2.540E-04 1.598E-04

     total cpu time spent up to now is     2113.9 secs

     total energy              =     -23.93114680 Ry
     estimated scf accuracy    <       0.00527289 Ry

     total magnetization       =    -0.00 Bohr mag/cell
     absolute magnetization    =     1.16 Bohr mag/cell

     iteration #  9     ecut=    60.00 Ry     beta= 0.70
     CG style diagonalization
     ethr =  6.59E-05,  avg # of iterations =  3.0

     negative rho (up, down):  2.536E-04 1.703E-04

     total cpu time spent up to now is     2132.3 secs

     total energy              =     -23.93246272 Ry
     estimated scf accuracy    <       0.00349979 Ry

     total magnetization       =     0.00 Bohr mag/cell
     absolute magnetization    =     1.46 Bohr mag/cell

     iteration # 10     ecut=    60.00 Ry     beta= 0.70
     CG style diagonalization
     ethr =  4.37E-05,  avg # of iterations =  3.0

     negative rho (up, down):  2.525E-04 3.034E-04

     total cpu time spent up to now is     2150.8 secs

     total energy              =     -23.93195825 Ry
     estimated scf accuracy    <       0.10376677 Ry

     total magnetization       =    -0.00 Bohr mag/cell
     absolute magnetization    =     2.06 Bohr mag/cell

     iteration # 11     ecut=    60.00 Ry     beta= 0.70
     CG style diagonalization
     ethr =  4.37E-05,  avg # of iterations =  3.0

     negative rho (up, down):  2.526E-04 2.676E-04

     total cpu time spent up to now is     2169.6 secs

     total energy              =     -23.92854846 Ry
     estimated scf accuracy    <       0.04646684 Ry

     total magnetization       =    -0.00 Bohr mag/cell
     absolute magnetization    =     1.82 Bohr mag/cell

     iteration # 12     ecut=    60.00 Ry     beta= 0.70
     CG style diagonalization
     ethr =  4.37E-05,  avg # of iterations =  3.0

     negative rho (up, down):  2.543E-04 1.916E-04

     total cpu time spent up to now is     2188.2 secs

     total energy              =     -23.93125342 Ry
     estimated scf accuracy    <       0.07431118 Ry

     total magnetization       =    -0.00 Bohr mag/cell
     absolute magnetization    =     0.72 Bohr mag/cell

     iteration # 13     ecut=    60.00 Ry     beta= 0.70
     CG style diagonalization
     ethr =  4.37E-05,  avg # of iterations =  3.0

     negative rho (up, down):  2.545E-04 1.948E-04

     total cpu time spent up to now is     2206.9 secs

     total energy              =     -23.93120877 Ry
     estimated scf accuracy    <       0.01584473 Ry

     total magnetization       =     0.00 Bohr mag/cell
     absolute magnetization    =     1.05 Bohr mag/cell

     iteration # 14     ecut=    60.00 Ry     beta= 0.70
     CG style diagonalization
     ethr =  4.37E-05,  avg # of iterations =  3.0

     negative rho (up, down):  2.543E-04 1.664E-04

     total cpu time spent up to now is     2225.5 secs

     total energy              =     -23.93129229 Ry
     estimated scf accuracy    <       0.00113649 Ry

     total magnetization       =    -0.00 Bohr mag/cell
     absolute magnetization    =     1.26 Bohr mag/cell

     iteration # 15     ecut=    60.00 Ry     beta= 0.70
     CG style diagonalization
     ethr =  1.42E-05,  avg # of iterations =  3.0

     negative rho (up, down):  2.537E-04 1.583E-04

     total cpu time spent up to now is     2244.2 secs

     total energy              =     -23.93140521 Ry
     estimated scf accuracy    <       0.00035946 Ry

     total magnetization       =     0.00 Bohr mag/cell
     absolute magnetization    =     1.38 Bohr mag/cell

     iteration # 16     ecut=    60.00 Ry     beta= 0.70
     CG style diagonalization
     ethr =  4.49E-06,  avg # of iterations =  3.0

     negative rho (up, down):  2.536E-04 1.721E-04

     total cpu time spent up to now is     2262.9 secs

     total energy              =     -23.93132034 Ry
     estimated scf accuracy    <       0.00891975 Ry

     total magnetization       =     0.00 Bohr mag/cell
     absolute magnetization    =     1.55 Bohr mag/cell

     iteration # 17     ecut=    60.00 Ry     beta= 0.70
     CG style diagonalization
     ethr =  4.49E-06,  avg # of iterations =  3.0

     negative rho (up, down):  2.533E-04 1.660E-04

     total cpu time spent up to now is     2281.5 secs

     total energy              =     -23.93127123 Ry
     estimated scf accuracy    <       0.00170248 Ry

     total magnetization       =    -0.00 Bohr mag/cell
     absolute magnetization    =     1.43 Bohr mag/cell

     iteration # 18     ecut=    60.00 Ry     beta= 0.70
     CG style diagonalization
     ethr =  4.49E-06,  avg # of iterations =  3.0

     negative rho (up, down):  2.536E-04 1.581E-04

     total cpu time spent up to now is     2300.2 secs

     total energy              =     -23.93134760 Ry
     estimated scf accuracy    <       0.00069573 Ry

     total magnetization       =    -0.00 Bohr mag/cell
     absolute magnetization    =     1.27 Bohr mag/cell

     iteration # 19     ecut=    60.00 Ry     beta= 0.70
     CG style diagonalization
     ethr =  4.49E-06,  avg # of iterations =  3.0

     negative rho (up, down):  2.536E-04 1.584E-04

     total cpu time spent up to now is     2318.9 secs

     total energy              =     -23.93135744 Ry
     estimated scf accuracy    <       0.00047190 Ry

     total magnetization       =    -0.00 Bohr mag/cell
     absolute magnetization    =     1.28 Bohr mag/cell

     iteration # 20     ecut=    60.00 Ry     beta= 0.70
     CG style diagonalization
     ethr =  4.49E-06,  avg # of iterations =  3.0

     negative rho (up, down):  2.538E-04 1.596E-04

     total cpu time spent up to now is     2337.5 secs

     total energy              =     -23.93133006 Ry
     estimated scf accuracy    <       0.00108098 Ry

     total magnetization       =    -0.00 Bohr mag/cell
     absolute magnetization    =     1.26 Bohr mag/cell

     iteration # 21     ecut=    60.00 Ry     beta= 0.70
     CG style diagonalization
     ethr =  4.49E-06,  avg # of iterations =  3.0

     negative rho (up, down):  2.538E-04 1.583E-04

     total cpu time spent up to now is     2356.3 secs

     total energy              =     -23.93134093 Ry
     estimated scf accuracy    <       0.00004360 Ry

     total magnetization       =     0.00 Bohr mag/cell
     absolute magnetization    =     1.32 Bohr mag/cell

     iteration # 22     ecut=    60.00 Ry     beta= 0.70
     CG style diagonalization
     ethr =  5.45E-07,  avg # of iterations =  3.0

     negative rho (up, down):  2.537E-04 1.582E-04

     total cpu time spent up to now is     2375.0 secs

     total energy              =     -23.93134179 Ry
     estimated scf accuracy    <       0.00000069 Ry

     total magnetization       =    -0.00 Bohr mag/cell
     absolute magnetization    =     1.33 Bohr mag/cell

     iteration # 23     ecut=    60.00 Ry     beta= 0.70
     CG style diagonalization
     ethr =  8.59E-09,  avg # of iterations =  3.3

     negative rho (up, down):  2.536E-04 1.583E-04

     total cpu time spent up to now is     2394.4 secs

     total energy              =     -23.93134175 Ry
     estimated scf accuracy    <       0.00000319 Ry

     total magnetization       =     0.00 Bohr mag/cell
     absolute magnetization    =     1.34 Bohr mag/cell

     iteration # 24     ecut=    60.00 Ry     beta= 0.70
     CG style diagonalization
     ethr =  8.59E-09,  avg # of iterations =  3.1

     negative rho (up, down):  2.536E-04 1.583E-04

     total cpu time spent up to now is     2413.1 secs

     total energy              =     -23.93134172 Ry
     estimated scf accuracy    <       0.00000634 Ry

     total magnetization       =    -0.00 Bohr mag/cell
     absolute magnetization    =     1.34 Bohr mag/cell

     iteration # 25     ecut=    60.00 Ry     beta= 0.70
     CG style diagonalization
     ethr =  8.59E-09,  avg # of iterations =  3.0

     negative rho (up, down):  2.536E-04 1.583E-04

     total cpu time spent up to now is     2431.9 secs

     total energy              =     -23.93134185 Ry
     estimated scf accuracy    <       0.00000546 Ry

     total magnetization       =     0.00 Bohr mag/cell
     absolute magnetization    =     1.34 Bohr mag/cell

     iteration # 26     ecut=    60.00 Ry     beta= 0.70
     CG style diagonalization
     ethr =  8.59E-09,  avg # of iterations =  3.0

     negative rho (up, down):  2.536E-04 1.583E-04

     total cpu time spent up to now is     2450.5 secs

     total energy              =     -23.93134157 Ry
     estimated scf accuracy    <       0.00000518 Ry

     total magnetization       =    -0.00 Bohr mag/cell
     absolute magnetization    =     1.34 Bohr mag/cell

     iteration # 27     ecut=    60.00 Ry     beta= 0.70
     CG style diagonalization
     ethr =  8.59E-09,  avg # of iterations =  3.0

     negative rho (up, down):  2.535E-04 1.583E-04

     total cpu time spent up to now is     2469.2 secs

     total energy              =     -23.93134081 Ry
     estimated scf accuracy    <       0.00000389 Ry

     total magnetization       =    -0.00 Bohr mag/cell
     absolute magnetization    =     1.34 Bohr mag/cell

     iteration # 28     ecut=    60.00 Ry     beta= 0.70
     CG style diagonalization
     ethr =  8.59E-09,  avg # of iterations =  3.6

     negative rho (up, down):  2.537E-04 1.583E-04

     total cpu time spent up to now is     2488.9 secs

     total energy              =     -23.93134050 Ry
     estimated scf accuracy    <       0.00000076 Ry

     total magnetization       =    -0.00 Bohr mag/cell
     absolute magnetization    =     1.33 Bohr mag/cell

     iteration # 29     ecut=    60.00 Ry     beta= 0.70
     CG style diagonalization
     ethr =  8.59E-09,  avg # of iterations =  3.6

     negative rho (up, down):  2.536E-04 1.583E-04

     total cpu time spent up to now is     2508.7 secs

     total energy              =     -23.93134101 Ry
     estimated scf accuracy    <       0.00000014 Ry

     total magnetization       =     0.00 Bohr mag/cell
     absolute magnetization    =     1.33 Bohr mag/cell

     iteration # 30     ecut=    60.00 Ry     beta= 0.70
     CG style diagonalization
     ethr =  1.75E-09,  avg # of iterations =  3.2

     negative rho (up, down):  2.536E-04 1.583E-04

     total cpu time spent up to now is     2527.7 secs

     total energy              =     -23.93134099 Ry
     estimated scf accuracy    <       0.00000007 Ry

     total magnetization       =     0.00 Bohr mag/cell
     absolute magnetization    =     1.33 Bohr mag/cell

     iteration # 31     ecut=    60.00 Ry     beta= 0.70
     CG style diagonalization
     ethr =  8.40E-10,  avg # of iterations =  3.1

     negative rho (up, down):  2.536E-04 1.583E-04

     total cpu time spent up to now is     2546.6 secs

     total energy              =     -23.93134116 Ry
     estimated scf accuracy    <       0.00000002 Ry

     total magnetization       =    -0.00 Bohr mag/cell
     absolute magnetization    =     1.33 Bohr mag/cell

     iteration # 32     ecut=    60.00 Ry     beta= 0.70
     CG style diagonalization
     ethr =  2.58E-10,  avg # of iterations =  4.6

     negative rho (up, down):  2.537E-04 1.583E-04

     total cpu time spent up to now is     2568.7 secs

     total energy              =     -23.93134124 Ry
     estimated scf accuracy    <       0.00000010 Ry

     total magnetization       =    -0.00 Bohr mag/cell
     absolute magnetization    =     1.33 Bohr mag/cell

     iteration # 33     ecut=    60.00 Ry     beta= 0.70
     CG style diagonalization
     ethr =  2.58E-10,  avg # of iterations =  4.0

     negative rho (up, down):  2.536E-04 1.583E-04

     total cpu time spent up to now is     2589.3 secs

     total energy              =     -23.93134106 Ry
     estimated scf accuracy    <       0.00000001 Ry

     total magnetization       =    -0.00 Bohr mag/cell
     absolute magnetization    =     1.33 Bohr mag/cell

     iteration # 34     ecut=    60.00 Ry     beta= 0.70
     CG style diagonalization
     ethr =  1.64E-10,  avg # of iterations =  3.4

     negative rho (up, down):  2.536E-04 1.583E-04

     Magnetic moment per site:
     atom:    1    charge:    1.3364    magn:    0.1727    constr:    0.0000
     atom:    2    charge:    0.4169    magn:    0.0026    constr:    0.0000
     atom:    3    charge:    0.4174    magn:    0.0026    constr:    0.0000
     atom:    4    charge:    0.4174    magn:    0.0026    constr:    0.0000

     total cpu time spent up to now is     2606.3 secs

     End of self-consistent calculation

 ------ SPIN UP ------------


          k = 0.0000 0.0000 0.0000 (423701 PWs)   bands (ev):

   -41.2758 -30.9277 -30.9277 -27.6166 -24.1902 -23.8771 -23.8386 -23.8385

          k = 0.0000 0.2500 0.0000 (423725 PWs)   bands (ev):

   -41.2758 -30.9277 -30.9277 -27.6166 -24.1681 -23.9912 -23.8154 -23.7632

          k = 0.0000-0.5000 0.0000 (423542 PWs)   bands (ev):

   -41.2758 -30.9277 -30.9277 -27.6166 -24.1143 -24.0857 -23.7521 -23.7171

          k = 0.2500 0.0000 0.0000 (423725 PWs)   bands (ev):

   -41.2758 -30.9277 -30.9277 -27.6166 -24.1681 -23.9912 -23.8153 -23.7634

          k = 0.2500 0.2500 0.0000 (423766 PWs)   bands (ev):

   -41.2758 -30.9277 -30.9277 -27.6166 -24.1462 -23.9997 -23.9110 -23.7555

          k = 0.2500-0.5000 0.0000 (423782 PWs)   bands (ev):

   -41.2758 -30.9277 -30.9277 -27.6166 -24.0923 -24.0697 -23.8967 -23.8402

          k = 0.2500-0.2500 0.0000 (423766 PWs)   bands (ev):

   -41.2758 -30.9277 -30.9277 -27.6166 -24.1462 -23.9997 -23.9110 -23.7555

          k =-0.5000 0.0000 0.0000 (423542 PWs)   bands (ev):

   -41.2758 -30.9277 -30.9277 -27.6166 -24.1145 -24.0855 -23.7522 -23.7169

          k =-0.5000 0.2500 0.0000 (423782 PWs)   bands (ev):

   -41.2758 -30.9277 -30.9277 -27.6166 -24.0925 -24.0695 -23.8968 -23.8401

          k =-0.5000-0.5000 0.0000 (423708 PWs)   bands (ev):

   -41.2758 -30.9277 -30.9277 -27.6166 -24.0464 -24.0462 -23.9891 -23.9050

 ------ SPIN DOWN ----------


          k = 0.0000 0.0000 0.0000 (423701 PWs)   bands (ev):

   -40.5971 -30.6585 -30.6585 -25.6781 -25.6277 -24.9412 -24.9410 -24.5086

          k = 0.0000 0.2500 0.0000 (423725 PWs)   bands (ev):

   -40.5971 -30.6585 -30.6585 -25.6776 -25.6277 -24.9545 -24.9401 -24.4794

          k = 0.0000-0.5000 0.0000 (423542 PWs)   bands (ev):

   -40.5971 -30.6585 -30.6585 -25.6770 -25.6277 -24.9667 -24.9389 -24.4624

          k = 0.2500 0.0000 0.0000 (423725 PWs)   bands (ev):

   -40.5971 -30.6585 -30.6585 -25.6776 -25.6277 -24.9548 -24.9398 -24.4794

          k = 0.2500 0.2500 0.0000 (423766 PWs)   bands (ev):

   -40.5971 -30.6585 -30.6585 -25.6770 -25.6277 -24.9537 -24.9530 -24.4293

          k = 0.2500-0.5000 0.0000 (423782 PWs)   bands (ev):

   -40.5971 -30.6585 -30.6585 -25.6765 -25.6277 -24.9652 -24.9521 -24.3852

          k = 0.2500-0.2500 0.0000 (423766 PWs)   bands (ev):

   -40.5971 -30.6585 -30.6585 -25.6770 -25.6277 -24.9536 -24.9530 -24.4296

          k =-0.5000 0.0000 0.0000 (423542 PWs)   bands (ev):

   -40.5971 -30.6585 -30.6585 -25.6770 -25.6277 -24.9670 -24.9387 -24.4620

          k =-0.5000 0.2500 0.0000 (423782 PWs)   bands (ev):

   -40.5971 -30.6585 -30.6585 -25.6765 -25.6277 -24.9655 -24.9518 -24.3686

          k =-0.5000-0.5000 0.0000 (423708 PWs)   bands (ev):

   -40.5971 -30.6585 -30.6585 -25.6760 -25.6277 -24.9640 -24.9637 -24.3938

     the Fermi energy is   -25.6524 ev

!    total energy              =     -23.93134099 Ry
     estimated scf accuracy    <          7.5E-09 Ry
     smearing contrib. (-TS)   =      -0.00255048 Ry
     internal energy E=F+TS    =     -23.92879051 Ry

     The total energy is F=E-TS. E is the sum of the following terms:
     one-electron contribution =     -71.46143909 Ry
     hartree contribution      =      30.75217626 Ry
     xc contribution           =      -7.26805982 Ry
     ewald contribution        =      24.04888226 Ry
     Dispersion Correction     =      -0.00035013 Ry

     total magnetization       =    -0.00 Bohr mag/cell
     absolute magnetization    =     1.33 Bohr mag/cell

     convergence has been achieved in  34 iterations

     negative rho (up, down):  2.536E-04 1.583E-04

     Forces acting on atoms (cartesian axes, Ry/au):

     atom    1 type  1   force =    -0.00000056   -0.00000085    0.10208935
     atom    2 type  2   force =     0.00000007    0.01197920   -0.02255478
     atom    3 type  2   force =     0.01037352   -0.00598928   -0.02255604
     atom    4 type  2   force =    -0.01037303   -0.00598907   -0.02255614

     Total force =     0.044235     Total SCF correction =     0.000043
     Energy error            =      3.1E-03
     Gradient error          =      2.3E-02

     number of scf cycles    =   2
     number of bfgs steps    =   1

     energy   old            =     -23.9282153695 Ry
     energy   new            =     -23.9313409864 Ry

     CASE: energy  _new < energy  _old

     new trust radius        =       0.0395778181 bohr
     new conv_thr            =       0.0000000058 Ry


ATOMIC_POSITIONS (angstrom)
N            10.0000000000       10.0000000000        0.0000000000    0   0   0
H             9.9999998261       10.9657825066        0.3835164417
H            10.8363913481        9.5171091100        0.3835200836
H             9.1636083656        9.5171092253        0.3835200160



     Writing output data file ./NH3_ESM_pn5_right.save/
     NEW-OLD atomic charge density approx. for the potential

     negative rho (up, down):  2.733E-04 1.956E-04
     Generating pointlists ...

     total cpu time spent up to now is     2630.6 secs

     Self-consistent Calculation

     iteration #  1     ecut=    60.00 Ry     beta= 0.70
     CG style diagonalization
     ethr =  1.00E-06,  avg # of iterations =  3.9

     negative rho (up, down):  5.369E-04 3.656E-04

     total cpu time spent up to now is     2650.3 secs

     total energy              =     -23.90058833 Ry
     estimated scf accuracy    <       0.05721672 Ry

[...]
     CG style diagonalization
     ethr =  2.68E-12,  avg # of iterations =  3.6

     negative rho (up, down):  2.670E-04 1.483E-04

     total cpu time spent up to now is     6669.7 secs

     total energy              =     -23.94311961 Ry
     estimated scf accuracy    <          9.3E-10 Ry

     total magnetization       =     0.00 Bohr mag/cell
     absolute magnetization    =     1.51 Bohr mag/cell

     iteration # 22     ecut=    60.00 Ry     beta= 0.70
     CG style diagonalization
     ethr =  2.68E-12,  avg # of iterations =  3.7

     negative rho (up, down):  2.670E-04 1.483E-04

     total cpu time spent up to now is     6689.8 secs

     total energy              =     -23.94311981 Ry
     estimated scf accuracy    <          4.1E-09 Ry

     total magnetization       =    -0.00 Bohr mag/cell
     absolute magnetization    =     1.51 Bohr mag/cell

     iteration # 23     ecut=    60.00 Ry     beta= 0.70
     CG style diagonalization
     ethr =  2.68E-12,  avg # of iterations =  3.2

     negative rho (up, down):  2.670E-04 1.483E-04

     total cpu time spent up to now is     6708.9 secs

     total energy              =     -23.94311982 Ry
     estimated scf accuracy    <          2.4E-09 Ry

     total magnetization       =     0.00 Bohr mag/cell
     absolute magnetization    =     1.51 Bohr mag/cell

     iteration # 24     ecut=    60.00 Ry     beta= 0.70
     CG style diagonalization
     ethr =  2.68E-12,  avg # of iterations =  3.6

     negative rho (up, down):  2.670E-04 1.483E-04

     Magnetic moment per site:
     atom:    1    charge:    1.3401    magn:    0.2020    constr:    0.0000
     atom:    2    charge:    0.4173    magn:   -0.0017    constr:    0.0000
     atom:    3    charge:    0.4174    magn:   -0.0017    constr:    0.0000
     atom:    4    charge:    0.4174    magn:   -0.0017    constr:    0.0000

     total cpu time spent up to now is     6726.4 secs

     End of self-consistent calculation

 ------ SPIN UP ------------


          k = 0.0000 0.0000 0.0000 (423701 PWs)   bands (ev):

   -42.0467 -32.1871 -32.1870 -27.9424 -24.2104 -23.9019 -23.8571 -23.8569

          k = 0.0000 0.2500 0.0000 (423725 PWs)   bands (ev):

   -42.0467 -32.1871 -32.1870 -27.9424 -24.1886 -24.0118 -23.8341 -23.7840

          k = 0.0000-0.5000 0.0000 (423542 PWs)   bands (ev):

   -42.0467 -32.1871 -32.1870 -27.9424 -24.1378 -24.1027 -23.7772 -23.7415

          k = 0.2500 0.0000 0.0000 (423725 PWs)   bands (ev):

   -42.0467 -32.1871 -32.1870 -27.9424 -24.1886 -24.0118 -23.8340 -23.7840

          k = 0.2500 0.2500 0.0000 (423766 PWs)   bands (ev):

   -42.0467 -32.1871 -32.1870 -27.9424 -24.1670 -24.0215 -23.9291 -23.7690

          k = 0.2500-0.5000 0.0000 (423782 PWs)   bands (ev):

   -42.0467 -32.1871 -32.1870 -27.9424 -24.1156 -24.0881 -23.9215 -23.8470

          k = 0.2500-0.2500 0.0000 (423766 PWs)   bands (ev):

   -42.0467 -32.1871 -32.1870 -27.9424 -24.1670 -24.0215 -23.9291 -23.7690

          k =-0.5000 0.0000 0.0000 (423542 PWs)   bands (ev):

   -42.0467 -32.1871 -32.1870 -27.9424 -24.1378 -24.1027 -23.7773 -23.7413

          k =-0.5000 0.2500 0.0000 (423782 PWs)   bands (ev):

   -42.0467 -32.1871 -32.1870 -27.9424 -24.1156 -24.0881 -23.9215 -23.8469

          k =-0.5000-0.5000 0.0000 (423708 PWs)   bands (ev):

   -42.0467 -32.1871 -32.1870 -27.9424 -24.0680 -24.0680 -24.0153 -23.9080

 ------ SPIN DOWN ----------


          k = 0.0000 0.0000 0.0000 (423701 PWs)   bands (ev):

   -41.1854 -31.8998 -31.8998 -25.7131 -25.6337 -25.0038 -25.0036 -24.5566

          k = 0.0000 0.2500 0.0000 (423725 PWs)   bands (ev):

   -41.1854 -31.8998 -31.8998 -25.7125 -25.6337 -25.0169 -25.0026 -24.5293

          k = 0.0000-0.5000 0.0000 (423542 PWs)   bands (ev):

   -41.1854 -31.8998 -31.8998 -25.7119 -25.6337 -25.0290 -25.0015 -24.5149

          k = 0.2500 0.0000 0.0000 (423725 PWs)   bands (ev):

   -41.1854 -31.8998 -31.8998 -25.7125 -25.6337 -25.0171 -25.0024 -24.5293

          k = 0.2500 0.2500 0.0000 (423766 PWs)   bands (ev):

   -41.1854 -31.8998 -31.8998 -25.7119 -25.6337 -25.0160 -25.0155 -24.4782

          k = 0.2500-0.5000 0.0000 (423782 PWs)   bands (ev):

   -41.1854 -31.8998 -31.8998 -25.7114 -25.6337 -25.0276 -25.0145 -24.4434

          k = 0.2500-0.2500 0.0000 (423766 PWs)   bands (ev):

   -41.1854 -31.8998 -31.8998 -25.7119 -25.6337 -25.0161 -25.0154 -24.4783

          k =-0.5000 0.0000 0.0000 (423542 PWs)   bands (ev):

   -41.1854 -31.8998 -31.8998 -25.7119 -25.6337 -25.0292 -25.0013 -24.5147

          k =-0.5000 0.2500 0.0000 (423782 PWs)   bands (ev):

   -41.1854 -31.8998 -31.8998 -25.7114 -25.6337 -25.0278 -25.0143 -24.4304

          k =-0.5000-0.5000 0.0000 (423708 PWs)   bands (ev):

   -41.1854 -31.8998 -31.8998 -25.7108 -25.6337 -25.0264 -25.0261 -24.4543

     the Fermi energy is   -25.6728 ev

!    total energy              =     -23.94311984 Ry
     estimated scf accuracy    <          1.8E-10 Ry
     smearing contrib. (-TS)   =      -0.00216827 Ry
     internal energy E=F+TS    =     -23.94095157 Ry

     The total energy is F=E-TS. E is the sum of the following terms:
     one-electron contribution =     -71.10004196 Ry
     hartree contribution      =      30.31058789 Ry
     xc contribution           =      -7.24696670 Ry
     ewald contribution        =      24.09604935 Ry
     Dispersion Correction     =      -0.00058016 Ry

     total magnetization       =    -0.00 Bohr mag/cell
     absolute magnetization    =     1.51 Bohr mag/cell

     convergence has been achieved in  24 iterations

     negative rho (up, down):  2.670E-04 1.483E-04

     Forces acting on atoms (cartesian axes, Ry/au):

     atom    1 type  1   force =    -0.00000015   -0.00000101    0.03829559
     atom    2 type  2   force =     0.00000010   -0.00004448    0.00002906
     atom    3 type  2   force =    -0.00003804    0.00002279    0.00002841
     atom    4 type  2   force =     0.00003809    0.00002271    0.00002838

     Total force =     0.000091     Total SCF correction =     0.000007
     Energy error            =      1.5E-06
     Gradient error          =      4.4E-05

     number of scf cycles    =   9
     number of bfgs steps    =   8

     energy   old            =     -23.9431182987 Ry
     energy   new            =     -23.9431198446 Ry

     CASE: energy  _new < energy  _old

     new trust radius        =       0.0005260724 bohr
     new conv_thr            =            1.0E-10 Ry


ATOMIC_POSITIONS (angstrom)
N            10.0000000000       10.0000000000        0.0000000000    0   0   0
H             9.9999997990       11.0023215580        0.2274468135
H            10.8680356146        9.4988355800        0.2274400700
H             9.1319641064        9.4988359603        0.2274398980



     Writing output data file ./NH3_ESM_pn5_right.save/
     NEW-OLD atomic charge density approx. for the potential

     negative rho (up, down):  2.329E-04 1.681E-04
     Generating pointlists ...

     total cpu time spent up to now is     6750.6 secs

     Self-consistent Calculation

     iteration #  1     ecut=    60.00 Ry     beta= 0.70
     CG style diagonalization
     ethr =  1.00E-06,  avg # of iterations =  2.0

     Threshold (ethr) on eigenvalues was too large:
     Diagonalizing with lowered threshold

     CG style diagonalization
     ethr =  3.77E-08,  avg # of iterations =  2.0

     negative rho (up, down):  2.586E-04 1.529E-04

     total cpu time spent up to now is     6773.3 secs

     total energy              =     -23.94311704 Ry
     estimated scf accuracy    <       0.00000301 Ry

     total magnetization       =    -0.00 Bohr mag/cell
     absolute magnetization    =     1.51 Bohr mag/cell

     iteration #  2     ecut=    60.00 Ry     beta= 0.70
     CG style diagonalization
     ethr =  3.77E-08,  avg # of iterations =  3.5

     negative rho (up, down):  2.607E-04 1.533E-04

     total cpu time spent up to now is     6792.1 secs

     total energy              =     -23.94308873 Ry
     estimated scf accuracy    <       0.00152167 Ry

     total magnetization       =     0.00 Bohr mag/cell
     absolute magnetization    =     1.60 Bohr mag/cell

     iteration #  3     ecut=    60.00 Ry     beta= 0.70
     CG style diagonalization
     ethr =  3.77E-08,  avg # of iterations =  3.5

     negative rho (up, down):  2.643E-04 1.501E-04

     total cpu time spent up to now is     6811.0 secs

     total energy              =     -23.94311884 Ry
     estimated scf accuracy    <       0.00000005 Ry

     total magnetization       =     0.00 Bohr mag/cell
     absolute magnetization    =     1.51 Bohr mag/cell

     iteration #  4     ecut=    60.00 Ry     beta= 0.70
     CG style diagonalization
     ethr =  6.54E-10,  avg # of iterations =  4.2

     negative rho (up, down):  2.669E-04 1.483E-04

     total cpu time spent up to now is     6831.5 secs

     total energy              =     -23.94311947 Ry
     estimated scf accuracy    <       0.00000011 Ry

     total magnetization       =    -0.00 Bohr mag/cell
     absolute magnetization    =     1.51 Bohr mag/cell

     iteration #  5     ecut=    60.00 Ry     beta= 0.70
     CG style diagonalization
     ethr =  6.54E-10,  avg # of iterations =  3.1

     negative rho (up, down):  2.670E-04 1.483E-04

     total cpu time spent up to now is     6849.7 secs

     total energy              =     -23.94311943 Ry
     estimated scf accuracy    <          4.2E-09 Ry

     total magnetization       =    -0.00 Bohr mag/cell
     absolute magnetization    =     1.51 Bohr mag/cell

     iteration #  6     ecut=    60.00 Ry     beta= 0.70
     CG style diagonalization
     ethr =  5.19E-11,  avg # of iterations =  3.1

     negative rho (up, down):  2.670E-04 1.483E-04

     total cpu time spent up to now is     6867.9 secs

     total energy              =     -23.94311968 Ry
     estimated scf accuracy    <          1.3E-09 Ry

     total magnetization       =     0.00 Bohr mag/cell
     absolute magnetization    =     1.51 Bohr mag/cell

     iteration #  7     ecut=    60.00 Ry     beta= 0.70
     CG style diagonalization
     ethr =  1.69E-11,  avg # of iterations =  3.1

     negative rho (up, down):  2.670E-04 1.483E-04

     total cpu time spent up to now is     6886.5 secs

     total energy              =     -23.94311964 Ry
     estimated scf accuracy    <          2.6E-10 Ry

     total magnetization       =     0.00 Bohr mag/cell
     absolute magnetization    =     1.51 Bohr mag/cell

     iteration #  8     ecut=    60.00 Ry     beta= 0.70
     CG style diagonalization
     ethr =  3.23E-12,  avg # of iterations =  3.2

     negative rho (up, down):  2.670E-04 1.483E-04

     total cpu time spent up to now is     6905.3 secs

     total energy              =     -23.94311967 Ry
     estimated scf accuracy    <          1.3E-10 Ry

     total magnetization       =    -0.00 Bohr mag/cell
     absolute magnetization    =     1.51 Bohr mag/cell

     iteration #  9     ecut=    60.00 Ry     beta= 0.70
     CG style diagonalization
     ethr =  1.58E-12,  avg # of iterations =  3.1

     negative rho (up, down):  2.670E-04 1.483E-04

     total cpu time spent up to now is     6924.0 secs

     total energy              =     -23.94311962 Ry
     estimated scf accuracy    <          1.3E-10 Ry

     total magnetization       =    -0.00 Bohr mag/cell
     absolute magnetization    =     1.51 Bohr mag/cell

     iteration # 10     ecut=    60.00 Ry     beta= 0.70
     CG style diagonalization
     ethr =  1.57E-12,  avg # of iterations =  3.1

     negative rho (up, down):  2.670E-04 1.483E-04

     total cpu time spent up to now is     6942.8 secs

     total energy              =     -23.94311974 Ry
     estimated scf accuracy    <          1.4E-10 Ry

     total magnetization       =    -0.00 Bohr mag/cell
     absolute magnetization    =     1.51 Bohr mag/cell

     iteration # 11     ecut=    60.00 Ry     beta= 0.70
     CG style diagonalization
     ethr =  1.57E-12,  avg # of iterations =  3.1

     negative rho (up, down):  2.670E-04 1.483E-04

     Magnetic moment per site:
     atom:    1    charge:    1.3401    magn:    0.2019    constr:    0.0000
     atom:    2    charge:    0.4173    magn:   -0.0017    constr:    0.0000
     atom:    3    charge:    0.4175    magn:   -0.0017    constr:    0.0000
     atom:    4    charge:    0.4175    magn:   -0.0017    constr:    0.0000

     total cpu time spent up to now is     6959.2 secs

     End of self-consistent calculation

 ------ SPIN UP ------------


          k = 0.0000 0.0000 0.0000 (423701 PWs)   bands (ev):

   -42.0459 -32.1857 -32.1857 -27.9420 -24.2104 -23.9019 -23.8569 -23.8569

          k = 0.0000 0.2500 0.0000 (423725 PWs)   bands (ev):

   -42.0459 -32.1857 -32.1857 -27.9420 -24.1885 -24.0117 -23.8340 -23.7839

          k = 0.0000-0.5000 0.0000 (423542 PWs)   bands (ev):

   -42.0459 -32.1857 -32.1857 -27.9420 -24.1377 -24.1026 -23.7772 -23.7415

          k = 0.2500 0.0000 0.0000 (423725 PWs)   bands (ev):

   -42.0459 -32.1857 -32.1857 -27.9420 -24.1885 -24.0118 -23.8339 -23.7839

          k = 0.2500 0.2500 0.0000 (423766 PWs)   bands (ev):

   -42.0459 -32.1857 -32.1857 -27.9420 -24.1669 -24.0215 -23.9290 -23.7689

          k = 0.2500-0.5000 0.0000 (423782 PWs)   bands (ev):

   -42.0459 -32.1857 -32.1857 -27.9420 -24.1156 -24.0880 -23.9214 -23.8468

          k = 0.2500-0.2500 0.0000 (423766 PWs)   bands (ev):

   -42.0459 -32.1857 -32.1857 -27.9420 -24.1669 -24.0215 -23.9290 -23.7689

          k =-0.5000 0.0000 0.0000 (423542 PWs)   bands (ev):

   -42.0459 -32.1857 -32.1857 -27.9420 -24.1377 -24.1027 -23.7772 -23.7413

          k =-0.5000 0.2500 0.0000 (423782 PWs)   bands (ev):

   -42.0459 -32.1857 -32.1857 -27.9420 -24.1155 -24.0881 -23.9214 -23.8468

          k =-0.5000-0.5000 0.0000 (423708 PWs)   bands (ev):

   -42.0459 -32.1857 -32.1857 -27.9420 -24.0679 -24.0679 -24.0152 -23.9078

 ------ SPIN DOWN ----------


          k = 0.0000 0.0000 0.0000 (423701 PWs)   bands (ev):

   -41.1849 -31.8985 -31.8985 -25.7130 -25.6337 -25.0037 -25.0035 -24.5565

          k = 0.0000 0.2500 0.0000 (423725 PWs)   bands (ev):

   -41.1849 -31.8985 -31.8985 -25.7124 -25.6337 -25.0168 -25.0026 -24.5292

          k = 0.0000-0.5000 0.0000 (423542 PWs)   bands (ev):

   -41.1849 -31.8985 -31.8985 -25.7119 -25.6337 -25.0289 -25.0014 -24.5148

          k = 0.2500 0.0000 0.0000 (423725 PWs)   bands (ev):

   -41.1849 -31.8985 -31.8985 -25.7124 -25.6337 -25.0171 -25.0023 -24.5292

          k = 0.2500 0.2500 0.0000 (423766 PWs)   bands (ev):

   -41.1849 -31.8985 -31.8985 -25.7119 -25.6337 -25.0160 -25.0154 -24.4782

          k = 0.2500-0.5000 0.0000 (423782 PWs)   bands (ev):

   -41.1849 -31.8985 -31.8985 -25.7113 -25.6337 -25.0275 -25.0145 -24.4434

          k = 0.2500-0.2500 0.0000 (423766 PWs)   bands (ev):

   -41.1849 -31.8985 -31.8985 -25.7119 -25.6337 -25.0160 -25.0154 -24.4782

          k =-0.5000 0.0000 0.0000 (423542 PWs)   bands (ev):

   -41.1849 -31.8985 -31.8985 -25.7119 -25.6337 -25.0291 -25.0012 -24.5147

          k =-0.5000 0.2500 0.0000 (423782 PWs)   bands (ev):

   -41.1849 -31.8985 -31.8985 -25.7113 -25.6337 -25.0277 -25.0142 -24.4304

          k =-0.5000-0.5000 0.0000 (423708 PWs)   bands (ev):

   -41.1849 -31.8985 -31.8985 -25.7107 -25.6337 -25.0263 -25.0260 -24.4542

     the Fermi energy is   -25.6728 ev

!    total energy              =     -23.94311979 Ry
     estimated scf accuracy    <          2.7E-11 Ry
     smearing contrib. (-TS)   =      -0.00216889 Ry
     internal energy E=F+TS    =     -23.94095090 Ry

     The total energy is F=E-TS. E is the sum of the following terms:
     one-electron contribution =     -71.10115211 Ry
     hartree contribution      =      30.31143881 Ry
     xc contribution           =      -7.24704938 Ry
     ewald contribution        =      24.09639147 Ry
     Dispersion Correction     =      -0.00057969 Ry

     total magnetization       =    -0.00 Bohr mag/cell
     absolute magnetization    =     1.51 Bohr mag/cell

     convergence has been achieved in  11 iterations

     negative rho (up, down):  2.670E-04 1.483E-04

     Forces acting on atoms (cartesian axes, Ry/au):

     atom    1 type  1   force =    -0.00000012   -0.00000081    0.03835217
     atom    2 type  2   force =     0.00000008    0.00000507    0.00000899
     atom    3 type  2   force =     0.00000478   -0.00000210    0.00000837
     atom    4 type  2   force =    -0.00000474   -0.00000217    0.00000834

     Total force =     0.000017     Total SCF correction =     0.000002
     SCF correction compared to forces is large: reduce conv_thr to get better values
     Energy error            =      5.7E-08
     Gradient error          =      9.0E-06

     bfgs converged in  10 scf cycles and   9 bfgs steps
     (criteria: energy <  7.3E-07 Ry, force <  3.9E-04 Ry/Bohr)

     End of BFGS Geometry Optimization

     Final energy   =     -23.9431197879 Ry

     File ./NH3_ESM_pn5_right.bfgs deleted, as requested
Begin final coordinates

ATOMIC_POSITIONS (angstrom)
N            10.0000000000       10.0000000000        0.0000000000    0   0   0
H             9.9999997990       11.0023215580        0.2274468135
H            10.8680356146        9.4988355800        0.2274400700
H             9.1319641064        9.4988359603        0.2274398980
End final coordinates



     Writing output data file ./NH3_ESM_pn5_right.save/

     init_run     :     21.13s CPU     22.19s WALL (       1 calls)
     electrons    :   6316.32s CPU   6755.52s WALL (      10 calls)
     update_pot   :     71.45s CPU     74.84s WALL (       9 calls)
     forces       :     90.59s CPU     96.01s WALL (      10 calls)

     Called by init_run:
     wfcinit      :      1.64s CPU      1.71s WALL (       1 calls)
     potinit      :      7.93s CPU      8.59s WALL (       1 calls)
     hinit0       :      1.68s CPU      1.75s WALL (       1 calls)

     Called by electrons:
     c_bands      :   2173.35s CPU   2212.27s WALL (     354 calls)
     sum_band     :    805.05s CPU    831.27s WALL (     354 calls)
     v_of_rho     :   2106.64s CPU   2270.67s WALL (     363 calls)
     newd         :    283.04s CPU    299.53s WALL (     363 calls)
     mix_rho      :    642.82s CPU    784.99s WALL (     354 calls)

     Called by c_bands:
     init_us_2    :     13.65s CPU     14.11s WALL (    2157 calls)
     ccgdiagg     :   1514.10s CPU   1533.74s WALL (    1062 calls)
     wfcrot       :    561.96s CPU    568.36s WALL (    1032 calls)

     Called by *cgdiagg:
     h_psi        :   1806.99s CPU   1829.45s WALL (   20332 calls)
     s_psi        :    107.90s CPU    109.05s WALL (   39632 calls)

     Called by h_psi:
     h_psi:calbec :     73.06s CPU     73.97s WALL (   20332 calls)
     vloc_psi     :   1643.02s CPU   1663.66s WALL (   20332 calls)
     add_vuspsi   :     81.31s CPU     82.20s WALL (   20332 calls)
     hs_1psi      :   1331.93s CPU   1348.92s WALL (   19300 calls)
     s_1psi       :    115.94s CPU    117.17s WALL (   19300 calls)

     General routines
     calbec       :    139.83s CPU    141.68s WALL (   40814 calls)
     fft          :   2190.11s CPU   2246.32s WALL (    9216 calls)
     ffts         :    113.84s CPU    114.97s WALL (    1434 calls)
     fftw         :   1576.74s CPU   1595.97s WALL (   63608 calls)
     interpolate  :    243.48s CPU    264.74s WALL (     726 calls)
     davcio       :      1.74s CPU     94.54s WALL (   10334 calls)

     Parallel routines
     fft_scatt_xy :    597.89s CPU    604.88s WALL (   74258 calls)
     fft_scatt_yz :   1432.70s CPU   1449.85s WALL (   74258 calls)

     PWSCF        :      1h48m CPU      1h56m WALL


   This run was terminated on:  20: 8: 6  30Jun2022            

=------------------------------------------------------------------------------=
   JOB DONE.
=------------------------------------------------------------------------------=
