
     Program PHONON v.6.7MaX starts on 20Sep2022 at 17:20:27 

     This program is part of the open-source Quantum ESPRESSO suite
     for quantum simulation of materials; please cite
         "P. Giannozzi et al., J. Phys.:Condens. Matter 21 395502 (2009);
         "P. Giannozzi et al., J. Phys.:Condens. Matter 29 465901 (2017);
          URL http://www.quantum-espresso.org", 
     in publications or presentations arising from this work. More details at
     http://www.quantum-espresso.org/quote

     Parallel version (MPI), running on   120 processors

     MPI processes distributed on     1 nodes
     K-points division:     npool     =       8
     R & G space division:  proc/nbgrp/npool/nimage =      15
     Waiting for input...
     Reading input from standard input

     Reading xml data from directory:

     ./NH3_ESM_std.save/

     IMPORTANT: XC functional enforced from input :
     Exchange-correlation= PBE
                           (   1   4   3   4   0   0   0)
     Any further DFT definition will be discarded
     Please, verify this is what you really want


     Parallelization info
     --------------------
     sticks:   dense  smooth     PW     G-vecs:    dense   smooth      PW
     Min        3636    1818    468               639190   225950   29545
     Max        3637    1819    470               639197   225953   29547
     Sum       54553   27281   7033              9587919  3389267  443191


     negative rho (up, down):  2.018E-04 2.018E-04
     Reading collected, re-writing distributed wavefunctions

     Calculation of q =    0.0000000   0.0000000   0.0000000

     phonons (vibrational modes) for NH3                                        

     bravais-lattice index     =            0
     lattice parameter (alat)  =      37.7945  a.u.
     unit-cell volume          =   53986.6760 (a.u.)^3
     number of atoms/cell      =            4
     number of atomic types    =            2
     kinetic-energy cut-off    =      60.0000  Ry
     charge density cut-off    =     480.0000  Ry
     convergence threshold     =      1.0E-12
     beta                      =       0.7000
     number of iterations used =            4
     Exchange-correlation= PBE
                           (   1   4   3   4   0   0   0)


     celldm(1)=   37.79452  celldm(2)=    0.00000  celldm(3)=    0.00000
     celldm(4)=    0.00000  celldm(5)=    0.00000  celldm(6)=    0.00000

     crystal axes: (cart. coord. in units of alat)
               a(1) = (  1.0000  0.0000  0.0000 )  
               a(2) = (  0.0000  1.0000  0.0000 )  
               a(3) = (  0.0000  0.0000  1.0000 )  

     reciprocal axes: (cart. coord. in units 2 pi/alat)
               b(1) = (  1.0000  0.0000  0.0000 )  
               b(2) = (  0.0000  1.0000  0.0000 )  
               b(3) = (  0.0000  0.0000  1.0000 )  


     Atoms inside the unit cell: 

     Cartesian axes

     site n.  atom      mass           positions (alat units)
        1     N   14.0067   tau(    1) = (    0.50000    0.50000    0.00000  )
        2     H    1.0078   tau(    2) = (    0.50000    0.54719   -0.01949  )
        3     H    1.0078   tau(    3) = (    0.54087    0.47640   -0.01949  )
        4     H    1.0078   tau(    4) = (    0.45913    0.47640   -0.01949  )

     Computing dynamical matrix for 
                    q = (   0.0000000   0.0000000   0.0000000 )

      2 Sym.Ops. (with q -> -q+G )


     G cutoff =17367.5767  ( 639197 G-vectors)     FFT grid: (270,270,270)
     G cutoff = 8683.7884  ( 225950 G-vectors)  smooth grid: (192,192,192)

     number of k points=    20  Methfessel-Paxton smearing, width (Ry)=  0.0100
                       cart. coord. in units 2pi/alat
        k(    1) = (   0.0000000   0.0000000   0.0000000), wk =   0.0625000
        k(    2) = (   0.0000000   0.2500000   0.0000000), wk =   0.1250000
        k(    3) = (   0.0000000  -0.5000000   0.0000000), wk =   0.0625000
        k(    4) = (   0.2500000   0.0000000   0.0000000), wk =   0.1250000
        k(    5) = (   0.2500000   0.2500000   0.0000000), wk =   0.1250000
        k(    6) = (   0.2500000  -0.5000000   0.0000000), wk =   0.1250000
        k(    7) = (   0.2500000  -0.2500000   0.0000000), wk =   0.1250000
        k(    8) = (  -0.5000000   0.0000000   0.0000000), wk =   0.0625000
        k(    9) = (  -0.5000000   0.2500000   0.0000000), wk =   0.1250000
        k(   10) = (  -0.5000000  -0.5000000   0.0000000), wk =   0.0625000
        k(   11) = (   0.0000000   0.0000000   0.0000000), wk =   0.0625000
        k(   12) = (   0.0000000   0.2500000   0.0000000), wk =   0.1250000
        k(   13) = (   0.0000000  -0.5000000   0.0000000), wk =   0.0625000
        k(   14) = (   0.2500000   0.0000000   0.0000000), wk =   0.1250000
        k(   15) = (   0.2500000   0.2500000   0.0000000), wk =   0.1250000
        k(   16) = (   0.2500000  -0.5000000   0.0000000), wk =   0.1250000
        k(   17) = (   0.2500000  -0.2500000   0.0000000), wk =   0.1250000
        k(   18) = (  -0.5000000   0.0000000   0.0000000), wk =   0.0625000
        k(   19) = (  -0.5000000   0.2500000   0.0000000), wk =   0.1250000
        k(   20) = (  -0.5000000  -0.5000000   0.0000000), wk =   0.0625000

     PseudoPot. # 1 for N  read from file:
     ../../SSSP/N.pbe-n-radius_5.UPF
     MD5 check sum: 16739722b17309cd8fe442a2ace49922
     Pseudo is Ultrasoft + core correction, Zval =  5.0
     Generated using "atomic" code by A. Dal Corso  v.5.1
     Using radial grid of 1085 points,  4 beta functions with: 
                l(1) =   0
                l(2) =   0
                l(3) =   1
                l(4) =   1
     Q(r) pseudized with 0 coefficients 


     PseudoPot. # 2 for H  read from file:
     ../../SSSP/H.pbe-rrkjus_psl.1.0.0.UPF
     MD5 check sum: f52b6d4d1c606e5624b1dc7b2218f220
     Pseudo is Ultrasoft, Zval =  1.0
     Generated using "atomic" code by A. Dal Corso  v.5.1
     Using radial grid of  929 points,  2 beta functions with: 
                l(1) =   0
                l(2) =   0
     Q(r) pseudized with 0 coefficients 


     Mode symmetry, C_1 (1)     point group:


     Atomic displacements:
     There are   12 irreducible representations

     Representation     1      1 modes -  To be done

     Representation     2      1 modes -  To be done

     Representation     3      1 modes -  To be done

     Representation     4      1 modes -  To be done

     Representation     5      1 modes -  To be done

     Representation     6      1 modes -  To be done

     Representation     7      1 modes -  To be done

     Representation     8      1 modes -  To be done

     Representation     9      1 modes -  To be done

     Representation    10      1 modes -  To be done

     Representation    11      1 modes -  To be done

     Representation    12      1 modes -  To be done



     Alpha used in Ewald sum =   2.8000

     -------------------------------------------------
     Parameters for Dispersion (Grimme-D2) Correction:
     -------------------------------------------------
       atom      VdW radius       C_6     

        N          2.640         42.670
        H          1.892          4.857

     Calculating the D2 contribution to the dynamical matrix.
     D2 energy =       -0.00031834 Ry
     Done.


     negative rho (up, down):  2.018E-04 2.018E-04
     PHONON       :   3m30.30s CPU   3m39.81s WALL



     Representation #   1 mode #   1

     Self-consistent Calculation

     Pert. #  1: Fermi energy shift (Ry) =     0.0000E+00     0.0000E+00

      iter #   1 total cpu time :   262.5 secs   av.it.:   8.0
      thresh= 1.000E-02 alpha_mix =  0.700 |ddv_scf|^2 =  1.498E-06

     Pert. #  1: Fermi energy shift (Ry) =     0.0000E+00     0.0000E+00

      iter #   2 total cpu time :   303.4 secs   av.it.:  12.6
      thresh= 1.224E-04 alpha_mix =  0.700 |ddv_scf|^2 =  2.186E-07

     Pert. #  1: Fermi energy shift (Ry) =     0.0000E+00     0.0000E+00

      iter #   3 total cpu time :   347.9 secs   av.it.:  13.0
      thresh= 4.676E-05 alpha_mix =  0.700 |ddv_scf|^2 =  8.839E-09

     Pert. #  1: Fermi energy shift (Ry) =     0.0000E+00     0.0000E+00

      iter #   4 total cpu time :   392.2 secs   av.it.:  14.0
      thresh= 9.402E-06 alpha_mix =  0.700 |ddv_scf|^2 =  4.838E-12

     Pert. #  1: Fermi energy shift (Ry) =     0.0000E+00     0.0000E+00

      iter #   5 total cpu time :   438.0 secs   av.it.:  16.0
      thresh= 2.200E-07 alpha_mix =  0.700 |ddv_scf|^2 =  5.502E-14

     End of self-consistent calculation

     Convergence has been achieved 


     Representation #   2 mode #   2

     Self-consistent Calculation

     Pert. #  1: Fermi energy shift (Ry) =     0.0000E+00     0.0000E+00

      iter #   1 total cpu time :   501.6 secs   av.it.:   8.0
      thresh= 1.000E-02 alpha_mix =  0.700 |ddv_scf|^2 =  1.328E-06

     Pert. #  1: Fermi energy shift (Ry) =     0.0000E+00     0.0000E+00

      iter #   2 total cpu time :   541.4 secs   av.it.:  12.6
      thresh= 1.152E-04 alpha_mix =  0.700 |ddv_scf|^2 =  1.705E-07

     Pert. #  1: Fermi energy shift (Ry) =     0.0000E+00     0.0000E+00

      iter #   3 total cpu time :   584.4 secs   av.it.:  13.0
      thresh= 4.129E-05 alpha_mix =  0.700 |ddv_scf|^2 =  2.876E-09

     Pert. #  1: Fermi energy shift (Ry) =     0.0000E+00     0.0000E+00

      iter #   4 total cpu time :   631.1 secs   av.it.:  15.0
      thresh= 5.363E-06 alpha_mix =  0.700 |ddv_scf|^2 =  4.902E-12

     Pert. #  1: Fermi energy shift (Ry) =     0.0000E+00     0.0000E+00

      iter #   5 total cpu time :   677.8 secs   av.it.:  16.8
      thresh= 2.214E-07 alpha_mix =  0.700 |ddv_scf|^2 =  2.907E-13

     End of self-consistent calculation

     Convergence has been achieved 


     Representation #   3 mode #   3

     Self-consistent Calculation

     Pert. #  1: Fermi energy shift (Ry) =     0.0000E+00     0.0000E+00

      iter #   1 total cpu time :   740.7 secs   av.it.:   8.0
      thresh= 1.000E-02 alpha_mix =  0.700 |ddv_scf|^2 =  1.507E-06

     Pert. #  1: Fermi energy shift (Ry) =     0.0000E+00     0.0000E+00

      iter #   2 total cpu time :   782.0 secs   av.it.:  13.0
      thresh= 1.227E-04 alpha_mix =  0.700 |ddv_scf|^2 =  2.123E-07

     Pert. #  1: Fermi energy shift (Ry) =     0.0000E+00     0.0000E+00

      iter #   3 total cpu time :   826.1 secs   av.it.:  14.0
      thresh= 4.607E-05 alpha_mix =  0.700 |ddv_scf|^2 =  6.962E-09

     Pert. #  1: Fermi energy shift (Ry) =     0.0000E+00     0.0000E+00

      iter #   4 total cpu time :   873.2 secs   av.it.:  15.0
      thresh= 8.344E-06 alpha_mix =  0.700 |ddv_scf|^2 =  5.027E-10

     Pert. #  1: Fermi energy shift (Ry) =     0.0000E+00     0.0000E+00

      iter #   5 total cpu time :   919.8 secs   av.it.:  15.0
      thresh= 2.242E-06 alpha_mix =  0.700 |ddv_scf|^2 =  3.558E-12

     Pert. #  1: Fermi energy shift (Ry) =     0.0000E+00     0.0000E+00

      iter #   6 total cpu time :   966.5 secs   av.it.:  15.0
      thresh= 1.886E-07 alpha_mix =  0.700 |ddv_scf|^2 =  9.634E-14

     End of self-consistent calculation

     Convergence has been achieved 


     Representation #   4 mode #   4

     Self-consistent Calculation

     Pert. #  1: Fermi energy shift (Ry) =     0.0000E+00     0.0000E+00

      iter #   1 total cpu time :  1028.0 secs   av.it.:   5.0
      thresh= 1.000E-02 alpha_mix =  0.700 |ddv_scf|^2 =  2.696E-08

     Pert. #  1: Fermi energy shift (Ry) =     0.0000E+00     0.0000E+00

      iter #   2 total cpu time :  1067.1 secs   av.it.:  11.2
      thresh= 1.642E-05 alpha_mix =  0.700 |ddv_scf|^2 =  2.343E-09

     Pert. #  1: Fermi energy shift (Ry) =     0.0000E+00     0.0000E+00

      iter #   3 total cpu time :  1107.9 secs   av.it.:  13.1
      thresh= 4.841E-06 alpha_mix =  0.700 |ddv_scf|^2 =  1.195E-11

     Pert. #  1: Fermi energy shift (Ry) =     0.0000E+00     0.0000E+00

      iter #   4 total cpu time :  1155.9 secs   av.it.:  16.7
      thresh= 3.457E-07 alpha_mix =  0.700 |ddv_scf|^2 =  1.857E-14

     End of self-consistent calculation

     Convergence has been achieved 


     Representation #   5 mode #   5

     Self-consistent Calculation

     Pert. #  1: Fermi energy shift (Ry) =     0.0000E+00     0.0000E+00

      iter #   1 total cpu time :  1216.4 secs   av.it.:   6.0
      thresh= 1.000E-02 alpha_mix =  0.700 |ddv_scf|^2 =  1.588E-08

     Pert. #  1: Fermi energy shift (Ry) =     0.0000E+00     0.0000E+00

      iter #   2 total cpu time :  1258.4 secs   av.it.:  14.8
      thresh= 1.260E-05 alpha_mix =  0.700 |ddv_scf|^2 =  2.178E-09

     Pert. #  1: Fermi energy shift (Ry) =     0.0000E+00     0.0000E+00

      iter #   3 total cpu time :  1304.3 secs   av.it.:  17.0
      thresh= 4.666E-06 alpha_mix =  0.700 |ddv_scf|^2 =  1.535E-09

     Pert. #  1: Fermi energy shift (Ry) =     0.0000E+00     0.0000E+00

      iter #   4 total cpu time :  1348.9 secs   av.it.:  16.0
      thresh= 3.918E-06 alpha_mix =  0.700 |ddv_scf|^2 =  4.987E-12

     Pert. #  1: Fermi energy shift (Ry) =     0.0000E+00     0.0000E+00

      iter #   5 total cpu time :  1396.8 secs   av.it.:  16.9
      thresh= 2.233E-07 alpha_mix =  0.700 |ddv_scf|^2 =  1.927E-13

     End of self-consistent calculation

     Convergence has been achieved 


     Representation #   6 mode #   6

     Self-consistent Calculation

     Pert. #  1: Fermi energy shift (Ry) =     0.0000E+00     0.0000E+00

      iter #   1 total cpu time :  1457.7 secs   av.it.:   5.2
      thresh= 1.000E-02 alpha_mix =  0.700 |ddv_scf|^2 =  5.836E-08

     Pert. #  1: Fermi energy shift (Ry) =     0.0000E+00     0.0000E+00

      iter #   2 total cpu time :  1499.9 secs   av.it.:  14.0
      thresh= 2.416E-05 alpha_mix =  0.700 |ddv_scf|^2 =  5.744E-09

     Pert. #  1: Fermi energy shift (Ry) =     0.0000E+00     0.0000E+00

      iter #   3 total cpu time :  1542.7 secs   av.it.:  16.0
      thresh= 7.579E-06 alpha_mix =  0.700 |ddv_scf|^2 =  7.754E-10

     Pert. #  1: Fermi energy shift (Ry) =     0.0000E+00     0.0000E+00

      iter #   4 total cpu time :  1588.0 secs   av.it.:  16.0
      thresh= 2.785E-06 alpha_mix =  0.700 |ddv_scf|^2 =  1.509E-12

     Pert. #  1: Fermi energy shift (Ry) =     0.0000E+00     0.0000E+00

      iter #   5 total cpu time :  1631.3 secs   av.it.:  16.0
      thresh= 1.228E-07 alpha_mix =  0.700 |ddv_scf|^2 =  6.520E-14

     End of self-consistent calculation

     Convergence has been achieved 


     Representation #   7 mode #   7

     Self-consistent Calculation

     Pert. #  1: Fermi energy shift (Ry) =     0.0000E+00     0.0000E+00

      iter #   1 total cpu time :  1692.4 secs   av.it.:   6.0
      thresh= 1.000E-02 alpha_mix =  0.700 |ddv_scf|^2 =  4.931E-08

     Pert. #  1: Fermi energy shift (Ry) =     0.0000E+00     0.0000E+00

      iter #   2 total cpu time :  1733.5 secs   av.it.:  14.0
      thresh= 2.221E-05 alpha_mix =  0.700 |ddv_scf|^2 =  5.554E-09

     Pert. #  1: Fermi energy shift (Ry) =     0.0000E+00     0.0000E+00

      iter #   3 total cpu time :  1777.6 secs   av.it.:  17.0
      thresh= 7.453E-06 alpha_mix =  0.700 |ddv_scf|^2 =  1.947E-09

     Pert. #  1: Fermi energy shift (Ry) =     0.0000E+00     0.0000E+00

      iter #   4 total cpu time :  1823.0 secs   av.it.:  16.0
      thresh= 4.413E-06 alpha_mix =  0.700 |ddv_scf|^2 =  3.402E-12

     Pert. #  1: Fermi energy shift (Ry) =     0.0000E+00     0.0000E+00

      iter #   5 total cpu time :  1869.8 secs   av.it.:  17.0
      thresh= 1.845E-07 alpha_mix =  0.700 |ddv_scf|^2 =  1.709E-13

     End of self-consistent calculation

     Convergence has been achieved 


     Representation #   8 mode #   8

     Self-consistent Calculation

     Pert. #  1: Fermi energy shift (Ry) =     0.0000E+00     0.0000E+00

      iter #   1 total cpu time :  1930.3 secs   av.it.:   6.0
      thresh= 1.000E-02 alpha_mix =  0.700 |ddv_scf|^2 =  6.233E-08

     Pert. #  1: Fermi energy shift (Ry) =     0.0000E+00     0.0000E+00

      iter #   2 total cpu time :  1971.0 secs   av.it.:  12.8
      thresh= 2.497E-05 alpha_mix =  0.700 |ddv_scf|^2 =  5.452E-09

     Pert. #  1: Fermi energy shift (Ry) =     0.0000E+00     0.0000E+00

      iter #   3 total cpu time :  2015.6 secs   av.it.:  16.7
      thresh= 7.384E-06 alpha_mix =  0.700 |ddv_scf|^2 =  6.244E-10

     Pert. #  1: Fermi energy shift (Ry) =     0.0000E+00     0.0000E+00

      iter #   4 total cpu time :  2064.0 secs   av.it.:  17.0
      thresh= 2.499E-06 alpha_mix =  0.700 |ddv_scf|^2 =  4.272E-12

     Pert. #  1: Fermi energy shift (Ry) =     0.0000E+00     0.0000E+00

      iter #   5 total cpu time :  2108.5 secs   av.it.:  17.0
      thresh= 2.067E-07 alpha_mix =  0.700 |ddv_scf|^2 =  1.354E-13

     End of self-consistent calculation

     Convergence has been achieved 


     Representation #   9 mode #   9

     Self-consistent Calculation

     Pert. #  1: Fermi energy shift (Ry) =     0.0000E+00     0.0000E+00

      iter #   1 total cpu time :  2169.1 secs   av.it.:   5.3
      thresh= 1.000E-02 alpha_mix =  0.700 |ddv_scf|^2 =  1.629E-08

     Pert. #  1: Fermi energy shift (Ry) =     0.0000E+00     0.0000E+00

      iter #   2 total cpu time :  2211.9 secs   av.it.:  15.4
      thresh= 1.276E-05 alpha_mix =  0.700 |ddv_scf|^2 =  1.650E-09

     Pert. #  1: Fermi energy shift (Ry) =     0.0000E+00     0.0000E+00

      iter #   3 total cpu time :  2257.6 secs   av.it.:  16.7
      thresh= 4.062E-06 alpha_mix =  0.700 |ddv_scf|^2 =  6.426E-10

     Pert. #  1: Fermi energy shift (Ry) =     0.0000E+00     0.0000E+00

      iter #   4 total cpu time :  2302.7 secs   av.it.:  16.0
      thresh= 2.535E-06 alpha_mix =  0.700 |ddv_scf|^2 =  4.483E-12

     Pert. #  1: Fermi energy shift (Ry) =     0.0000E+00     0.0000E+00

      iter #   5 total cpu time :  2347.2 secs   av.it.:  17.0
      thresh= 2.117E-07 alpha_mix =  0.700 |ddv_scf|^2 =  8.095E-14

     End of self-consistent calculation

     Convergence has been achieved 


     Representation #  10 mode #  10

     Self-consistent Calculation

     Pert. #  1: Fermi energy shift (Ry) =     0.0000E+00     0.0000E+00

      iter #   1 total cpu time :  2408.5 secs   av.it.:   6.7
      thresh= 1.000E-02 alpha_mix =  0.700 |ddv_scf|^2 =  3.253E-08

     Pert. #  1: Fermi energy shift (Ry) =     0.0000E+00     0.0000E+00

      iter #   2 total cpu time :  2450.3 secs   av.it.:  14.2
      thresh= 1.804E-05 alpha_mix =  0.700 |ddv_scf|^2 =  3.647E-09

     Pert. #  1: Fermi energy shift (Ry) =     0.0000E+00     0.0000E+00

      iter #   3 total cpu time :  2493.8 secs   av.it.:  17.0
      thresh= 6.039E-06 alpha_mix =  0.700 |ddv_scf|^2 =  1.755E-09

     Pert. #  1: Fermi energy shift (Ry) =     0.0000E+00     0.0000E+00

      iter #   4 total cpu time :  2542.3 secs   av.it.:  16.2
      thresh= 4.189E-06 alpha_mix =  0.700 |ddv_scf|^2 =  2.560E-12

     Pert. #  1: Fermi energy shift (Ry) =     0.0000E+00     0.0000E+00

      iter #   5 total cpu time :  2585.9 secs   av.it.:  16.9
      thresh= 1.600E-07 alpha_mix =  0.700 |ddv_scf|^2 =  1.523E-13

     End of self-consistent calculation

     Convergence has been achieved 


     Representation #  11 mode #  11

     Self-consistent Calculation

     Pert. #  1: Fermi energy shift (Ry) =     0.0000E+00     0.0000E+00

      iter #   1 total cpu time :  2645.4 secs   av.it.:   6.0
      thresh= 1.000E-02 alpha_mix =  0.700 |ddv_scf|^2 =  2.298E-08

     Pert. #  1: Fermi energy shift (Ry) =     0.0000E+00     0.0000E+00

      iter #   2 total cpu time :  2688.8 secs   av.it.:  15.0
      thresh= 1.516E-05 alpha_mix =  0.700 |ddv_scf|^2 =  2.542E-09

     Pert. #  1: Fermi energy shift (Ry) =     0.0000E+00     0.0000E+00

      iter #   3 total cpu time :  2732.9 secs   av.it.:  17.0
      thresh= 5.041E-06 alpha_mix =  0.700 |ddv_scf|^2 =  6.292E-10

     Pert. #  1: Fermi energy shift (Ry) =     0.0000E+00     0.0000E+00

      iter #   4 total cpu time :  2782.6 secs   av.it.:  17.0
      thresh= 2.508E-06 alpha_mix =  0.700 |ddv_scf|^2 =  2.947E-12

     Pert. #  1: Fermi energy shift (Ry) =     0.0000E+00     0.0000E+00

      iter #   5 total cpu time :  2826.4 secs   av.it.:  17.0
      thresh= 1.717E-07 alpha_mix =  0.700 |ddv_scf|^2 =  1.256E-13

     End of self-consistent calculation

     Convergence has been achieved 


     Representation #  12 mode #  12

     Self-consistent Calculation

     Pert. #  1: Fermi energy shift (Ry) =     0.0000E+00     0.0000E+00

      iter #   1 total cpu time :  2887.9 secs   av.it.:   6.0
      thresh= 1.000E-02 alpha_mix =  0.700 |ddv_scf|^2 =  2.372E-08

     Pert. #  1: Fermi energy shift (Ry) =     0.0000E+00     0.0000E+00

      iter #   2 total cpu time :  2929.5 secs   av.it.:  14.9
      thresh= 1.540E-05 alpha_mix =  0.700 |ddv_scf|^2 =  2.111E-09

     Pert. #  1: Fermi energy shift (Ry) =     0.0000E+00     0.0000E+00

      iter #   3 total cpu time :  2974.3 secs   av.it.:  17.0
      thresh= 4.594E-06 alpha_mix =  0.700 |ddv_scf|^2 =  6.675E-10

     Pert. #  1: Fermi energy shift (Ry) =     0.0000E+00     0.0000E+00

      iter #   4 total cpu time :  3019.5 secs   av.it.:  16.2
      thresh= 2.584E-06 alpha_mix =  0.700 |ddv_scf|^2 =  2.669E-12

     Pert. #  1: Fermi energy shift (Ry) =     0.0000E+00     0.0000E+00

      iter #   5 total cpu time :  3067.4 secs   av.it.:  16.8
      thresh= 1.634E-07 alpha_mix =  0.700 |ddv_scf|^2 =  2.824E-14

     End of self-consistent calculation

     Convergence has been achieved 

     Number of q in the star =    1
     List of q in the star:
          1   0.000000000   0.000000000   0.000000000

     Diagonalizing the dynamical matrix

     q = (    0.000000000   0.000000000   0.000000000 ) 

 **************************************************************************
     freq (    1) =     -20.662579 [THz] =    -689.229458 [cm-1]
     freq (    2) =     -19.484216 [THz] =    -649.923490 [cm-1]
     freq (    3) =     -19.328352 [THz] =    -644.724408 [cm-1]
     freq (    4) =     -18.869705 [THz] =    -629.425619 [cm-1]
     freq (    5) =     -16.826587 [THz] =    -561.274513 [cm-1]
     freq (    6) =     -16.750929 [THz] =    -558.750840 [cm-1]
     freq (    7) =      26.584940 [THz] =     886.778142 [cm-1]
     freq (    8) =      45.901000 [THz] =    1531.092553 [cm-1]
     freq (    9) =      45.923738 [THz] =    1531.850995 [cm-1]
     freq (   10) =     100.116601 [THz] =    3339.530329 [cm-1]
     freq (   11) =     102.824527 [THz] =    3429.857041 [cm-1]
     freq (   12) =     102.857163 [THz] =    3430.945636 [cm-1]
 **************************************************************************

     Mode symmetry, C_1 (1)     point group:

     freq (   1-   1) =       -689.2  [cm-1]   --> A               I+R
     freq (   2-   2) =       -649.9  [cm-1]   --> A               I+R
     freq (   3-   3) =       -644.7  [cm-1]   --> A               I+R
     freq (   4-   4) =       -629.4  [cm-1]   --> A               I+R
     freq (   5-   5) =       -561.3  [cm-1]   --> A               I+R
     freq (   6-   6) =       -558.8  [cm-1]   --> A               I+R
     freq (   7-   7) =        886.8  [cm-1]   --> A               I+R
     freq (   8-   8) =       1531.1  [cm-1]   --> A               I+R
     freq (   9-   9) =       1531.9  [cm-1]   --> A               I+R
     freq (  10-  10) =       3339.5  [cm-1]   --> A               I+R
     freq (  11-  11) =       3429.9  [cm-1]   --> A               I+R
     freq (  12-  12) =       3430.9  [cm-1]   --> A               I+R

     PHONON       :  44m37.74s CPU  51m35.35s WALL

     INITIALIZATION: 
     phq_setup    :     12.99s CPU     14.46s WALL (       1 calls)
     phq_init     :    179.70s CPU    185.11s WALL (       1 calls)

     phq_init     :    179.70s CPU    185.11s WALL (       1 calls)
     set_drhoc    :     24.13s CPU     24.25s WALL (       3 calls)
     init_vloc    :      0.32s CPU      0.32s WALL (       1 calls)
     init_us_1    :      0.04s CPU      0.04s WALL (       1 calls)
     newd         :      1.16s CPU      1.21s WALL (       1 calls)
     dvanqq       :     73.60s CPU     74.44s WALL (       1 calls)
     drho         :     58.32s CPU     62.02s WALL (       1 calls)

     DYNAMICAL MATRIX:
     dynmat0      :     25.11s CPU     25.87s WALL (       1 calls)
     phqscf       :   2467.24s CPU   2866.20s WALL (       1 calls)
     dynmatrix    :      0.12s CPU      0.14s WALL (       1 calls)

     phqscf       :   2467.24s CPU   2866.20s WALL (       1 calls)
     solve_linter :   2449.64s CPU   2821.49s WALL (      12 calls)
     drhodv       :     17.59s CPU     17.96s WALL (      12 calls)

     dynmat0      :     25.11s CPU     25.87s WALL (       1 calls)
     dynmat_us    :      1.91s CPU      2.01s WALL (       1 calls)
     d2ionq       :      0.99s CPU      0.99s WALL (       1 calls)
     dynmatcc     :     22.13s CPU     22.78s WALL (       1 calls)

     dynmat_us    :      1.91s CPU      2.01s WALL (       1 calls)
     addusdynmat  :      0.00s CPU      0.00s WALL (       1 calls)

     phqscf       :   2467.24s CPU   2866.20s WALL (       1 calls)
     solve_linter :   2449.64s CPU   2821.49s WALL (      12 calls)

     solve_linter :   2449.64s CPU   2821.49s WALL (      12 calls)
     dvqpsi_us    :     24.81s CPU     25.28s WALL (      36 calls)
     ortho        :      4.85s CPU      4.98s WALL (     180 calls)
     cgsolve      :    832.69s CPU    842.57s WALL (     180 calls)
     incdrhoscf   :     51.04s CPU     52.09s WALL (     180 calls)
     addusddens   :    144.53s CPU    153.48s WALL (      72 calls)
     vpsifft      :     41.74s CPU     42.57s WALL (     144 calls)
     dv_of_drho   :    397.21s CPU    416.85s WALL (      60 calls)
     mix_pot      :     29.33s CPU     88.03s WALL (      60 calls)
     ef_shift     :     56.80s CPU     57.79s WALL (      72 calls)
     localdos     :     63.01s CPU     65.49s WALL (      12 calls)
     psymdvscf    :    290.45s CPU    445.47s WALL (      60 calls)
     newdq        :    190.83s CPU    199.85s WALL (      60 calls)
     adddvscf     :      1.54s CPU      1.57s WALL (     144 calls)
     drhodvus     :      5.18s CPU     60.43s WALL (      12 calls)

     dvqpsi_us    :     24.81s CPU     25.28s WALL (      36 calls)
     dvqpsi_us_on :      0.42s CPU      0.44s WALL (      36 calls)

     cgsolve      :    832.69s CPU    842.57s WALL (     180 calls)
     ch_psi       :    806.91s CPU    816.50s WALL (    3450 calls)

     ch_psi       :    806.91s CPU    816.50s WALL (    3450 calls)
     h_psi        :    725.32s CPU    734.02s WALL (    3450 calls)
     last         :     57.10s CPU     57.70s WALL (    3450 calls)

     h_psi        :    725.32s CPU    734.02s WALL (    3450 calls)
     add_vuspsi   :     16.73s CPU     16.92s WALL (    3450 calls)

     incdrhoscf   :     51.04s CPU     52.09s WALL (     180 calls)
     addusdbec    :      2.14s CPU      2.16s WALL (     216 calls)

     drhodvus     :      5.18s CPU     60.43s WALL (      12 calls)

      General routines
     calbec       :     39.11s CPU     39.73s WALL (    7506 calls)
     fft          :    681.49s CPU    695.12s WALL (    2531 calls)
     ffts         :     46.93s CPU     47.91s WALL (     626 calls)
     fftw         :    660.86s CPU    669.06s WALL (   23390 calls)
     davcio       :      0.32s CPU    107.58s WALL (    1406 calls)
     write_rec    :      0.01s CPU     55.91s WALL (      72 calls)


     PHONON       :  44m37.74s CPU  51m35.36s WALL


   This run was terminated on:  18:12: 2  20Sep2022            

=------------------------------------------------------------------------------=
   JOB DONE.
=------------------------------------------------------------------------------=
