
     Program PWSCF v.6.4.1 starts on 13Jun2022 at  3: 3: 3 

     This program is part of the open-source Quantum ESPRESSO suite
     for quantum simulation of materials; please cite
         "P. Giannozzi et al., J. Phys.:Condens. Matter 21 395502 (2009);
         "P. Giannozzi et al., J. Phys.:Condens. Matter 29 465901 (2017);
          URL http://www.quantum-espresso.org", 
     in publications or presentations arising from this work. More details at
     http://www.quantum-espresso.org/quote

     Parallel version (MPI), running on   160 processors

     MPI processes distributed on     8 nodes
     K-points division:     npool     =       8
     R & G space division:  proc/nbgrp/npool/nimage =      20
     Waiting for input...
     Reading input from standard input
Warning: card &CELL ignored
Warning: card / ignored

     Current dimensions of program PWSCF are:
     Max number of different atomic species (ntypx) = 10
     Max number of k-points (npk) =  40000
     Max angular momentum in pseudopotentials (lmaxx) =  3

     IMPORTANT: XC functional enforced from input :
     Exchange-correlation      = PBE ( 1  4  3  4 0 0)
     Any further DFT definition will be discarded
     Please, verify this is what you really want

               file Fe.pbe-spn-kjpaw_psl.0.2.1.UPF: wavefunction(s)  3D renormalized

     -------------------------------------------------
     Parameters for Dispersion (Grimme-D2) Correction:
     -------------------------------------------------
       atom      VdW radius       C_6     

        Fe         2.952        374.666
        N          2.640         42.670
        H          1.892          4.857

     Subspace diagonalization in iterative solution of the eigenvalue problem:
     one sub-group per band group will be used
     scalapack distributed-memory algorithm (size of sub-group:  3*  3 procs)


     Parallelization info
     --------------------
     sticks:   dense  smooth     PW     G-vecs:    dense   smooth      PW
     Min         634     317     83               145278    51361    6989
     Max         635     318     84               145287    51370    7000
     Sum       12685    6351   1677              2905599  1027285  139897



     bravais-lattice index     =            0
     lattice parameter (alat)  =      18.7640  a.u.
     unit-cell volume          =   16360.3163 (a.u.)^3
     number of atoms/cell      =           66
     number of atomic types    =            3
     number of electrons       =      1030.00
     number of Kohn-Sham states=          618
     kinetic-energy cutoff     =      60.0000  Ry
     charge density cutoff     =     480.0000  Ry
     convergence threshold     =      1.0E-08
     mixing beta               =       0.2000
     number of iterations used =           10  local-TF  mixing
     Exchange-correlation      = PBE ( 1  4  3  4 0 0)
     nstep                     =           50


     Effective Screening Medium Method
     =================================
     Boundary Conditions: Metal-Slab-Metal
     field strength                   =    -0.01 Ry/a.u.
     grid points for fit at edges     =        4 


     celldm(1)=  18.764036  celldm(2)=   0.000000  celldm(3)=   0.000000
     celldm(4)=   0.000000  celldm(5)=   0.000000  celldm(6)=   0.000000

     crystal axes: (cart. coord. in units of alat)
               a(1) = (   1.000000   0.000000   0.000000 )  
               a(2) = (   0.333330   0.942807   0.000000 )  
               a(3) = (   0.000000   0.000000   2.626577 )  

     reciprocal axes: (cart. coord. in units 2 pi/alat)
               b(1) = (  1.000000 -0.353551  0.000000 )  
               b(2) = (  0.000000  1.060663  0.000000 )  
               b(3) = (  0.000000  0.000000  0.380724 )  


     PseudoPot. # 1 for Fe read from file:
     ../../SSSP/Fe.pbe-spn-kjpaw_psl.0.2.1.UPF
     MD5 check sum: e86618425769142926afa95317d90200
     Pseudo is Projector augmented-wave + core cor, Zval = 16.0
     Generated using "atomic" code by A. Dal Corso v.5.0.99 svn rev. 10869
     Shape of augmentation charge: PSQ
     Using radial grid of 1191 points,  6 beta functions with: 
                l(1) =   0
                l(2) =   0
                l(3) =   1
                l(4) =   1
                l(5) =   2
                l(6) =   2
     Q(r) pseudized with 0 coefficients 


     PseudoPot. # 2 for N  read from file:
     ../../SSSP/N.pbe-n-radius_5.UPF
     MD5 check sum: 16739722b17309cd8fe442a2ace49922
     Pseudo is Ultrasoft + core correction, Zval =  5.0
     Generated using "atomic" code by A. Dal Corso v.5.1
     Using radial grid of 1085 points,  4 beta functions with: 
                l(1) =   0
                l(2) =   0
                l(3) =   1
                l(4) =   1
     Q(r) pseudized with 0 coefficients 


     PseudoPot. # 3 for H  read from file:
     ../../SSSP/H.pbe-rrkjus_psl.1.0.0.UPF
     MD5 check sum: f52b6d4d1c606e5624b1dc7b2218f220
     Pseudo is Ultrasoft, Zval =  1.0
     Generated using "atomic" code by A. Dal Corso v.5.1
     Using radial grid of  929 points,  2 beta functions with: 
                l(1) =   0
                l(2) =   0
     Q(r) pseudized with 0 coefficients 


     atomic species   valence    mass     pseudopotential
        Fe            16.00    55.84500     Fe( 1.00)
        N              5.00    14.00700     N ( 1.00)
        H              1.00     1.00800     H ( 1.00)

     Starting magnetic structure 
     atomic species   magnetization
        Fe           0.100
        N            0.100
        H            0.100

     No symmetry found



   Cartesian axes

     site n.     atom                  positions (alat units)
         1           Fe  tau(   1) = (   0.1666663   0.1178509   0.0000000  )
         2           Fe  tau(   2) = (   0.0000000   0.0000000   0.2041376  )
         3           Fe  tau(   3) = (   0.4999989   0.3535526   0.0000000  )
         4           Fe  tau(   4) = (   0.3333326   0.2357017   0.2041376  )
         5           Fe  tau(   5) = (   0.1691633   0.1174609   0.4053662  )
         6           Fe  tau(   6) = (   0.3358127   0.9392503   0.6061139  )
         7           Fe  tau(   7) = (   0.4995100   0.3559898   0.4071377  )
         8           Fe  tau(   8) = (   0.3418436   0.2351322   0.6065451  )
         9           Fe  tau(   9) = (   0.2499989   0.3535526   0.0000000  )
        10           Fe  tau(  10) = (   0.4166663   0.1178509   0.0000000  )
        11           Fe  tau(  11) = (   0.0833326   0.2357017   0.2041376  )
        12           Fe  tau(  12) = (   0.2500000   0.0000000   0.2041376  )
        13           Fe  tau(  13) = (   0.2500475   0.3534024   0.4076456  )
        14           Fe  tau(  14) = (   0.4190214   0.1195197   0.4059972  )
        15           Fe  tau(  15) = (   0.0921065   0.2318890   0.6066743  )
        16           Fe  tau(  16) = (   0.2526868   0.0019110   0.6060625  )
        17           Fe  tau(  17) = (   0.6666663   0.1178509   0.0000000  )
        18           Fe  tau(  18) = (   0.5000000   0.0000000   0.2041376  )
        19           Fe  tau(  19) = (   0.9999989   0.3535526   0.0000000  )
        20           Fe  tau(  20) = (   0.8333326   0.2357017   0.2041376  )
        21           Fe  tau(  21) = (   0.6687842   0.1165435   0.4071110  )
        22           Fe  tau(  22) = (   0.5022839   0.0081767   0.6065702  )
        23           Fe  tau(  23) = (   1.0003529   0.3509213   0.4068188  )
        24           Fe  tau(  24) = (   0.8517557   0.2096697   0.6024432  )
        25           Fe  tau(  25) = (   0.7499989   0.3535526   0.0000000  )
        26           Fe  tau(  26) = (   0.9166663   0.1178509   0.0000000  )
        27           Fe  tau(  27) = (   0.5833326   0.2357017   0.2041376  )
        28           Fe  tau(  28) = (   0.7500000   0.0000000   0.2041376  )
        29           Fe  tau(  29) = (   0.7499331   0.3534612   0.4087050  )
        30           Fe  tau(  30) = (   0.9195664   0.1133897   0.4030117  )
        31           Fe  tau(  31) = (   0.5924243   0.2420555   0.6047444  )
        32           Fe  tau(  32) = (   1.0846683   0.9333764   0.6072549  )
        33           Fe  tau(  33) = (   0.3333315   0.5892543   0.0000000  )
        34           Fe  tau(  34) = (   0.1666652   0.4714034   0.2041376  )
        35           Fe  tau(  35) = (   0.6666640   0.8249560   0.0000000  )
        36           Fe  tau(  36) = (   0.4999978   0.7071052   0.2041376  )
        37           Fe  tau(  37) = (   0.3307394   0.5894524   0.4057984  )
        38           Fe  tau(  38) = (   1.1584558   0.4708203   0.6061482  )
        39           Fe  tau(  39) = (   0.6671439   0.8274292   0.4053888  )
        40           Fe  tau(  40) = (   0.4974820   0.7106282   0.6062117  )
        41           Fe  tau(  41) = (   0.4166640   0.8249560   0.0000000  )
        42           Fe  tau(  42) = (   0.5833315   0.5892543   0.0000000  )
        43           Fe  tau(  43) = (   0.2499978   0.7071052   0.2041376  )
        44           Fe  tau(  44) = (   0.4166652   0.4714034   0.2041376  )
        45           Fe  tau(  45) = (   0.4164663   0.8248037   0.4039055  )
        46           Fe  tau(  46) = (   0.5800715   0.5934920   0.4030364  )
        47           Fe  tau(  47) = (   1.2457669   0.7041012   0.6065939  )
        48           Fe  tau(  48) = (   0.4082550   0.4758307   0.6072775  )
        49           Fe  tau(  49) = (   0.8333315   0.5892543   0.0000000  )
        50           Fe  tau(  50) = (   0.6666652   0.4714034   0.2041376  )
        51           Fe  tau(  51) = (   1.1666640   0.8249560   0.0000000  )
        52           Fe  tau(  52) = (   0.9999978   0.7071052   0.2041376  )
        53           Fe  tau(  53) = (   0.8309418   0.5904319   0.4068368  )
        54           Fe  tau(  54) = (   0.6483004   0.4973721   0.6024232  )
        55           Fe  tau(  55) = (   1.1660042   0.8224414   0.4057891  )
        56           Fe  tau(  56) = (   0.9966937   0.6995543   0.6061145  )
        57           Fe  tau(  57) = (   0.9166640   0.8249560   0.0000000  )
        58           Fe  tau(  58) = (   1.0833315   0.5892543   0.0000000  )
        59           Fe  tau(  59) = (   0.7499978   0.7071052   0.2041376  )
        60           Fe  tau(  60) = (   0.9166652   0.4714034   0.2041376  )
        61           Fe  tau(  61) = (   0.9165456   0.8250294   0.4076429  )
        62           Fe  tau(  62) = (   1.0807468   0.5874373   0.4058584  )
        63           Fe  tau(  63) = (   0.7492890   0.7166001   0.6067028  )
        64           Fe  tau(  64) = (   0.9077833   0.4650771   0.6045057  )
        65           N   tau(  65) = (   0.7501705   0.3536255   0.6386530  )
        66           H   tau(  66) = (   0.4630012   0.8578060   0.7021866  )

     number of k points=    10  Methfessel-Paxton smearing, width (Ry)=  0.0100
                       cart. coord. in units 2pi/alat
        k(    1) = (   0.0000000   0.0000000   0.0000000), wk =   0.0625000
        k(    2) = (   0.0000000   0.2651656   0.0000000), wk =   0.1250000
        k(    3) = (   0.0000000  -0.5303313   0.0000000), wk =   0.0625000
        k(    4) = (   0.2500000  -0.0883878   0.0000000), wk =   0.1250000
        k(    5) = (   0.2500000   0.1767779   0.0000000), wk =   0.1250000
        k(    6) = (   0.2500000  -0.6187190   0.0000000), wk =   0.1250000
        k(    7) = (   0.2500000  -0.3535534   0.0000000), wk =   0.1250000
        k(    8) = (  -0.5000000   0.1767755   0.0000000), wk =   0.0625000
        k(    9) = (  -0.5000000   0.4419412   0.0000000), wk =   0.1250000
        k(   10) = (  -0.5000000  -0.3535558   0.0000000), wk =   0.0625000

     Dense  grid:  2905599 G-vectors     FFT dimensions: ( 135, 135, 360)

     Smooth grid:  1027285 G-vectors     FFT dimensions: (  96,  96, 243)

     Estimated max dynamical RAM per process >       1.01 GB

     Estimated total dynamical RAM >     161.82 GB
     Generating pointlists ...
     new r_m :   0.0737 (alat units)  1.3830 (a.u.) for type    1
     new r_m :   0.0742 (alat units)  1.3922 (a.u.) for type    2
     new r_m :   0.0737 (alat units)  1.3830 (a.u.) for type    3

     Check: negative core charge=   -0.000039

     Initial potential from superposition of free atoms

     starting charge 1029.97193, renormalised to 1030.00000

     negative rho (up, down):  2.476E-02 2.546E-03
     Starting wfcs are  837 randomized atomic wfcs
     Checking if some PAW data can be deallocated... 

     total cpu time spent up to now is       96.8 secs

     Self-consistent Calculation

     iteration #  1     ecut=    60.00 Ry     beta= 0.20
     Davidson diagonalization with overlap
     c_bands:  3 eigenvalues not converged
     ethr =  1.00E-04,  avg # of iterations = 18.4

     negative rho (up, down):  1.318E-02 3.556E-03

     total cpu time spent up to now is     1130.8 secs

     total energy              =  -21089.12511718 Ry
     Harris-Foulkes estimate   =  -21095.44997735 Ry
     estimated scf accuracy    <     306.96351034 Ry

     total magnetization       =   108.49 Bohr mag/cell
     absolute magnetization    =   109.33 Bohr mag/cell

     iteration #  2     ecut=    60.00 Ry     beta= 0.20
     Davidson diagonalization with overlap
     ethr =  1.00E-02,  avg # of iterations =  1.0

     negative rho (up, down):  1.002E-02 3.922E-02

     total cpu time spent up to now is     1288.5 secs

     total energy              =  -21092.64621066 Ry
     Harris-Foulkes estimate   =  -21094.82602083 Ry
     estimated scf accuracy    <     113.85110672 Ry

     total magnetization       =   111.38 Bohr mag/cell
     absolute magnetization    =   112.21 Bohr mag/cell

     iteration #  3     ecut=    60.00 Ry     beta= 0.20
     Davidson diagonalization with overlap
     ethr =  1.00E-02,  avg # of iterations =  1.0

     negative rho (up, down):  5.073E-03 2.023E-02

     total cpu time spent up to now is     1428.6 secs

     total energy              =  -21093.67122335 Ry
     Harris-Foulkes estimate   =  -21093.76655459 Ry
     estimated scf accuracy    <       8.29019812 Ry

     total magnetization       =   132.48 Bohr mag/cell
     absolute magnetization    =   132.92 Bohr mag/cell

     iteration #  4     ecut=    60.00 Ry     beta= 0.20
     Davidson diagonalization with overlap
     ethr =  8.05E-04,  avg # of iterations =  1.0

     negative rho (up, down):  3.332E-03 3.252E-02

     total cpu time spent up to now is     1573.0 secs

     total energy              =  -21093.71322723 Ry
     Harris-Foulkes estimate   =  -21093.76426547 Ry
     estimated scf accuracy    <      12.97280039 Ry

     total magnetization       =   139.73 Bohr mag/cell
     absolute magnetization    =   140.27 Bohr mag/cell

     iteration #  5     ecut=    60.00 Ry     beta= 0.20
     Davidson diagonalization with overlap
     ethr =  8.05E-04,  avg # of iterations =  1.0

     negative rho (up, down):  1.878E-02 1.947E-01

     total cpu time spent up to now is     1711.1 secs

     total energy              =  -21092.04513434 Ry
     Harris-Foulkes estimate   =  -21093.74900002 Ry
     estimated scf accuracy    <      13.37608484 Ry

     total magnetization       =   143.24 Bohr mag/cell
     absolute magnetization    =   143.90 Bohr mag/cell

     iteration #  6     ecut=    60.00 Ry     beta= 0.20
     Davidson diagonalization with overlap
     ethr =  8.05E-04,  avg # of iterations =  6.9

     negative rho (up, down):  4.284E-03 1.153E-01

     total cpu time spent up to now is     1945.6 secs

     total energy              =  -21093.23900336 Ry
     Harris-Foulkes estimate   =  -21093.06932891 Ry
     estimated scf accuracy    <       2.74482291 Ry

     total magnetization       =   156.51 Bohr mag/cell
     absolute magnetization    =   160.22 Bohr mag/cell

     iteration #  7     ecut=    60.00 Ry     beta= 0.20
     Davidson diagonalization with overlap
     ethr =  2.66E-04,  avg # of iterations =  7.5

     negative rho (up, down):  1.023E-03 5.619E-02

     total cpu time spent up to now is     2233.6 secs

     total energy              =  -21093.58050336 Ry
     Harris-Foulkes estimate   =  -21093.56007070 Ry
     estimated scf accuracy    <       0.59928585 Ry

     total magnetization       =   151.45 Bohr mag/cell
     absolute magnetization    =   155.12 Bohr mag/cell

     iteration #  8     ecut=    60.00 Ry     beta= 0.20
     Davidson diagonalization with overlap
     c_bands:  2 eigenvalues not converged
     ethr =  5.82E-05,  avg # of iterations = 17.1

     negative rho (up, down):  3.120E-04 2.595E-02

     total cpu time spent up to now is     3115.0 secs

     total energy              =  -21093.82378325 Ry
     Harris-Foulkes estimate   =  -21093.86740702 Ry
     estimated scf accuracy    <       0.54766932 Ry

     total magnetization       =   150.95 Bohr mag/cell
     absolute magnetization    =   156.19 Bohr mag/cell

     iteration #  9     ecut=    60.00 Ry     beta= 0.20
     Davidson diagonalization with overlap
     ethr =  5.32E-05,  avg # of iterations =  4.8

     negative rho (up, down):  1.485E-04 2.256E-02

     total cpu time spent up to now is     3319.2 secs

     total energy              =  -21093.82381018 Ry
     Harris-Foulkes estimate   =  -21093.84191744 Ry
     estimated scf accuracy    <       0.33666377 Ry

     total magnetization       =   151.29 Bohr mag/cell
     absolute magnetization    =   156.22 Bohr mag/cell

     iteration # 10     ecut=    60.00 Ry     beta= 0.20
     Davidson diagonalization with overlap
     ethr =  3.27E-05,  avg # of iterations =  4.2

     negative rho (up, down):  2.874E-04 2.615E-02

     total cpu time spent up to now is     3487.3 secs

     total energy              =  -21093.81292562 Ry
     Harris-Foulkes estimate   =  -21093.84600282 Ry
     estimated scf accuracy    <       0.42245852 Ry

     total magnetization       =   154.25 Bohr mag/cell
     absolute magnetization    =   159.02 Bohr mag/cell

     iteration # 11     ecut=    60.00 Ry     beta= 0.20
     Davidson diagonalization with overlap
     ethr =  3.27E-05,  avg # of iterations =  3.8

     negative rho (up, down):  1.619E-04 2.392E-02

     total cpu time spent up to now is     3662.0 secs

     total energy              =  -21093.83782307 Ry
     Harris-Foulkes estimate   =  -21093.84555202 Ry
     estimated scf accuracy    <       0.21362180 Ry

     total magnetization       =   158.07 Bohr mag/cell
     absolute magnetization    =   163.16 Bohr mag/cell

     iteration # 12     ecut=    60.00 Ry     beta= 0.20
     Davidson diagonalization with overlap
     ethr =  2.07E-05,  avg # of iterations =  5.2

     negative rho (up, down):  7.781E-05 2.212E-02

     total cpu time spent up to now is     3892.5 secs

     total energy              =  -21093.82946682 Ry
     Harris-Foulkes estimate   =  -21093.84485053 Ry
     estimated scf accuracy    <       0.18853285 Ry

     total magnetization       =   158.55 Bohr mag/cell
     absolute magnetization    =   163.78 Bohr mag/cell

     iteration # 13     ecut=    60.00 Ry     beta= 0.20
     Davidson diagonalization with overlap
     ethr =  1.83E-05,  avg # of iterations =  7.6

     negative rho (up, down):  5.090E-05 2.213E-02

     total cpu time spent up to now is     4183.7 secs

     total energy              =  -21093.83860994 Ry
     Harris-Foulkes estimate   =  -21093.84426973 Ry
     estimated scf accuracy    <       0.14697514 Ry

     total magnetization       =   159.45 Bohr mag/cell
     absolute magnetization    =   164.90 Bohr mag/cell

     iteration # 14     ecut=    60.00 Ry     beta= 0.20
     Davidson diagonalization with overlap
     ethr =  1.43E-05,  avg # of iterations = 14.4

     negative rho (up, down):  1.885E-03 2.382E-02

     total cpu time spent up to now is     4871.0 secs

     total energy              =  -21093.84754261 Ry
     Harris-Foulkes estimate   =  -21093.85677427 Ry
     estimated scf accuracy    <       0.08831992 Ry

     total magnetization       =   158.64 Bohr mag/cell
     absolute magnetization    =   164.05 Bohr mag/cell

     iteration # 15     ecut=    60.00 Ry     beta= 0.20
     Davidson diagonalization with overlap
     c_bands:  5 eigenvalues not converged
     ethr =  8.57E-06,  avg # of iterations = 15.3

     negative rho (up, down):  2.290E-02 2.334E-02

     total cpu time spent up to now is     5471.7 secs

     total energy              =  -21093.85820401 Ry
     Harris-Foulkes estimate   =  -21093.86135978 Ry
     estimated scf accuracy    <       0.06953241 Ry

     total magnetization       =   159.04 Bohr mag/cell
     absolute magnetization    =   164.57 Bohr mag/cell

     iteration # 16     ecut=    60.00 Ry     beta= 0.20
     Davidson diagonalization with overlap
     ethr =  6.75E-06,  avg # of iterations = 10.7

     negative rho (up, down):  8.281E-02 1.876E-02

     total cpu time spent up to now is     5889.4 secs

     total energy              =  -21093.85460493 Ry
     Harris-Foulkes estimate   =  -21093.86502087 Ry
     estimated scf accuracy    <       0.06546242 Ry

     total magnetization       =   160.22 Bohr mag/cell
     absolute magnetization    =   166.04 Bohr mag/cell

     iteration # 17     ecut=    60.00 Ry     beta= 0.20
     Davidson diagonalization with overlap
     ethr =  6.36E-06,  avg # of iterations =  6.5

     negative rho (up, down):  1.727E-01 1.889E-02

     total cpu time spent up to now is     6133.7 secs

     total energy              =  -21093.84679283 Ry
     Harris-Foulkes estimate   =  -21093.85698535 Ry
     estimated scf accuracy    <       0.06877515 Ry

     total magnetization       =   160.61 Bohr mag/cell
     absolute magnetization    =   166.46 Bohr mag/cell

     iteration # 18     ecut=    60.00 Ry     beta= 0.20
     Davidson diagonalization with overlap
     ethr =  6.36E-06,  avg # of iterations = 10.2

     negative rho (up, down):  2.229E-01 1.840E-02

     total cpu time spent up to now is     6553.4 secs

     total energy              =  -21093.83289407 Ry
     Harris-Foulkes estimate   =  -21093.84877364 Ry
     estimated scf accuracy    <       0.04963384 Ry

     total magnetization       =   160.81 Bohr mag/cell
     absolute magnetization    =   166.72 Bohr mag/cell

     iteration # 19     ecut=    60.00 Ry     beta= 0.20
     Davidson diagonalization with overlap
     ethr =  4.82E-06,  avg # of iterations = 11.8

     negative rho (up, down):  1.620E-01 1.622E-02

     total cpu time spent up to now is     7048.4 secs

     total energy              =  -21093.81182245 Ry
     Harris-Foulkes estimate   =  -21093.83691950 Ry
     estimated scf accuracy    <       0.01980001 Ry

     total magnetization       =   160.48 Bohr mag/cell
     absolute magnetization    =   166.53 Bohr mag/cell

     iteration # 20     ecut=    60.00 Ry     beta= 0.20
     Davidson diagonalization with overlap
     c_bands:  4 eigenvalues not converged
     ethr =  1.92E-06,  avg # of iterations = 27.8

     negative rho (up, down):  1.184E-01 1.681E-02

     total cpu time spent up to now is     8252.8 secs

     total energy              =  -21093.79497904 Ry
     Harris-Foulkes estimate   =  -21093.81872496 Ry
     estimated scf accuracy    <       0.01350294 Ry

     total magnetization       =   160.14 Bohr mag/cell
     absolute magnetization    =   166.67 Bohr mag/cell

     iteration # 21     ecut=    60.00 Ry     beta= 0.20
     Davidson diagonalization with overlap
     c_bands:  2 eigenvalues not converged
     ethr =  1.31E-06,  avg # of iterations = 29.5

     negative rho (up, down):  1.232E-01 1.921E-02

     total cpu time spent up to now is     9250.0 secs

     total energy              =  -21093.77496447 Ry
     Harris-Foulkes estimate   =  -21093.79659775 Ry
     estimated scf accuracy    <       0.00803518 Ry

     total magnetization       =   160.03 Bohr mag/cell
     absolute magnetization    =   166.68 Bohr mag/cell

     iteration # 22     ecut=    60.00 Ry     beta= 0.20
     Davidson diagonalization with overlap
     c_bands:  1 eigenvalues not converged
     c_bands:  1 eigenvalues not converged
     c_bands:  2 eigenvalues not converged
     ethr =  7.80E-07,  avg # of iterations = 24.9

     negative rho (up, down):  1.103E-01 2.184E-02

     total cpu time spent up to now is    10115.0 secs

     total energy              =  -21093.77533031 Ry
     Harris-Foulkes estimate   =  -21093.77634326 Ry
     estimated scf accuracy    <       0.00457476 Ry

     total magnetization       =   159.91 Bohr mag/cell
     absolute magnetization    =   166.70 Bohr mag/cell

     iteration # 23     ecut=    60.00 Ry     beta= 0.20
     Davidson diagonalization with overlap
     c_bands:  1 eigenvalues not converged
     c_bands:  1 eigenvalues not converged
     ethr =  4.44E-07,  avg # of iterations = 15.2

     negative rho (up, down):  7.592E-02 2.131E-02

     total cpu time spent up to now is    10566.7 secs

     total energy              =  -21093.77480065 Ry
     Harris-Foulkes estimate   =  -21093.77595965 Ry
     estimated scf accuracy    <       0.00287891 Ry

     total magnetization       =   159.99 Bohr mag/cell
     absolute magnetization    =   166.83 Bohr mag/cell

     iteration # 24     ecut=    60.00 Ry     beta= 0.20
     Davidson diagonalization with overlap
     c_bands:  1 eigenvalues not converged
     ethr =  2.80E-07,  avg # of iterations = 11.2

     negative rho (up, down):  4.880E-02 2.023E-02

     total cpu time spent up to now is    10865.9 secs

     total energy              =  -21093.77614008 Ry
     Harris-Foulkes estimate   =  -21093.77513451 Ry
     estimated scf accuracy    <       0.00149066 Ry

     total magnetization       =   160.05 Bohr mag/cell
     absolute magnetization    =   166.88 Bohr mag/cell

     iteration # 25     ecut=    60.00 Ry     beta= 0.20
     Davidson diagonalization with overlap
     c_bands:  2 eigenvalues not converged
     ethr =  1.45E-07,  avg # of iterations = 11.8

     negative rho (up, down):  4.037E-02 1.931E-02

     total cpu time spent up to now is    11301.7 secs

     total energy              =  -21093.77725151 Ry
     Harris-Foulkes estimate   =  -21093.77651599 Ry
     estimated scf accuracy    <       0.00075057 Ry

     total magnetization       =   160.06 Bohr mag/cell
     absolute magnetization    =   166.91 Bohr mag/cell

     iteration # 26     ecut=    60.00 Ry     beta= 0.20
     Davidson diagonalization with overlap
     c_bands:  4 eigenvalues not converged
     ethr =  7.29E-08,  avg # of iterations = 11.9

     negative rho (up, down):  3.093E-02 1.936E-02

     total cpu time spent up to now is    12514.0 secs

     total energy              =  -21093.77989573 Ry
     Harris-Foulkes estimate   =  -21093.77755640 Ry
     estimated scf accuracy    <       0.00054911 Ry

     total magnetization       =   160.14 Bohr mag/cell
     absolute magnetization    =   167.02 Bohr mag/cell

     iteration # 27     ecut=    60.00 Ry     beta= 0.20
     Davidson diagonalization with overlap
     c_bands:  4 eigenvalues not converged
     ethr =  5.33E-08,  avg # of iterations = 10.3

     negative rho (up, down):  2.556E-02 1.945E-02

     total cpu time spent up to now is    12951.6 secs

     total energy              =  -21093.78144664 Ry
     Harris-Foulkes estimate   =  -21093.77996820 Ry
     estimated scf accuracy    <       0.00024720 Ry

     total magnetization       =   160.26 Bohr mag/cell
     absolute magnetization    =   167.15 Bohr mag/cell

     iteration # 28     ecut=    60.00 Ry     beta= 0.20
     Davidson diagonalization with overlap
     c_bands:  4 eigenvalues not converged
     ethr =  2.40E-08,  avg # of iterations = 13.9

     negative rho (up, down):  2.389E-02 1.942E-02

     total cpu time spent up to now is    13713.5 secs

     total energy              =  -21093.78234482 Ry
     Harris-Foulkes estimate   =  -21093.78151448 Ry
     estimated scf accuracy    <       0.00018104 Ry

     total magnetization       =   160.33 Bohr mag/cell
     absolute magnetization    =   167.25 Bohr mag/cell

     iteration # 29     ecut=    60.00 Ry     beta= 0.20
     Davidson diagonalization with overlap
     c_bands:  3 eigenvalues not converged
     ethr =  1.76E-08,  avg # of iterations = 10.8

     negative rho (up, down):  2.365E-02 1.929E-02

     total cpu time spent up to now is    14087.2 secs

     total energy              =  -21093.78477987 Ry
     Harris-Foulkes estimate   =  -21093.78236621 Ry
     estimated scf accuracy    <       0.00013242 Ry

     total magnetization       =   160.35 Bohr mag/cell
     absolute magnetization    =   167.28 Bohr mag/cell

     iteration # 30     ecut=    60.00 Ry     beta= 0.20
     Davidson diagonalization with overlap
     c_bands:  5 eigenvalues not converged
     ethr =  1.29E-08,  avg # of iterations = 10.8

     negative rho (up, down):  2.492E-02 1.920E-02

     total cpu time spent up to now is    14794.4 secs

     total energy              =  -21093.78428570 Ry
     Harris-Foulkes estimate   =  -21093.78482799 Ry
     estimated scf accuracy    <       0.00004134 Ry

     total magnetization       =   160.37 Bohr mag/cell
     absolute magnetization    =   167.33 Bohr mag/cell

     iteration # 31     ecut=    60.00 Ry     beta= 0.20
     Davidson diagonalization with overlap
     c_bands:  5 eigenvalues not converged
     ethr =  4.01E-09,  avg # of iterations =  9.9

     negative rho (up, down):  2.547E-02 1.914E-02

     total cpu time spent up to now is    15715.8 secs

     total energy              =  -21093.78412023 Ry
     Harris-Foulkes estimate   =  -21093.78430768 Ry
     estimated scf accuracy    <       0.00002216 Ry

     total magnetization       =   160.36 Bohr mag/cell
     absolute magnetization    =   167.32 Bohr mag/cell

     iteration # 32     ecut=    60.00 Ry     beta= 0.20
     Davidson diagonalization with overlap
     c_bands:  3 eigenvalues not converged
     ethr =  2.15E-09,  avg # of iterations =  5.5

     negative rho (up, down):  2.532E-02 1.911E-02

     total cpu time spent up to now is    15983.7 secs

     total energy              =  -21093.78430121 Ry
     Harris-Foulkes estimate   =  -21093.78412180 Ry
     estimated scf accuracy    <       0.00001535 Ry

     total magnetization       =   160.36 Bohr mag/cell
     absolute magnetization    =   167.33 Bohr mag/cell

     iteration # 33     ecut=    60.00 Ry     beta= 0.20
     Davidson diagonalization with overlap
     c_bands:  4 eigenvalues not converged
     ethr =  1.49E-09,  avg # of iterations = 10.4

     negative rho (up, down):  2.477E-02 1.918E-02

     total cpu time spent up to now is    16452.8 secs

     total energy              =  -21093.78492442 Ry
     Harris-Foulkes estimate   =  -21093.78430440 Ry
     estimated scf accuracy    <       0.00000849 Ry

     total magnetization       =   160.37 Bohr mag/cell
     absolute magnetization    =   167.35 Bohr mag/cell

     iteration # 34     ecut=    60.00 Ry     beta= 0.20
     Davidson diagonalization with overlap
     c_bands:  4 eigenvalues not converged
     ethr =  8.24E-10,  avg # of iterations = 11.4

     negative rho (up, down):  2.458E-02 1.919E-02

     total cpu time spent up to now is    17068.1 secs

     total energy              =  -21093.78501690 Ry
     Harris-Foulkes estimate   =  -21093.78492739 Ry
     estimated scf accuracy    <       0.00000330 Ry

     total magnetization       =   160.38 Bohr mag/cell
     absolute magnetization    =   167.36 Bohr mag/cell

     iteration # 35     ecut=    60.00 Ry     beta= 0.20
     Davidson diagonalization with overlap
     c_bands:  3 eigenvalues not converged
     ethr =  3.21E-10,  avg # of iterations =  9.8

     negative rho (up, down):  2.429E-02 1.920E-02

     total cpu time spent up to now is    17821.6 secs

     total energy              =  -21093.78526611 Ry
     Harris-Foulkes estimate   =  -21093.78501794 Ry
     estimated scf accuracy    <       0.00000193 Ry

     total magnetization       =   160.39 Bohr mag/cell
     absolute magnetization    =   167.37 Bohr mag/cell

     iteration # 36     ecut=    60.00 Ry     beta= 0.20
     Davidson diagonalization with overlap
     c_bands:  3 eigenvalues not converged
     ethr =  1.87E-10,  avg # of iterations =  8.2

     negative rho (up, down):  2.463E-02 1.922E-02

     total cpu time spent up to now is    18244.2 secs

     total energy              =  -21093.78513384 Ry
     Harris-Foulkes estimate   =  -21093.78526651 Ry
     estimated scf accuracy    <       0.00000120 Ry

     total magnetization       =   160.39 Bohr mag/cell
     absolute magnetization    =   167.37 Bohr mag/cell

     iteration # 37     ecut=    60.00 Ry     beta= 0.20
     Davidson diagonalization with overlap
     c_bands:  3 eigenvalues not converged
     c_bands:  3 eigenvalues not converged
     ethr =  1.17E-10,  avg # of iterations =  9.5

     negative rho (up, down):  2.476E-02 1.923E-02

     total cpu time spent up to now is    19521.1 secs

     total energy              =  -21093.78510572 Ry
     Harris-Foulkes estimate   =  -21093.78513429 Ry
     estimated scf accuracy    <       0.00000053 Ry

     total magnetization       =   160.39 Bohr mag/cell
     absolute magnetization    =   167.38 Bohr mag/cell

     iteration # 38     ecut=    60.00 Ry     beta= 0.20
     Davidson diagonalization with overlap
     c_bands:  1 eigenvalues not converged
     ethr =  5.12E-11,  avg # of iterations =  9.8

     negative rho (up, down):  2.488E-02 1.923E-02

     total cpu time spent up to now is    19867.2 secs

     total energy              =  -21093.78507969 Ry
     Harris-Foulkes estimate   =  -21093.78510579 Ry
     estimated scf accuracy    <       0.00000023 Ry

     total magnetization       =   160.39 Bohr mag/cell
     absolute magnetization    =   167.38 Bohr mag/cell

     iteration # 39     ecut=    60.00 Ry     beta= 0.20
     Davidson diagonalization with overlap
     ethr =  2.27E-11,  avg # of iterations = 15.1

     negative rho (up, down):  2.493E-02 1.922E-02

     total cpu time spent up to now is    20863.7 secs

     total energy              =  -21093.78504248 Ry
     Harris-Foulkes estimate   =  -21093.78507980 Ry
     estimated scf accuracy    <       0.00000014 Ry

     total magnetization       =   160.39 Bohr mag/cell
     absolute magnetization    =   167.38 Bohr mag/cell

     iteration # 40     ecut=    60.00 Ry     beta= 0.20
     Davidson diagonalization with overlap
     ethr =  1.34E-11,  avg # of iterations = 12.3

     negative rho (up, down):  2.497E-02 1.924E-02

     total cpu time spent up to now is    21303.1 secs

     total energy              =  -21093.78501085 Ry
     Harris-Foulkes estimate   =  -21093.78504250 Ry
     estimated scf accuracy    <       0.00000010 Ry

     total magnetization       =   160.39 Bohr mag/cell
     absolute magnetization    =   167.38 Bohr mag/cell

     iteration # 41     ecut=    60.00 Ry     beta= 0.20
     Davidson diagonalization with overlap
     ethr =  1.00E-11,  avg # of iterations =  6.2

     negative rho (up, down):  2.502E-02 1.925E-02

     total cpu time spent up to now is    21556.6 secs

     total energy              =  -21093.78499625 Ry
     Harris-Foulkes estimate   =  -21093.78501086 Ry
     estimated scf accuracy    <       0.00000006 Ry

     total magnetization       =   160.39 Bohr mag/cell
     absolute magnetization    =   167.38 Bohr mag/cell

     iteration # 42     ecut=    60.00 Ry     beta= 0.20
     Davidson diagonalization with overlap
     ethr =  5.42E-12,  avg # of iterations =  9.8

     negative rho (up, down):  2.507E-02 1.926E-02

     total cpu time spent up to now is    21844.0 secs

     total energy              =  -21093.78500260 Ry
     Harris-Foulkes estimate   =  -21093.78499626 Ry
     estimated scf accuracy    <       0.00000003 Ry

     total magnetization       =   160.39 Bohr mag/cell
     absolute magnetization    =   167.37 Bohr mag/cell

     iteration # 43     ecut=    60.00 Ry     beta= 0.20
     Davidson diagonalization with overlap
     ethr =  2.61E-12,  avg # of iterations = 10.0

     negative rho (up, down):  2.505E-02 1.926E-02

     total cpu time spent up to now is    22437.9 secs

     total energy              =  -21093.78500821 Ry
     Harris-Foulkes estimate   =  -21093.78500262 Ry
     estimated scf accuracy    <       0.00000002 Ry

     total magnetization       =   160.39 Bohr mag/cell
     absolute magnetization    =   167.37 Bohr mag/cell

     iteration # 44     ecut=    60.00 Ry     beta= 0.20
     Davidson diagonalization with overlap
     ethr =  2.37E-12,  avg # of iterations =  5.0

     negative rho (up, down):  2.506E-02 1.926E-02

     Magnetic moment per site:
     atom:    1    charge:   12.5876    magn:    2.3564    constr:    0.0000
     atom:    2    charge:   12.5783    magn:    2.1656    constr:    0.0000
     atom:    3    charge:   12.5871    magn:    2.3570    constr:    0.0000
     atom:    4    charge:   12.5763    magn:    2.2038    constr:    0.0000
     atom:    5    charge:   12.5807    magn:    2.2032    constr:    0.0000
     atom:    6    charge:   12.5828    magn:    2.2244    constr:    0.0000
     atom:    7    charge:   12.5766    magn:    2.2557    constr:    0.0000
     atom:    8    charge:   12.5858    magn:    2.3656    constr:    0.0000
     atom:    9    charge:   12.5879    magn:    2.3500    constr:    0.0000
     atom:   10    charge:   12.5878    magn:    2.3543    constr:    0.0000
     atom:   11    charge:   12.5770    magn:    2.2089    constr:    0.0000
     atom:   12    charge:   12.5776    magn:    2.1956    constr:    0.0000
     atom:   13    charge:   12.5770    magn:    2.2039    constr:    0.0000
     atom:   14    charge:   12.5807    magn:    2.1716    constr:    0.0000
     atom:   15    charge:   12.5902    magn:    2.3365    constr:    0.0000
     atom:   16    charge:   12.5866    magn:    2.2235    constr:    0.0000
     atom:   17    charge:   12.5869    magn:    2.3569    constr:    0.0000
     atom:   18    charge:   12.5764    magn:    2.2039    constr:    0.0000
     atom:   19    charge:   12.5871    magn:    2.3577    constr:    0.0000
     atom:   20    charge:   12.5759    magn:    2.2269    constr:    0.0000
     atom:   21    charge:   12.5768    magn:    2.2554    constr:    0.0000
     atom:   22    charge:   12.5857    magn:    2.3657    constr:    0.0000
     atom:   23    charge:   12.5772    magn:    2.2501    constr:    0.0000
     atom:   24    charge:   12.5955    magn:    1.6473    constr:    0.0000
     atom:   25    charge:   12.5874    magn:    2.3633    constr:    0.0000
     atom:   26    charge:   12.5871    magn:    2.3576    constr:    0.0000
     atom:   27    charge:   12.5761    magn:    2.2223    constr:    0.0000
     atom:   28    charge:   12.5768    magn:    2.2070    constr:    0.0000
     atom:   29    charge:   12.5779    magn:    2.2817    constr:    0.0000
     atom:   30    charge:   12.5805    magn:    2.0653    constr:    0.0000
     atom:   31    charge:   12.5841    magn:    2.1318    constr:    0.0000
     atom:   32    charge:   12.5894    magn:    2.3386    constr:    0.0000
     atom:   33    charge:   12.5876    magn:    2.3576    constr:    0.0000
     atom:   34    charge:   12.5763    magn:    2.1991    constr:    0.0000
     atom:   35    charge:   12.5876    magn:    2.3564    constr:    0.0000
     atom:   36    charge:   12.5783    magn:    2.1656    constr:    0.0000
     atom:   37    charge:   12.5803    magn:    2.1930    constr:    0.0000
     atom:   38    charge:   12.5876    magn:    2.3460    constr:    0.0000
     atom:   39    charge:   12.5806    magn:    2.2032    constr:    0.0000
     atom:   40    charge:   12.5823    magn:    2.2252    constr:    0.0000
     atom:   41    charge:   12.5878    magn:    2.3591    constr:    0.0000
     atom:   42    charge:   12.5875    magn:    2.3577    constr:    0.0000
     atom:   43    charge:   12.5772    magn:    2.1993    constr:    0.0000
     atom:   44    charge:   12.5770    magn:    2.2071    constr:    0.0000
     atom:   45    charge:   12.5807    magn:    2.1566    constr:    0.0000
     atom:   46    charge:   12.5809    magn:    2.0655    constr:    0.0000
     atom:   47    charge:   12.5890    magn:    2.3601    constr:    0.0000
     atom:   48    charge:   12.5893    magn:    2.3387    constr:    0.0000
     atom:   49    charge:   12.5873    magn:    2.3578    constr:    0.0000
     atom:   50    charge:   12.5764    magn:    2.2272    constr:    0.0000
     atom:   51    charge:   12.5876    magn:    2.3576    constr:    0.0000
     atom:   52    charge:   12.5763    magn:    2.1990    constr:    0.0000
     atom:   53    charge:   12.5769    magn:    2.2503    constr:    0.0000
     atom:   54    charge:   12.5952    magn:    1.6472    constr:    0.0000
     atom:   55    charge:   12.5807    magn:    2.1930    constr:    0.0000
     atom:   56    charge:   12.5877    magn:    2.3459    constr:    0.0000
     atom:   57    charge:   12.5879    magn:    2.3500    constr:    0.0000
     atom:   58    charge:   12.5876    magn:    2.3553    constr:    0.0000
     atom:   59    charge:   12.5772    magn:    2.2090    constr:    0.0000
     atom:   60    charge:   12.5761    magn:    2.2215    constr:    0.0000
     atom:   61    charge:   12.5771    magn:    2.2039    constr:    0.0000
     atom:   62    charge:   12.5805    magn:    2.1829    constr:    0.0000
     atom:   63    charge:   12.5902    magn:    2.3366    constr:    0.0000
     atom:   64    charge:   12.5835    magn:    2.1367    constr:    0.0000
     atom:   65    charge:    3.7469    magn:   -0.1346    constr:    0.0000
     atom:   66    charge:    0.9773    magn:   -0.0240    constr:    0.0000

     total cpu time spent up to now is    22647.0 secs

     End of self-consistent calculation

 ------ SPIN UP ------------


          k = 0.0000 0.0000 0.0000 (128403 PWs)   bands (ev):

   -95.2307 -95.1681 -95.1618 -95.1403 -95.1353 -95.1343 -95.1303 -95.1251
   -95.1207 -95.1173 -95.1158 -95.1155 -95.1130 -95.1112 -95.1105 -95.1075
   -95.1045 -95.1040 -95.1037 -95.1008 -95.0997 -95.0981 -95.0902 -95.0898
   -95.0887 -95.0885 -95.0861 -95.0834 -95.0794 -95.0716 -95.0581 -95.0557
   -95.0498 -95.0471 -95.0398 -95.0077 -94.9991 -94.9965 -94.9865 -94.9861
   -94.9833 -94.9799 -94.9788 -94.9724 -94.9702 -94.9685 -94.9681 -94.9663
   -94.9648 -94.9606 -94.9592 -94.9578 -94.9575 -94.9544 -94.9540 -94.9534
   -94.9472 -94.9463 -94.9415 -94.9395 -94.9331 -94.9298 -94.9268 -94.9204
   -61.4094 -61.3591 -61.3404 -61.3369 -61.3334 -61.3330 -61.3276 -61.3237
   -61.3212 -61.3150 -61.3148 -61.3135 -61.3085 -61.3073 -61.3035 -61.3020
   -61.2998 -61.2981 -61.2917 -61.2896 -61.2894 -61.2889 -61.2886 -61.2877
   -61.2826 -61.2795 -61.2768 -61.2755 -61.2709 -61.2698 -61.2683 -61.2673
   -61.2641 -61.2613 -61.2547 -61.2545 -61.2461 -61.2444 -61.2441 -61.2422
   -61.2354 -61.2307 -61.2217 -61.2184 -61.2174 -61.2165 -61.2144 -61.2071
   -61.2024 -61.1981 -61.1901 -61.1822 -61.1779 -61.1736 -61.1665 -61.1657
   -61.1635 -61.1604 -61.1586 -61.1571 -61.1527 -61.1504 -61.1482 -61.1480
   -61.1462 -61.1419 -61.1409 -61.1385 -61.1384 -61.1357 -61.1335 -61.1290
   -61.1255 -61.1213 -61.1147 -61.1094 -61.1091 -61.1068 -61.1055 -61.0985
   -61.0982 -61.0979 -61.0921 -61.0882 -61.0866 -61.0849 -61.0832 -61.0832
   -61.0818 -61.0811 -61.0793 -61.0771 -61.0770 -61.0743 -61.0741 -61.0733
   -61.0726 -61.0700 -61.0672 -61.0668 -61.0643 -61.0628 -61.0623 -61.0561
   -61.0556 -61.0529 -61.0480 -61.0457 -61.0430 -61.0409 -61.0398 -61.0394
   -61.0353 -61.0315 -61.0295 -61.0272 -61.0255 -61.0217 -61.0203 -61.0193
   -61.0162 -61.0151 -61.0146 -61.0124 -61.0109 -61.0055 -61.0051 -61.0034
   -61.0023 -61.0018 -60.9997 -60.9975 -60.9951 -60.9939 -60.9936 -60.9891
   -60.9820 -60.9806 -60.9778 -60.9775 -60.9726 -60.9709 -60.9680 -60.9636
   -60.9631 -60.9624 -60.9613 -60.9571 -60.9537 -60.9533 -60.9528 -60.9496
   -60.9482 -60.9481 -60.9473 -60.9421 -60.9414 -60.9399 -60.9350 -60.9312
   -60.9281 -60.9276 -60.9272 -60.9260 -60.9252 -60.9219 -60.9149 -60.9122
   -60.9108 -60.9081 -60.9060 -60.8979 -60.8970 -60.8941 -60.8918 -60.8901
   -60.8852 -60.8812 -60.8772 -60.8736 -60.8736 -60.8711 -60.8706 -60.8706
   -60.8628 -60.8623 -60.8608 -60.8578 -60.8574 -60.8533 -60.7941 -60.7930
   -22.5532 -14.9120 -13.8963 -13.6010 -13.5490 -13.3550 -13.2210 -13.1174
   -13.0324 -13.0264 -12.7746 -12.7085 -12.4349 -12.2409 -12.1625 -12.0988
   -12.0803 -11.9087 -11.8134 -11.7778 -11.6632 -11.6137 -11.5832 -11.5774
   -11.5504 -11.5155 -11.5089 -11.4875 -11.4311 -11.3424 -11.1990 -11.1521
   -11.1177 -11.1064 -11.0937 -11.0668 -11.0537 -11.0479 -11.0394 -11.0277
   -11.0213 -11.0178 -11.0129 -11.0085 -10.9986 -10.9943 -10.9903 -10.9792
   -10.9563 -10.9507 -10.9498 -10.9467 -10.9276 -10.9234 -10.9038 -10.8818
   -10.8796 -10.8419 -10.8328 -10.7685 -10.7675 -10.7550 -10.7501 -10.6796
   -10.6782 -10.5871 -10.5039 -10.4881 -10.4651 -10.4472 -10.4361 -10.4310
   -10.4224 -10.4012 -10.3626 -10.2889 -10.2824 -10.2770 -10.2715 -10.2666
   -10.2596 -10.2585 -10.2547 -10.2351 -10.2194 -10.2169 -10.2165 -10.2115
   -10.2101 -10.1954 -10.1849 -10.1809 -10.1727 -10.1705 -10.1644 -10.1540
   -10.1341 -10.1319 -10.1211 -10.1138 -10.1130 -10.1107 -10.1045 -10.0984
   -10.0889 -10.0824 -10.0720 -10.0643 -10.0524 -10.0388  -9.9784  -9.9734
    -9.9689  -9.9046  -9.9031  -9.8998  -9.8946  -9.8622  -9.8307  -9.8159
    -9.8043  -9.7759  -9.7379  -9.7114  -9.6995  -9.6888  -9.6781  -9.6773
    -9.6697  -9.6694  -9.6551  -9.6404  -9.6103  -9.5980  -9.5761  -9.5747
    -9.5660  -9.5637  -9.5563  -9.5475  -9.5411  -9.5387  -9.5356  -9.5276
    -9.5108  -9.4798  -9.4618  -9.4319  -9.4130  -9.3806  -9.3781  -9.3764
    -9.3728  -9.3689  -9.3575  -9.3481  -9.3298  -9.3208  -9.3048  -9.2839
    -9.2636  -9.2522  -9.2480  -9.2466  -9.2405  -9.2392  -9.2380  -9.2269
    -9.2208  -9.1742  -9.1597  -9.1476  -9.1375  -9.1328  -9.1234  -9.1180
    -9.1151  -9.0971  -9.0962  -9.0893  -9.0864  -9.0817  -9.0758  -9.0639
    -9.0422  -9.0119  -8.9935  -8.9722  -8.8576  -8.8469  -8.7373  -8.7231
    -8.6126  -8.5970  -8.5800  -8.5787  -8.5772  -8.5653  -8.5577  -8.5537
    -8.5490  -8.5407  -8.5265  -8.5219  -8.5209  -8.5088  -8.4768  -8.4671
    -8.4576  -8.4376  -8.4344  -8.4168  -8.4147  -8.4060  -8.3933  -8.3857
    -8.3832  -8.3761  -8.3658  -8.3622  -8.3584  -8.3440  -8.3375  -8.3330
    -8.3263  -8.3118  -8.3048  -8.2937  -8.2679  -8.2571  -8.2558  -8.2519
    -8.2392  -8.2320  -8.2299  -8.2281  -8.2235  -8.2031  -8.2011  -8.1977
    -8.1921  -8.1918  -8.1835  -8.1755  -8.1740  -8.1672  -8.1565  -8.1493
    -8.1465  -8.1452  -8.1396  -8.1389  -8.1370  -8.1323  -8.1250  -8.1235
    -8.1214  -8.1173  -8.1065  -8.1034  -8.0870  -8.0853  -8.0849  -8.0768
    -8.0745  -8.0584  -8.0529  -8.0428  -8.0395  -8.0357  -8.0352  -8.0284
    -8.0239  -8.0226  -8.0169  -8.0136  -7.9949  -7.9927  -7.9718  -7.9648
    -7.9483  -7.9355  -7.9299  -7.9230  -7.9176  -7.9110  -7.9039  -7.9000
    -7.8945  -7.8842  -7.8705  -7.8674  -7.8079  -7.7889  -7.7706  -7.7701
    -7.7646  -7.7615  -7.7562  -7.7547  -7.7513  -7.7390  -7.7232  -7.7231
    -7.7182  -7.7054  -7.7052  -7.6963  -7.6863  -7.6854  -7.6597  -7.6564
    -7.6540  -7.6060  -7.5927  -7.4224  -7.3278  -7.3205  -7.2801  -7.2653
    -7.2614  -7.2369  -7.1722  -7.1661  -7.1427  -7.1083  -7.0999  -7.0940
    -7.0807  -7.0241  -7.0228  -7.0211  -6.9877  -6.9716  -6.9572  -6.9438
    -6.9349  -6.9131  -6.8860  -6.8306  -6.8039  -6.7902  -6.7484  -6.6977
    -6.6794  -6.4570  -6.3411  -6.2540  -6.1180  -6.0503  -5.9642  -5.9428
    -5.9345  -5.8870  -5.6012  -5.3880  -5.3398  -5.2583  -5.1229  -5.0911
    -5.0745  -5.0391

          k = 0.0000 0.2652 0.0000 (128375 PWs)   bands (ev):

   -95.2307 -95.1681 -95.1618 -95.1401 -95.1348 -95.1342 -95.1306 -95.1245
   -95.1241 -95.1169 -95.1168 -95.1145 -95.1114 -95.1104 -95.1098 -95.1078
   -95.1068 -95.1054 -95.1037 -95.0990 -95.0980 -95.0974 -95.0908 -95.0898
   -95.0896 -95.0888 -95.0866 -95.0829 -95.0783 -95.0724 -95.0580 -95.0558
   -95.0498 -95.0470 -95.0398 -95.0070 -95.0013 -94.9943 -94.9892 -94.9852
   -94.9829 -94.9812 -94.9763 -94.9723 -94.9703 -94.9690 -94.9681 -94.9664
   -94.9645 -94.9618 -94.9594 -94.9585 -94.9557 -94.9545 -94.9534 -94.9527
   -94.9485 -94.9463 -94.9426 -94.9391 -94.9319 -94.9299 -94.9266 -94.9211
   -61.4093 -61.3566 -61.3434 -61.3364 -61.3355 -61.3316 -61.3272 -61.3228
   -61.3200 -61.3156 -61.3144 -61.3118 -61.3104 -61.3081 -61.3023 -61.3003
   -61.2999 -61.2961 -61.2931 -61.2925 -61.2879 -61.2872 -61.2860 -61.2839
   -61.2828 -61.2793 -61.2777 -61.2759 -61.2723 -61.2701 -61.2692 -61.2671
   -61.2627 -61.2581 -61.2559 -61.2493 -61.2445 -61.2415 -61.2396 -61.2357
   -61.2332 -61.2299 -61.2266 -61.2178 -61.2169 -61.2130 -61.2114 -61.2063
   -61.2038 -61.1937 -61.1923 -61.1841 -61.1830 -61.1751 -61.1730 -61.1694
   -61.1657 -61.1635 -61.1606 -61.1568 -61.1551 -61.1544 -61.1480 -61.1463
   -61.1442 -61.1426 -61.1406 -61.1391 -61.1379 -61.1341 -61.1333 -61.1325
   -61.1310 -61.1292 -61.1253 -61.1227 -61.1190 -61.1136 -61.1116 -61.1080
   -61.1069 -61.1038 -61.1023 -61.0974 -61.0944 -61.0900 -61.0884 -61.0875
   -61.0861 -61.0834 -61.0807 -61.0759 -61.0737 -61.0712 -61.0692 -61.0680
   -61.0662 -61.0627 -61.0617 -61.0602 -61.0580 -61.0542 -61.0528 -61.0508
   -61.0492 -61.0459 -61.0447 -61.0438 -61.0417 -61.0399 -61.0396 -61.0374
   -61.0349 -61.0336 -61.0320 -61.0295 -61.0258 -61.0243 -61.0228 -61.0198
   -61.0174 -61.0144 -61.0128 -61.0083 -61.0080 -61.0053 -61.0030 -61.0015
   -61.0002 -60.9979 -60.9951 -60.9912 -60.9904 -60.9892 -60.9859 -60.9837
   -60.9807 -60.9777 -60.9764 -60.9715 -60.9706 -60.9684 -60.9677 -60.9647
   -60.9631 -60.9611 -60.9598 -60.9557 -60.9542 -60.9534 -60.9509 -60.9492
   -60.9481 -60.9446 -60.9438 -60.9421 -60.9403 -60.9392 -60.9368 -60.9333
   -60.9317 -60.9298 -60.9275 -60.9259 -60.9247 -60.9184 -60.9163 -60.9115
   -60.9066 -60.9055 -60.9052 -60.8992 -60.8964 -60.8943 -60.8918 -60.8900
   -60.8859 -60.8848 -60.8798 -60.8786 -60.8761 -60.8753 -60.8729 -60.8703
   -60.8677 -60.8661 -60.8646 -60.8600 -60.8587 -60.8548 -60.7946 -60.7935
   -22.5532 -14.8057 -14.0451 -13.7465 -13.5692 -13.3889 -13.2808 -13.1864
   -13.0056 -12.8413 -12.6584 -12.5275 -12.4087 -12.2585 -12.1539 -12.0880
   -11.9421 -11.8858 -11.8382 -11.7434 -11.6737 -11.6243 -11.5817 -11.5307
   -11.5212 -11.4988 -11.4772 -11.4625 -11.4164 -11.3754 -11.2965 -11.2351
   -11.2053 -11.1827 -11.1583 -11.1530 -11.1388 -11.1347 -11.1141 -11.1063
   -11.0911 -11.0644 -11.0580 -11.0402 -11.0310 -11.0072 -10.9939 -10.9789
   -10.9565 -10.9501 -10.9366 -10.9278 -10.9182 -10.8825 -10.8652 -10.8586
   -10.8553 -10.8476 -10.8204 -10.7818 -10.7304 -10.7206 -10.6864 -10.6748
   -10.6322 -10.6152 -10.5752 -10.5537 -10.5231 -10.4877 -10.4573 -10.4112
   -10.3926 -10.3826 -10.3605 -10.3333 -10.2952 -10.2873 -10.2725 -10.2679
   -10.2584 -10.2464 -10.2434 -10.2318 -10.2248 -10.2190 -10.2065 -10.1942
   -10.1864 -10.1761 -10.1693 -10.1669 -10.1523 -10.1483 -10.1392 -10.1353
   -10.1281 -10.1222 -10.1200 -10.1103 -10.1076 -10.0845 -10.0789 -10.0516
   -10.0312 -10.0275 -10.0217 -10.0110 -10.0051  -9.9965  -9.9777  -9.9683
    -9.9556  -9.9443  -9.9396  -9.8878  -9.8603  -9.8462  -9.8370  -9.8247
    -9.8020  -9.7858  -9.7714  -9.7500  -9.7320  -9.7079  -9.6810  -9.6716
    -9.6663  -9.6504  -9.6425  -9.6359  -9.6326  -9.6167  -9.6107  -9.6058
    -9.5860  -9.5791  -9.5678  -9.5580  -9.5527  -9.5448  -9.5335  -9.5199
    -9.5040  -9.4879  -9.4569  -9.4418  -9.4312  -9.4012  -9.3945  -9.3907
    -9.3801  -9.3656  -9.3557  -9.3524  -9.3482  -9.3395  -9.3323  -9.3216
    -9.3136  -9.3083  -9.2956  -9.2883  -9.2680  -9.2629  -9.2245  -9.2061
    -9.1917  -9.1820  -9.1785  -9.1649  -9.1403  -9.1304  -9.1099  -9.0969
    -9.0849  -9.0788  -9.0661  -9.0330  -9.0256  -9.0084  -8.9752  -8.9681
    -8.9552  -8.9165  -8.9002  -8.8847  -8.8421  -8.7441  -8.7309  -8.6997
    -8.6868  -8.6750  -8.6521  -8.6300  -8.6172  -8.6097  -8.5914  -8.5693
    -8.5562  -8.5442  -8.5341  -8.5296  -8.5158  -8.5123  -8.5008  -8.4954
    -8.4839  -8.4639  -8.4605  -8.4461  -8.4314  -8.4250  -8.4171  -8.3910
    -8.3849  -8.3798  -8.3715  -8.3559  -8.3490  -8.3362  -8.3277  -8.3259
    -8.3213  -8.3137  -8.2980  -8.2752  -8.2683  -8.2624  -8.2548  -8.2395
    -8.2392  -8.2339  -8.2290  -8.2193  -8.2147  -8.2094  -8.2069  -8.1989
    -8.1951  -8.1860  -8.1762  -8.1725  -8.1618  -8.1537  -8.1486  -8.1405
    -8.1364  -8.1348  -8.1244  -8.1166  -8.1129  -8.1085  -8.1048  -8.0980
    -8.0922  -8.0863  -8.0797  -8.0746  -8.0626  -8.0556  -8.0544  -8.0496
    -8.0415  -8.0385  -8.0336  -8.0313  -8.0277  -8.0198  -8.0169  -8.0063
    -8.0009  -7.9967  -7.9872  -7.9767  -7.9656  -7.9616  -7.9448  -7.9424
    -7.9319  -7.9046  -7.8980  -7.8921  -7.8845  -7.8788  -7.8716  -7.8570
    -7.8529  -7.8427  -7.8351  -7.8303  -7.8213  -7.8178  -7.8014  -7.7863
    -7.7684  -7.7647  -7.7613  -7.7536  -7.7457  -7.7330  -7.7264  -7.7247
    -7.7130  -7.7052  -7.6845  -7.6713  -7.6528  -7.6172  -7.6050  -7.5775
    -7.5639  -7.5460  -7.4467  -7.4015  -7.3782  -7.3573  -7.3253  -7.3089
    -7.2965  -7.2734  -7.2478  -7.2295  -7.2121  -7.1794  -7.1669  -7.1569
    -7.1445  -7.1280  -7.1121  -7.1050  -7.0899  -7.0823  -7.0568  -7.0430
    -7.0251  -6.9759  -6.9554  -6.9333  -6.8990  -6.8454  -6.7501  -6.5538
    -6.4917  -6.4190  -6.3559  -6.3049  -6.1840  -6.0551  -6.0102  -5.9741
    -5.9132  -5.7194  -5.6841  -5.6570  -5.6228  -5.5157  -5.4223  -5.3085
    -5.2245  -5.1719

          k = 0.0000-0.5303 0.0000 (128388 PWs)   bands (ev):

   -95.2307 -95.1681 -95.1618 -95.1397 -95.1354 -95.1322 -95.1309 -95.1275
   -95.1239 -95.1179 -95.1159 -95.1126 -95.1116 -95.1115 -95.1094 -95.1088
   -95.1060 -95.1055 -95.1039 -95.1001 -95.0955 -95.0952 -95.0926 -95.0912
   -95.0898 -95.0890 -95.0855 -95.0838 -95.0763 -95.0738 -95.0579 -95.0559
   -95.0498 -95.0470 -95.0399 -95.0056 -95.0035 -94.9924 -94.9901 -94.9863
   -94.9842 -94.9801 -94.9733 -94.9720 -94.9710 -94.9694 -94.9690 -94.9666
   -94.9649 -94.9625 -94.9595 -94.9575 -94.9559 -94.9548 -94.9523 -94.9516
   -94.9500 -94.9464 -94.9436 -94.9388 -94.9307 -94.9301 -94.9261 -94.9219
   -61.4091 -61.3509 -61.3497 -61.3368 -61.3355 -61.3311 -61.3267 -61.3218
   -61.3187 -61.3162 -61.3140 -61.3131 -61.3101 -61.3078 -61.3023 -61.2988
   -61.2976 -61.2966 -61.2943 -61.2913 -61.2880 -61.2849 -61.2832 -61.2829
   -61.2820 -61.2798 -61.2778 -61.2767 -61.2737 -61.2712 -61.2689 -61.2670
   -61.2603 -61.2580 -61.2568 -61.2437 -61.2379 -61.2363 -61.2332 -61.2306
   -61.2301 -61.2289 -61.2280 -61.2277 -61.2172 -61.2096 -61.2058 -61.2034
   -61.1969 -61.1944 -61.1935 -61.1894 -61.1884 -61.1804 -61.1753 -61.1744
   -61.1742 -61.1699 -61.1670 -61.1586 -61.1565 -61.1556 -61.1520 -61.1493
   -61.1453 -61.1419 -61.1414 -61.1382 -61.1377 -61.1358 -61.1342 -61.1329
   -61.1313 -61.1256 -61.1244 -61.1217 -61.1209 -61.1197 -61.1161 -61.1160
   -61.1104 -61.1095 -61.1075 -61.1051 -61.1034 -61.1010 -61.0976 -61.0938
   -61.0898 -61.0893 -61.0844 -61.0776 -61.0739 -61.0713 -61.0688 -61.0668
   -61.0622 -61.0613 -61.0595 -61.0589 -61.0562 -61.0536 -61.0518 -61.0495
   -61.0482 -61.0454 -61.0411 -61.0384 -61.0379 -61.0372 -61.0345 -61.0324
   -61.0305 -61.0257 -61.0245 -61.0239 -61.0216 -61.0197 -61.0170 -61.0154
   -61.0129 -61.0107 -61.0094 -61.0082 -61.0067 -61.0046 -61.0025 -61.0010
   -60.9998 -60.9975 -60.9949 -60.9911 -60.9892 -60.9856 -60.9831 -60.9820
   -60.9804 -60.9786 -60.9755 -60.9737 -60.9724 -60.9711 -60.9670 -60.9649
   -60.9634 -60.9565 -60.9552 -60.9550 -60.9534 -60.9512 -60.9489 -60.9485
   -60.9460 -60.9442 -60.9441 -60.9422 -60.9406 -60.9392 -60.9360 -60.9346
   -60.9294 -60.9285 -60.9263 -60.9225 -60.9187 -60.9174 -60.9138 -60.9097
   -60.9051 -60.9043 -60.9014 -60.8973 -60.8960 -60.8931 -60.8923 -60.8911
   -60.8887 -60.8879 -60.8846 -60.8840 -60.8822 -60.8800 -60.8794 -60.8741
   -60.8727 -60.8697 -60.8682 -60.8613 -60.8589 -60.8555 -60.7952 -60.7939
   -22.5531 -14.5634 -14.4059 -13.7827 -13.5658 -13.3601 -13.2711 -13.1467
   -13.1244 -12.7905 -12.6829 -12.3803 -12.3412 -12.1722 -12.1130 -11.9104
   -11.8759 -11.8167 -11.7964 -11.7460 -11.7077 -11.6371 -11.5897 -11.5665
   -11.5384 -11.4558 -11.4387 -11.3938 -11.3908 -11.3814 -11.3689 -11.3553
   -11.3478 -11.3274 -11.3225 -11.2915 -11.2860 -11.2194 -11.1781 -11.1593
   -11.0871 -11.0599 -11.0279 -11.0174 -11.0116 -10.9817 -10.9788 -10.9268
   -10.9219 -10.9192 -10.9115 -10.9079 -10.8980 -10.8919 -10.8881 -10.8633
   -10.8393 -10.7950 -10.7863 -10.7576 -10.7409 -10.7360 -10.6938 -10.6759
   -10.6600 -10.6406 -10.6018 -10.5939 -10.5533 -10.5325 -10.5112 -10.4997
   -10.4793 -10.3960 -10.3675 -10.3075 -10.3001 -10.2712 -10.2653 -10.2619
   -10.2591 -10.2477 -10.2236 -10.2188 -10.2107 -10.2028 -10.1936 -10.1889
   -10.1836 -10.1738 -10.1631 -10.1594 -10.1537 -10.1481 -10.1372 -10.1173
   -10.1023 -10.0850 -10.0645 -10.0557 -10.0519 -10.0273 -10.0143 -10.0089
    -9.9984  -9.9863  -9.9774  -9.9734  -9.9668  -9.9642  -9.9592  -9.9452
    -9.9394  -9.9296  -9.9231  -9.9102  -9.9057  -9.8971  -9.8772  -9.8669
    -9.8515  -9.7813  -9.7564  -9.7218  -9.6967  -9.6719  -9.6655  -9.6587
    -9.6466  -9.6385  -9.6381  -9.6308  -9.6273  -9.6202  -9.6065  -9.6030
    -9.5989  -9.5921  -9.5902  -9.5873  -9.5849  -9.5784  -9.5638  -9.5431
    -9.5392  -9.5189  -9.5035  -9.5028  -9.4795  -9.4757  -9.4559  -9.4491
    -9.4348  -9.4318  -9.4258  -9.3987  -9.3944  -9.3745  -9.3698  -9.3628
    -9.3371  -9.3315  -9.3094  -9.2736  -9.2701  -9.2367  -9.2063  -9.1910
    -9.1571  -9.1425  -9.1390  -9.1266  -9.1168  -9.1057  -9.1007  -9.0846
    -9.0797  -8.9905  -8.9859  -8.9025  -8.8821  -8.8760  -8.8671  -8.8406
    -8.8198  -8.8172  -8.7942  -8.7863  -8.7580  -8.7557  -8.7070  -8.7048
    -8.7030  -8.6799  -8.6749  -8.6662  -8.6634  -8.6530  -8.6472  -8.6195
    -8.6141  -8.6099  -8.5978  -8.5924  -8.5404  -8.5120  -8.5068  -8.5046
    -8.4850  -8.4758  -8.4693  -8.4589  -8.4416  -8.4335  -8.4228  -8.4181
    -8.4137  -8.3870  -8.3627  -8.3586  -8.3523  -8.3439  -8.3391  -8.3368
    -8.3204  -8.3186  -8.3170  -8.3134  -8.3097  -8.3032  -8.3003  -8.2963
    -8.2944  -8.2827  -8.2753  -8.2513  -8.2457  -8.2066  -8.1950  -8.1826
    -8.1714  -8.1684  -8.1649  -8.1617  -8.1584  -8.1497  -8.1445  -8.1395
    -8.1360  -8.1151  -8.1134  -8.1082  -8.1051  -8.0970  -8.0934  -8.0891
    -8.0826  -8.0777  -8.0726  -8.0623  -8.0523  -8.0502  -8.0452  -8.0405
    -8.0229  -8.0039  -7.9987  -7.9935  -7.9890  -7.9816  -7.9659  -7.9602
    -7.9450  -7.9421  -7.9312  -7.9277  -7.9226  -7.9151  -7.9086  -7.8954
    -7.8852  -7.8809  -7.8784  -7.8776  -7.8723  -7.8662  -7.8621  -7.8563
    -7.8528  -7.8494  -7.8347  -7.8279  -7.8208  -7.8143  -7.8080  -7.8060
    -7.7821  -7.7626  -7.7454  -7.7401  -7.6696  -7.6660  -7.6632  -7.6377
    -7.6262  -7.6038  -7.5803  -7.5584  -7.5437  -7.4955  -7.4762  -7.4665
    -7.4554  -7.4475  -7.4409  -7.4342  -7.4152  -7.3789  -7.3742  -7.3643
    -7.3594  -7.3421  -7.3188  -7.3147  -7.3014  -7.2889  -7.2217  -7.2160
    -7.1964  -7.1815  -7.1789  -7.1565  -7.1469  -7.1166  -7.1009  -7.0936
    -7.0866  -7.0816  -7.0562  -7.0440  -7.0361  -7.0311  -6.8596  -6.7993
    -6.7371  -6.6742  -6.3595  -6.3243  -6.1127  -6.0732  -6.0407  -5.9893
    -5.9459  -5.6905  -5.6872  -5.6287  -5.4288  -5.3797  -5.2945  -5.2869
    -5.2416  -5.2052

          k = 0.2500-0.0884 0.0000 (128371 PWs)   bands (ev):

   -95.2307 -95.1681 -95.1618 -95.1400 -95.1348 -95.1342 -95.1306 -95.1245
   -95.1241 -95.1169 -95.1168 -95.1145 -95.1115 -95.1104 -95.1099 -95.1078
   -95.1068 -95.1054 -95.1038 -95.0990 -95.0980 -95.0974 -95.0908 -95.0898
   -95.0896 -95.0889 -95.0866 -95.0829 -95.0783 -95.0724 -95.0580 -95.0558
   -95.0498 -95.0470 -95.0398 -95.0070 -95.0013 -94.9943 -94.9892 -94.9852
   -94.9829 -94.9812 -94.9763 -94.9723 -94.9703 -94.9690 -94.9681 -94.9664
   -94.9645 -94.9619 -94.9594 -94.9585 -94.9557 -94.9545 -94.9534 -94.9527
   -94.9485 -94.9463 -94.9426 -94.9391 -94.9319 -94.9299 -94.9266 -94.9211
   -61.4093 -61.3566 -61.3434 -61.3364 -61.3356 -61.3316 -61.3271 -61.3228
   -61.3200 -61.3158 -61.3143 -61.3117 -61.3104 -61.3080 -61.3023 -61.3004
   -61.2999 -61.2962 -61.2931 -61.2925 -61.2879 -61.2872 -61.2861 -61.2839
   -61.2828 -61.2793 -61.2777 -61.2759 -61.2722 -61.2701 -61.2693 -61.2670
   -61.2627 -61.2581 -61.2559 -61.2493 -61.2445 -61.2415 -61.2396 -61.2357
   -61.2332 -61.2299 -61.2266 -61.2178 -61.2169 -61.2130 -61.2114 -61.2063
   -61.2038 -61.1937 -61.1923 -61.1841 -61.1830 -61.1751 -61.1730 -61.1694
   -61.1657 -61.1635 -61.1606 -61.1568 -61.1552 -61.1544 -61.1480 -61.1463
   -61.1441 -61.1426 -61.1406 -61.1391 -61.1379 -61.1341 -61.1333 -61.1325
   -61.1310 -61.1292 -61.1253 -61.1227 -61.1190 -61.1136 -61.1116 -61.1080
   -61.1069 -61.1038 -61.1023 -61.0974 -61.0944 -61.0900 -61.0884 -61.0875
   -61.0861 -61.0834 -61.0807 -61.0759 -61.0737 -61.0712 -61.0692 -61.0680
   -61.0662 -61.0627 -61.0617 -61.0602 -61.0580 -61.0542 -61.0528 -61.0508
   -61.0492 -61.0459 -61.0447 -61.0438 -61.0417 -61.0399 -61.0396 -61.0374
   -61.0349 -61.0336 -61.0320 -61.0295 -61.0258 -61.0243 -61.0228 -61.0198
   -61.0174 -61.0144 -61.0128 -61.0083 -61.0080 -61.0053 -61.0030 -61.0016
   -61.0002 -60.9979 -60.9951 -60.9912 -60.9904 -60.9892 -60.9859 -60.9837
   -60.9807 -60.9777 -60.9764 -60.9716 -60.9706 -60.9684 -60.9677 -60.9647
   -60.9631 -60.9611 -60.9598 -60.9557 -60.9542 -60.9534 -60.9509 -60.9492
   -60.9481 -60.9446 -60.9438 -60.9421 -60.9403 -60.9393 -60.9368 -60.9333
   -60.9317 -60.9298 -60.9275 -60.9259 -60.9247 -60.9184 -60.9163 -60.9115
   -60.9066 -60.9055 -60.9052 -60.8992 -60.8964 -60.8943 -60.8918 -60.8900
   -60.8859 -60.8848 -60.8798 -60.8786 -60.8761 -60.8753 -60.8729 -60.8703
   -60.8677 -60.8661 -60.8646 -60.8600 -60.8587 -60.8548 -60.7946 -60.7935
   -22.5532 -14.8057 -14.0451 -13.7465 -13.5692 -13.3889 -13.2808 -13.1864
   -13.0056 -12.8413 -12.6584 -12.5275 -12.4087 -12.2585 -12.1539 -12.0880
   -11.9420 -11.8858 -11.8382 -11.7434 -11.6737 -11.6243 -11.5818 -11.5307
   -11.5212 -11.4988 -11.4772 -11.4625 -11.4164 -11.3754 -11.2966 -11.2351
   -11.2053 -11.1828 -11.1583 -11.1530 -11.1388 -11.1347 -11.1141 -11.1063
   -11.0911 -11.0644 -11.0580 -11.0402 -11.0309 -11.0072 -10.9939 -10.9789
   -10.9565 -10.9501 -10.9367 -10.9278 -10.9182 -10.8824 -10.8651 -10.8586
   -10.8553 -10.8476 -10.8204 -10.7818 -10.7304 -10.7207 -10.6865 -10.6748
   -10.6322 -10.6152 -10.5752 -10.5537 -10.5231 -10.4877 -10.4573 -10.4112
   -10.3926 -10.3826 -10.3605 -10.3334 -10.2952 -10.2873 -10.2725 -10.2679
   -10.2584 -10.2464 -10.2434 -10.2318 -10.2248 -10.2189 -10.2064 -10.1942
   -10.1865 -10.1762 -10.1693 -10.1669 -10.1523 -10.1484 -10.1392 -10.1352
   -10.1281 -10.1222 -10.1200 -10.1103 -10.1076 -10.0845 -10.0789 -10.0516
   -10.0312 -10.0274 -10.0217 -10.0110 -10.0051  -9.9965  -9.9777  -9.9683
    -9.9556  -9.9443  -9.9396  -9.8879  -9.8603  -9.8462  -9.8370  -9.8246
    -9.8020  -9.7858  -9.7714  -9.7500  -9.7320  -9.7079  -9.6810  -9.6716
    -9.6662  -9.6504  -9.6425  -9.6359  -9.6325  -9.6167  -9.6108  -9.6058
    -9.5860  -9.5791  -9.5678  -9.5581  -9.5527  -9.5448  -9.5335  -9.5199
    -9.5040  -9.4879  -9.4569  -9.4418  -9.4313  -9.4012  -9.3945  -9.3907
    -9.3801  -9.3655  -9.3557  -9.3524  -9.3482  -9.3395  -9.3323  -9.3216
    -9.3136  -9.3083  -9.2956  -9.2882  -9.2679  -9.2630  -9.2244  -9.2062
    -9.1917  -9.1820  -9.1784  -9.1649  -9.1403  -9.1304  -9.1099  -9.0969
    -9.0849  -9.0788  -9.0660  -9.0330  -9.0255  -9.0084  -8.9752  -8.9681
    -8.9552  -8.9165  -8.9002  -8.8847  -8.8421  -8.7441  -8.7309  -8.6997
    -8.6868  -8.6750  -8.6521  -8.6299  -8.6172  -8.6096  -8.5915  -8.5693
    -8.5562  -8.5442  -8.5341  -8.5297  -8.5158  -8.5123  -8.5008  -8.4954
    -8.4840  -8.4639  -8.4604  -8.4461  -8.4315  -8.4250  -8.4171  -8.3911
    -8.3848  -8.3797  -8.3715  -8.3560  -8.3490  -8.3362  -8.3277  -8.3259
    -8.3212  -8.3137  -8.2980  -8.2752  -8.2683  -8.2624  -8.2548  -8.2395
    -8.2392  -8.2339  -8.2289  -8.2193  -8.2147  -8.2094  -8.2069  -8.1989
    -8.1951  -8.1860  -8.1762  -8.1725  -8.1618  -8.1537  -8.1485  -8.1404
    -8.1363  -8.1349  -8.1244  -8.1166  -8.1128  -8.1085  -8.1048  -8.0980
    -8.0922  -8.0863  -8.0797  -8.0746  -8.0626  -8.0556  -8.0544  -8.0496
    -8.0415  -8.0385  -8.0336  -8.0312  -8.0277  -8.0198  -8.0169  -8.0063
    -8.0008  -7.9967  -7.9872  -7.9767  -7.9656  -7.9616  -7.9448  -7.9424
    -7.9319  -7.9046  -7.8980  -7.8921  -7.8845  -7.8788  -7.8716  -7.8570
    -7.8529  -7.8427  -7.8352  -7.8303  -7.8213  -7.8178  -7.8014  -7.7863
    -7.7684  -7.7647  -7.7613  -7.7536  -7.7456  -7.7330  -7.7264  -7.7247
    -7.7130  -7.7052  -7.6845  -7.6714  -7.6529  -7.6172  -7.6051  -7.5775
    -7.5639  -7.5460  -7.4467  -7.4015  -7.3782  -7.3574  -7.3253  -7.3089
    -7.2965  -7.2734  -7.2478  -7.2295  -7.2121  -7.1794  -7.1669  -7.1569
    -7.1445  -7.1280  -7.1121  -7.1049  -7.0899  -7.0823  -7.0568  -7.0430
    -7.0251  -6.9759  -6.9554  -6.9333  -6.8990  -6.8454  -6.7501  -6.5538
    -6.4916  -6.4190  -6.3559  -6.3049  -6.1840  -6.0552  -6.0107  -5.9741
    -5.9133  -5.7194  -5.6840  -5.6570  -5.6228  -5.5158  -5.4223  -5.3085
    -5.2244  -5.1720

          k = 0.2500 0.1768 0.0000 (128340 PWs)   bands (ev):

   -95.2307 -95.1681 -95.1617 -95.1392 -95.1353 -95.1334 -95.1319 -95.1233
   -95.1226 -95.1209 -95.1178 -95.1149 -95.1109 -95.1101 -95.1093 -95.1091
   -95.1051 -95.1049 -95.1021 -95.1000 -95.0980 -95.0939 -95.0918 -95.0915
   -95.0895 -95.0892 -95.0891 -95.0801 -95.0778 -95.0735 -95.0580 -95.0559
   -95.0498 -95.0469 -95.0399 -95.0068 -94.9995 -94.9972 -94.9900 -94.9852
   -94.9829 -94.9792 -94.9750 -94.9725 -94.9700 -94.9697 -94.9686 -94.9664
   -94.9648 -94.9608 -94.9596 -94.9585 -94.9576 -94.9538 -94.9537 -94.9522
   -94.9492 -94.9474 -94.9405 -94.9392 -94.9319 -94.9295 -94.9267 -94.9215
   -61.4092 -61.3563 -61.3414 -61.3393 -61.3339 -61.3315 -61.3285 -61.3224
   -61.3193 -61.3143 -61.3131 -61.3106 -61.3089 -61.3072 -61.3057 -61.3013
   -61.2985 -61.2955 -61.2942 -61.2899 -61.2889 -61.2863 -61.2861 -61.2836
   -61.2799 -61.2793 -61.2782 -61.2769 -61.2732 -61.2709 -61.2659 -61.2640
   -61.2613 -61.2609 -61.2571 -61.2458 -61.2392 -61.2388 -61.2371 -61.2333
   -61.2329 -61.2293 -61.2156 -61.2127 -61.2124 -61.2111 -61.2107 -61.2093
   -61.1995 -61.1978 -61.1921 -61.1916 -61.1819 -61.1760 -61.1756 -61.1723
   -61.1707 -61.1690 -61.1625 -61.1596 -61.1575 -61.1573 -61.1535 -61.1527
   -61.1515 -61.1474 -61.1439 -61.1413 -61.1406 -61.1402 -61.1374 -61.1363
   -61.1338 -61.1303 -61.1292 -61.1234 -61.1234 -61.1161 -61.1149 -61.1100
   -61.1098 -61.1070 -61.1028 -61.0993 -61.0973 -61.0920 -61.0909 -61.0900
   -61.0864 -61.0849 -61.0819 -61.0811 -61.0765 -61.0753 -61.0708 -61.0663
   -61.0642 -61.0620 -61.0562 -61.0550 -61.0522 -61.0518 -61.0482 -61.0462
   -61.0450 -61.0449 -61.0442 -61.0423 -61.0406 -61.0400 -61.0384 -61.0367
   -61.0322 -61.0318 -61.0300 -61.0263 -61.0252 -61.0235 -61.0201 -61.0198
   -61.0178 -61.0105 -61.0102 -61.0078 -61.0073 -61.0064 -61.0053 -61.0006
   -61.0000 -60.9960 -60.9909 -60.9897 -60.9852 -60.9850 -60.9790 -60.9788
   -60.9748 -60.9727 -60.9697 -60.9690 -60.9670 -60.9670 -60.9661 -60.9637
   -60.9614 -60.9600 -60.9577 -60.9575 -60.9564 -60.9545 -60.9514 -60.9479
   -60.9476 -60.9434 -60.9426 -60.9410 -60.9385 -60.9379 -60.9376 -60.9369
   -60.9358 -60.9300 -60.9252 -60.9230 -60.9200 -60.9180 -60.9126 -60.9115
   -60.9103 -60.9037 -60.9021 -60.9001 -60.8983 -60.8956 -60.8920 -60.8912
   -60.8869 -60.8865 -60.8832 -60.8809 -60.8782 -60.8764 -60.8763 -60.8745
   -60.8708 -60.8700 -60.8659 -60.8657 -60.8609 -60.8572 -60.7951 -60.7940
   -22.5532 -14.7656 -13.8933 -13.7409 -13.6930 -13.5176 -13.3328 -13.2998
   -13.0584 -12.7434 -12.6282 -12.4595 -12.3797 -12.3378 -12.1881 -12.0335
   -11.9200 -11.8310 -11.7536 -11.6640 -11.5725 -11.5719 -11.5313 -11.5287
   -11.4922 -11.4598 -11.4462 -11.4454 -11.4092 -11.3413 -11.3408 -11.2560
   -11.2297 -11.2200 -11.2055 -11.1874 -11.1350 -11.1287 -11.1223 -11.0980
   -11.0891 -11.0795 -11.0628 -11.0564 -11.0526 -11.0525 -11.0436 -11.0405
   -11.0045 -11.0002 -10.9686 -10.9620 -10.9270 -10.9262 -10.8884 -10.8674
   -10.8637 -10.8026 -10.7908 -10.7313 -10.7074 -10.6980 -10.6771 -10.6466
   -10.6292 -10.6032 -10.5759 -10.5670 -10.5480 -10.4994 -10.4692 -10.4559
   -10.4152 -10.3710 -10.3475 -10.3298 -10.3109 -10.3003 -10.2978 -10.2799
   -10.2788 -10.2754 -10.2667 -10.2619 -10.2532 -10.2479 -10.2427 -10.2311
   -10.2286 -10.2168 -10.1966 -10.1829 -10.1441 -10.1343 -10.1307 -10.1248
   -10.0988 -10.0959 -10.0777 -10.0685 -10.0545 -10.0459 -10.0430 -10.0327
   -10.0166 -10.0112  -9.9884  -9.9850  -9.9656  -9.9465  -9.9288  -9.9175
    -9.9091  -9.9055  -9.8812  -9.8811  -9.8666  -9.8568  -9.8453  -9.8425
    -9.8336  -9.8294  -9.8282  -9.8191  -9.7857  -9.7671  -9.7479  -9.7358
    -9.7087  -9.6749  -9.6728  -9.6648  -9.6526  -9.6500  -9.6399  -9.6223
    -9.6055  -9.5778  -9.5547  -9.5457  -9.5371  -9.5351  -9.5230  -9.5200
    -9.5068  -9.5000  -9.4784  -9.4627  -9.4505  -9.4378  -9.4115  -9.3914
    -9.3798  -9.3685  -9.3674  -9.3637  -9.3351  -9.3304  -9.3258  -9.3155
    -9.2978  -9.2750  -9.2714  -9.2650  -9.2642  -9.2510  -9.2402  -9.2361
    -9.2209  -9.2156  -9.2090  -9.2004  -9.1946  -9.1838  -9.1804  -9.1439
    -9.1372  -9.1306  -9.1058  -9.0548  -9.0058  -8.9673  -8.9298  -8.8958
    -8.8687  -8.8518  -8.8365  -8.7842  -8.7718  -8.7322  -8.7179  -8.7174
    -8.7022  -8.6779  -8.6577  -8.6473  -8.6326  -8.6150  -8.5804  -8.5773
    -8.5636  -8.5552  -8.5417  -8.5386  -8.5333  -8.5184  -8.5085  -8.4897
    -8.4667  -8.4629  -8.4554  -8.4544  -8.4291  -8.4236  -8.4219  -8.4135
    -8.4041  -8.3922  -8.3814  -8.3752  -8.3406  -8.3349  -8.3252  -8.3151
    -8.3047  -8.2890  -8.2845  -8.2749  -8.2735  -8.2692  -8.2655  -8.2476
    -8.2350  -8.2263  -8.2261  -8.2224  -8.2097  -8.1969  -8.1960  -8.1888
    -8.1870  -8.1782  -8.1778  -8.1691  -8.1690  -8.1432  -8.1250  -8.1225
    -8.1181  -8.1051  -8.1045  -8.0995  -8.0958  -8.0775  -8.0768  -8.0682
    -8.0456  -8.0445  -8.0424  -8.0356  -8.0336  -8.0245  -8.0122  -8.0032
    -8.0029  -8.0000  -7.9937  -7.9826  -7.9816  -7.9789  -7.9662  -7.9597
    -7.9563  -7.9528  -7.9480  -7.9436  -7.9415  -7.9349  -7.9319  -7.9060
    -7.9035  -7.8963  -7.8958  -7.8878  -7.8851  -7.8729  -7.8683  -7.8614
    -7.8600  -7.8571  -7.8473  -7.8334  -7.8293  -7.8070  -7.8055  -7.7848
    -7.7693  -7.7665  -7.7517  -7.7299  -7.7205  -7.7141  -7.7065  -7.6858
    -7.6825  -7.6728  -7.6710  -7.6616  -7.6009  -7.6009  -7.5613  -7.5561
    -7.5522  -7.5518  -7.4419  -7.4254  -7.3544  -7.3400  -7.2989  -7.2730
    -7.2659  -7.2222  -7.2137  -7.2026  -7.1892  -7.1811  -7.1523  -7.1425
    -7.1265  -7.1236  -7.1152  -7.1053  -7.1010  -7.0564  -7.0448  -7.0079
    -6.9638  -6.9288  -6.8816  -6.8713  -6.8233  -6.8184  -6.6998  -6.6859
    -6.5893  -6.5448  -6.4683  -6.2787  -6.1751  -6.1311  -6.0916  -6.0684
    -6.0102  -6.0019  -5.9748  -5.9458  -5.9138  -5.8285  -5.7120  -5.5236
    -5.4444  -5.3427

          k = 0.2500-0.6187 0.0000 (128424 PWs)   bands (ev):

   -95.2307 -95.1681 -95.1617 -95.1388 -95.1355 -95.1327 -95.1314 -95.1262
   -95.1228 -95.1202 -95.1184 -95.1163 -95.1108 -95.1097 -95.1081 -95.1065
   -95.1061 -95.1038 -95.1033 -95.0998 -95.0975 -95.0955 -95.0945 -95.0899
   -95.0894 -95.0891 -95.0875 -95.0806 -95.0769 -95.0745 -95.0579 -95.0560
   -95.0498 -95.0469 -95.0399 -95.0056 -95.0022 -94.9946 -94.9921 -94.9857
   -94.9815 -94.9795 -94.9729 -94.9728 -94.9716 -94.9692 -94.9686 -94.9667
   -94.9655 -94.9622 -94.9589 -94.9573 -94.9561 -94.9551 -94.9527 -94.9521
   -94.9502 -94.9480 -94.9415 -94.9385 -94.9310 -94.9294 -94.9264 -94.9224
   -61.4091 -61.3520 -61.3456 -61.3416 -61.3328 -61.3302 -61.3280 -61.3220
   -61.3177 -61.3150 -61.3124 -61.3116 -61.3097 -61.3068 -61.3058 -61.3004
   -61.2970 -61.2946 -61.2926 -61.2900 -61.2884 -61.2851 -61.2839 -61.2830
   -61.2811 -61.2797 -61.2778 -61.2746 -61.2729 -61.2715 -61.2703 -61.2631
   -61.2602 -61.2580 -61.2565 -61.2431 -61.2346 -61.2318 -61.2292 -61.2275
   -61.2262 -61.2237 -61.2228 -61.2191 -61.2177 -61.2118 -61.2045 -61.2030
   -61.1995 -61.1963 -61.1938 -61.1870 -61.1855 -61.1832 -61.1819 -61.1788
   -61.1769 -61.1748 -61.1717 -61.1681 -61.1617 -61.1602 -61.1554 -61.1534
   -61.1520 -61.1458 -61.1437 -61.1433 -61.1417 -61.1387 -61.1376 -61.1363
   -61.1311 -61.1291 -61.1258 -61.1240 -61.1217 -61.1200 -61.1174 -61.1159
   -61.1140 -61.1114 -61.1089 -61.1069 -61.1035 -61.1011 -61.0992 -61.0959
   -61.0922 -61.0904 -61.0880 -61.0856 -61.0809 -61.0746 -61.0701 -61.0666
   -61.0624 -61.0578 -61.0549 -61.0529 -61.0521 -61.0502 -61.0495 -61.0470
   -61.0450 -61.0423 -61.0419 -61.0373 -61.0357 -61.0345 -61.0320 -61.0304
   -61.0289 -61.0267 -61.0250 -61.0232 -61.0198 -61.0186 -61.0169 -61.0158
   -61.0132 -61.0103 -61.0088 -61.0061 -61.0038 -61.0019 -60.9986 -60.9957
   -60.9939 -60.9935 -60.9898 -60.9887 -60.9881 -60.9857 -60.9831 -60.9791
   -60.9779 -60.9760 -60.9732 -60.9717 -60.9678 -60.9661 -60.9648 -60.9623
   -60.9597 -60.9558 -60.9550 -60.9531 -60.9517 -60.9512 -60.9506 -60.9484
   -60.9455 -60.9446 -60.9430 -60.9421 -60.9408 -60.9392 -60.9380 -60.9332
   -60.9305 -60.9233 -60.9225 -60.9198 -60.9183 -60.9170 -60.9132 -60.9097
   -60.9054 -60.9034 -60.9020 -60.8994 -60.8952 -60.8937 -60.8930 -60.8919
   -60.8896 -60.8890 -60.8862 -60.8851 -60.8845 -60.8829 -60.8819 -60.8782
   -60.8770 -60.8742 -60.8715 -60.8657 -60.8620 -60.8594 -60.7957 -60.7944
   -22.5531 -14.5318 -14.2439 -13.9672 -13.6365 -13.4503 -13.3824 -13.0889
   -12.9794 -12.7869 -12.7061 -12.4889 -12.4318 -11.9985 -11.9202 -11.8707
   -11.8300 -11.8040 -11.7589 -11.7279 -11.6749 -11.6032 -11.5463 -11.5367
   -11.5140 -11.5006 -11.4675 -11.4230 -11.3984 -11.3737 -11.3667 -11.3616
   -11.3399 -11.3121 -11.2913 -11.2586 -11.2471 -11.2213 -11.2051 -11.1945
   -11.1697 -11.1654 -11.1231 -11.1113 -11.0863 -11.0671 -11.0075 -10.9960
   -10.9768 -10.9529 -10.9159 -10.8895 -10.8761 -10.8490 -10.8166 -10.8025
   -10.7671 -10.7595 -10.7486 -10.7329 -10.7234 -10.7119 -10.6802 -10.6715
   -10.6392 -10.6347 -10.5968 -10.5782 -10.5695 -10.5414 -10.5114 -10.4949
   -10.4742 -10.4348 -10.4179 -10.3870 -10.3577 -10.3131 -10.2975 -10.2880
   -10.2830 -10.2716 -10.2612 -10.2557 -10.2491 -10.2177 -10.2020 -10.1799
   -10.1663 -10.1568 -10.1378 -10.1216 -10.1103 -10.0917 -10.0844 -10.0806
   -10.0721 -10.0656 -10.0556 -10.0454 -10.0412 -10.0319 -10.0246  -9.9973
    -9.9917  -9.9822  -9.9761  -9.9603  -9.9503  -9.9407  -9.9339  -9.9219
    -9.9180  -9.9048  -9.8904  -9.8813  -9.8735  -9.8446  -9.8372  -9.8281
    -9.8186  -9.8093  -9.8039  -9.7962  -9.7918  -9.7790  -9.7694  -9.7561
    -9.7471  -9.7420  -9.7349  -9.7201  -9.7130  -9.6948  -9.6821  -9.6668
    -9.6529  -9.6424  -9.6170  -9.5763  -9.5452  -9.5253  -9.5113  -9.5063
    -9.4846  -9.4812  -9.4783  -9.4742  -9.4545  -9.4460  -9.4349  -9.4293
    -9.4226  -9.4157  -9.4068  -9.3966  -9.3901  -9.3818  -9.3658  -9.3565
    -9.3473  -9.3406  -9.3236  -9.2756  -9.2557  -9.2484  -9.2301  -9.1952
    -9.1898  -9.1656  -9.1515  -9.1169  -9.1068  -9.0868  -9.0696  -9.0323
    -9.0212  -8.9898  -8.9592  -8.9227  -8.9100  -8.8920  -8.8813  -8.8621
    -8.8291  -8.8155  -8.8088  -8.7805  -8.7679  -8.7479  -8.7391  -8.7151
    -8.7070  -8.7021  -8.6899  -8.6793  -8.6629  -8.6524  -8.6268  -8.6059
    -8.5925  -8.5810  -8.5695  -8.5643  -8.5395  -8.5231  -8.5126  -8.4948
    -8.4826  -8.4724  -8.4658  -8.4533  -8.4452  -8.4367  -8.4244  -8.4104
    -8.4037  -8.3937  -8.3915  -8.3606  -8.3546  -8.3382  -8.3337  -8.3304
    -8.3232  -8.3114  -8.3022  -8.2979  -8.2935  -8.2903  -8.2827  -8.2788
    -8.2764  -8.2595  -8.2515  -8.2485  -8.2277  -8.2168  -8.2041  -8.1869
    -8.1850  -8.1676  -8.1646  -8.1516  -8.1469  -8.1380  -8.1319  -8.1267
    -8.1210  -8.1106  -8.1045  -8.0957  -8.0934  -8.0768  -8.0749  -8.0615
    -8.0553  -8.0417  -8.0368  -8.0313  -8.0169  -8.0094  -8.0037  -7.9988
    -7.9921  -7.9852  -7.9826  -7.9774  -7.9736  -7.9701  -7.9634  -7.9425
    -7.9361  -7.9299  -7.9284  -7.9202  -7.9184  -7.9100  -7.9057  -7.8998
    -7.8958  -7.8917  -7.8803  -7.8778  -7.8722  -7.8572  -7.8410  -7.8368
    -7.8251  -7.8173  -7.8028  -7.7936  -7.7800  -7.7739  -7.7708  -7.7548
    -7.7152  -7.6997  -7.6897  -7.6779  -7.6598  -7.6522  -7.6452  -7.6062
    -7.5761  -7.5644  -7.5444  -7.5387  -7.4945  -7.4854  -7.4788  -7.4655
    -7.4604  -7.4498  -7.4137  -7.4062  -7.3896  -7.3746  -7.3626  -7.3428
    -7.3196  -7.3050  -7.2832  -7.2683  -7.2498  -7.2352  -7.2262  -7.2053
    -7.1870  -7.1780  -7.1608  -7.1549  -7.1448  -7.1349  -7.1090  -7.0903
    -7.0751  -7.0613  -7.0423  -7.0269  -6.9507  -6.9325  -6.9139  -6.8078
    -6.7030  -6.6581  -6.4914  -6.4340  -6.3486  -6.3225  -6.2270  -6.1928
    -6.0365  -5.9357  -5.8218  -5.7718  -5.7176  -5.6155  -5.5865  -5.4469
    -5.3711  -5.3140

          k = 0.2500-0.3536 0.0000 (128397 PWs)   bands (ev):

   -95.2307 -95.1681 -95.1618 -95.1398 -95.1349 -95.1328 -95.1314 -95.1253
   -95.1239 -95.1205 -95.1174 -95.1118 -95.1110 -95.1099 -95.1097 -95.1076
   -95.1074 -95.1029 -95.1025 -95.1020 -95.0983 -95.0975 -95.0924 -95.0900
   -95.0889 -95.0876 -95.0862 -95.0825 -95.0785 -95.0729 -95.0579 -95.0559
   -95.0498 -95.0470 -95.0399 -95.0059 -95.0029 -94.9923 -94.9915 -94.9863
   -94.9811 -94.9805 -94.9761 -94.9723 -94.9709 -94.9692 -94.9678 -94.9666
   -94.9653 -94.9622 -94.9592 -94.9578 -94.9553 -94.9544 -94.9530 -94.9520
   -94.9488 -94.9478 -94.9434 -94.9384 -94.9307 -94.9301 -94.9263 -94.9218
   -61.4091 -61.3524 -61.3468 -61.3404 -61.3341 -61.3298 -61.3268 -61.3222
   -61.3188 -61.3160 -61.3135 -61.3117 -61.3111 -61.3072 -61.3060 -61.2985
   -61.2969 -61.2958 -61.2931 -61.2893 -61.2883 -61.2881 -61.2844 -61.2834
   -61.2816 -61.2799 -61.2775 -61.2758 -61.2728 -61.2708 -61.2700 -61.2647
   -61.2631 -61.2564 -61.2544 -61.2461 -61.2407 -61.2371 -61.2343 -61.2304
   -61.2291 -61.2266 -61.2239 -61.2214 -61.2190 -61.2171 -61.2086 -61.2064
   -61.2061 -61.1964 -61.1891 -61.1872 -61.1822 -61.1778 -61.1768 -61.1711
   -61.1682 -61.1660 -61.1592 -61.1586 -61.1543 -61.1537 -61.1505 -61.1502
   -61.1488 -61.1465 -61.1454 -61.1435 -61.1395 -61.1380 -61.1370 -61.1362
   -61.1337 -61.1295 -61.1267 -61.1253 -61.1234 -61.1219 -61.1161 -61.1152
   -61.1140 -61.1054 -61.1031 -61.1010 -61.0982 -61.0961 -61.0940 -61.0933
   -61.0884 -61.0873 -61.0852 -61.0764 -61.0736 -61.0724 -61.0699 -61.0641
   -61.0611 -61.0609 -61.0594 -61.0567 -61.0551 -61.0530 -61.0518 -61.0490
   -61.0479 -61.0466 -61.0454 -61.0408 -61.0380 -61.0362 -61.0347 -61.0323
   -61.0296 -61.0274 -61.0265 -61.0229 -61.0221 -61.0218 -61.0207 -61.0191
   -61.0185 -61.0135 -61.0131 -61.0080 -61.0078 -61.0067 -61.0042 -61.0016
   -60.9994 -60.9957 -60.9935 -60.9904 -60.9873 -60.9843 -60.9815 -60.9793
   -60.9768 -60.9739 -60.9723 -60.9701 -60.9695 -60.9655 -60.9647 -60.9633
   -60.9601 -60.9577 -60.9569 -60.9546 -60.9545 -60.9528 -60.9491 -60.9472
   -60.9462 -60.9459 -60.9433 -60.9421 -60.9413 -60.9397 -60.9375 -60.9374
   -60.9338 -60.9309 -60.9282 -60.9247 -60.9206 -60.9181 -60.9142 -60.9109
   -60.9073 -60.9066 -60.9023 -60.8989 -60.8950 -60.8930 -60.8921 -60.8907
   -60.8883 -60.8855 -60.8816 -60.8807 -60.8803 -60.8797 -60.8746 -60.8744
   -60.8714 -60.8696 -60.8681 -60.8625 -60.8609 -60.8586 -60.7952 -60.7939
   -22.5531 -14.6382 -14.1266 -14.0455 -13.6560 -13.4041 -13.2968 -13.0974
   -12.7890 -12.7565 -12.5297 -12.4800 -12.4514 -12.3415 -12.1973 -12.0713
   -11.8772 -11.6791 -11.6612 -11.6447 -11.6248 -11.6228 -11.5803 -11.5756
[...]
    -5.7956  -5.7876  -5.7736  -5.7665  -5.7445  -5.7373  -5.7309  -5.7223
    -5.7070  -5.6712  -5.6611  -5.6458  -5.6335  -5.6323  -5.5995  -5.5845
    -5.5516  -5.5451  -5.5317  -5.5302  -5.5143  -5.4964  -5.4786  -5.4694
    -5.4612  -5.4524  -5.4450  -5.4399  -5.4300  -5.4176  -5.4129  -5.4023
    -5.3896  -5.3803  -5.3662  -5.3635  -5.3472  -5.3272  -5.3174  -5.3038
    -5.2858  -5.2835  -5.2735  -5.2669  -5.2558  -5.2510  -5.2477  -5.2449
    -5.2271  -5.2165  -5.2000  -5.1929  -5.1851  -5.1813  -5.1763  -5.1630
    -5.1590  -5.1535  -5.1450  -5.1366  -5.1253  -5.1202  -5.0984  -5.0907
    -5.0846  -5.0775  -5.0652  -5.0520  -5.0484  -5.0365  -5.0320  -5.0298
    -5.0265  -5.0115  -5.0100  -5.0000  -4.9976  -4.9908  -4.9796  -4.9713
    -4.9609  -4.9558  -4.9434  -4.9281  -4.9171  -4.9096  -4.9067  -4.8989
    -4.8950  -4.8885  -4.8796  -4.8753  -4.8659  -4.8605  -4.8551  -4.8478
    -4.8412  -4.8343  -4.8185  -4.8123  -4.7958  -4.7878  -4.7812  -4.7755
    -4.7582  -4.7304  -4.7216  -4.7105  -4.7028  -4.6975  -4.6908  -4.6807
    -4.6705  -4.6671  -4.6486  -4.6455  -4.6139  -4.6092  -4.5967  -4.5761
    -4.5611  -4.5554  -4.5278  -4.5049  -4.4833  -4.4238  -4.4044  -4.3687
    -4.3170  -4.3005  -4.2937  -4.2229  -4.2033  -4.1163  -4.0577  -4.0227
    -4.0107  -3.9846

          k =-0.5000-0.3536 0.0000 (128560 PWs)   bands (ev):

   -92.7810 -92.7806 -92.3570 -92.3549 -92.2510 -92.2501 -92.2297 -92.2017
   -92.1935 -92.1318 -92.1235 -92.1136 -92.1121 -92.1042 -92.1009 -92.0997
   -92.0883 -92.0882 -92.0850 -92.0790 -92.0781 -92.0751 -92.0727 -92.0720
   -92.0692 -92.0670 -92.0657 -92.0620 -92.0617 -92.0576 -92.0567 -92.0566
   -92.0550 -92.0546 -92.0518 -92.0448 -92.0404 -92.0395 -92.0352 -92.0352
   -92.0339 -92.0302 -92.0293 -92.0261 -92.0254 -92.0229 -92.0217 -92.0205
   -92.0152 -92.0096 -92.0057 -92.0041 -92.0035 -92.0032 -92.0016 -92.0013
   -91.9990 -91.9975 -91.9975 -91.9972 -91.9821 -91.9798 -91.9783 -91.9754
   -59.3217 -59.3136 -58.7861 -58.7747 -58.7113 -58.7019 -58.6685 -58.6635
   -58.4963 -58.4754 -58.4527 -58.4441 -58.4426 -58.4361 -58.4324 -58.4319
   -58.4107 -58.4097 -58.3985 -58.3959 -58.3930 -58.3869 -58.3767 -58.3750
   -58.3680 -58.3674 -58.3642 -58.3616 -58.3608 -58.3522 -58.3522 -58.3512
   -58.3488 -58.3481 -58.3420 -58.3370 -58.3364 -58.3300 -58.3262 -58.3262
   -58.3224 -58.3219 -58.3151 -58.3134 -58.3122 -58.3091 -58.3077 -58.3063
   -58.3060 -58.3016 -58.2965 -58.2933 -58.2888 -58.2838 -58.2822 -58.2819
   -58.2803 -58.2768 -58.2752 -58.2748 -58.2731 -58.2727 -58.2720 -58.2713
   -58.2694 -58.2666 -58.2647 -58.2646 -58.2635 -58.2581 -58.2560 -58.2525
   -58.2510 -58.2485 -58.2445 -58.2356 -58.2272 -58.2264 -58.2234 -58.2204
   -58.2155 -58.2140 -58.2072 -58.2068 -58.2035 -58.2023 -58.1875 -58.1859
   -58.1843 -58.1821 -58.1809 -58.1767 -58.1757 -58.1707 -58.1690 -58.1686
   -58.1663 -58.1616 -58.1588 -58.1577 -58.1558 -58.1532 -58.1508 -58.1485
   -58.1481 -58.1445 -58.1412 -58.1352 -58.1325 -58.1322 -58.1305 -58.1302
   -58.1274 -58.1266 -58.1247 -58.1228 -58.1221 -58.1205 -58.1202 -58.1173
   -58.1139 -58.1108 -58.1105 -58.1084 -58.1029 -58.1006 -58.0976 -58.0963
   -58.0958 -58.0944 -58.0912 -58.0899 -58.0893 -58.0877 -58.0837 -58.0808
   -58.0780 -58.0754 -58.0751 -58.0707 -58.0698 -58.0687 -58.0676 -58.0670
   -58.0661 -58.0649 -58.0635 -58.0625 -58.0602 -58.0590 -58.0584 -58.0583
   -58.0570 -58.0542 -58.0519 -58.0508 -58.0492 -58.0489 -58.0466 -58.0460
   -58.0412 -58.0406 -58.0392 -58.0355 -58.0340 -58.0334 -58.0322 -58.0322
   -58.0318 -58.0309 -58.0300 -58.0290 -58.0283 -58.0278 -58.0276 -58.0270
   -58.0242 -58.0238 -58.0203 -58.0188 -58.0174 -58.0161 -58.0145 -58.0121
   -58.0108 -58.0101 -58.0085 -58.0065 -58.0034 -58.0029 -57.9997 -57.9973
   -22.6914 -14.1533 -14.1068 -13.6087 -13.5923 -13.1672 -13.1280 -12.9914
   -12.6057 -12.4645 -12.1128 -11.9975 -11.9028 -11.5061 -11.4523 -11.4352
   -11.2892 -11.0564 -10.8233 -10.6669 -10.6525 -10.6348 -10.6228 -10.6136
   -10.5488 -10.5486 -10.5189 -10.4693 -10.4508 -10.3756 -10.2100 -10.0966
   -10.0916 -10.0826 -10.0664 -10.0142  -9.9732  -9.8931  -9.7168  -9.6344
    -9.6315  -9.6189  -9.5889  -9.5769  -9.5656  -9.5239  -9.4918  -9.4621
    -9.4505  -9.3965  -9.3361  -9.3310  -9.3046  -9.2930  -9.2844  -9.2760
    -9.1023  -9.0795  -9.0632  -9.0597  -9.0322  -9.0007  -8.9623  -8.8305
    -8.7895  -8.7745  -8.7659  -8.7227  -8.7222  -8.7120  -8.6438  -8.6060
    -8.5859  -8.5691  -8.5385  -8.5338  -8.5230  -8.5028  -8.4967  -8.4875
    -8.4738  -8.4648  -8.4174  -8.3957  -8.3953  -8.3883  -8.3881  -8.3813
    -8.3546  -8.3495  -8.3468  -8.3141  -8.3042  -8.2180  -8.1820  -8.1788
    -8.1718  -8.1695  -8.1027  -8.0790  -8.0528  -8.0402  -8.0368  -8.0316
    -8.0184  -8.0155  -8.0119  -8.0052  -7.9666  -7.9543  -7.9537  -7.9476
    -7.9436  -7.9364  -7.9342  -7.9215  -7.9176  -7.9143  -7.9061  -7.9015
    -7.8859  -7.8772  -7.8665  -7.8645  -7.8590  -7.8588  -7.8502  -7.8345
    -7.8272  -7.8144  -7.7983  -7.7935  -7.7922  -7.7911  -7.7868  -7.7810
    -7.7680  -7.7598  -7.7402  -7.7375  -7.6991  -7.6123  -7.5812  -7.5669
    -7.5476  -7.5393  -7.5362  -7.5254  -7.5232  -7.5121  -7.5033  -7.4845
    -7.4825  -7.4117  -7.3819  -7.3770  -7.3621  -7.3548  -7.3520  -7.3431
    -7.3341  -7.3276  -7.2930  -7.2783  -7.2769  -7.2533  -7.2099  -7.1821
    -7.1559  -7.1301  -7.1190  -7.0674  -7.0525  -7.0230  -7.0204  -7.0115
    -6.9994  -6.9853  -6.9627  -6.9571  -6.9402  -6.9219  -6.9115  -6.8955
    -6.8898  -6.8786  -6.8440  -6.8385  -6.7826  -6.6610  -6.6333  -6.6261
    -6.5186  -6.4943  -6.4909  -6.3771  -6.3551  -6.3343  -6.3132  -6.2559
    -6.2252  -6.2224  -6.2193  -6.1663  -6.1496  -6.1216  -6.1166  -6.0874
    -6.0768  -6.0589  -6.0100  -5.9828  -5.9733  -5.9712  -5.9699  -5.9372
    -5.8765  -5.8613  -5.8595  -5.8565  -5.8464  -5.8308  -5.7948  -5.7759
    -5.7720  -5.7454  -5.7342  -5.7325  -5.7268  -5.7228  -5.7022  -5.6950
    -5.6804  -5.6787  -5.6329  -5.6265  -5.6204  -5.6196  -5.5876  -5.5843
    -5.5679  -5.5667  -5.5542  -5.5515  -5.5439  -5.5332  -5.4857  -5.4795
    -5.4333  -5.4324  -5.4180  -5.3795  -5.3789  -5.3728  -5.3655  -5.3558
    -5.3204  -5.3185  -5.3152  -5.3011  -5.2993  -5.2912  -5.2655  -5.2629
    -5.2601  -5.2443  -5.2429  -5.2264  -5.2242  -5.2152  -5.2122  -5.2086
    -5.1943  -5.1873  -5.1842  -5.1599  -5.1569  -5.1522  -5.1465  -5.1358
    -5.1277  -5.1240  -5.1218  -5.1183  -5.1174  -5.1084  -5.0949  -5.0905
    -5.0843  -5.0749  -5.0715  -5.0505  -5.0473  -5.0464  -5.0376  -5.0356
    -5.0270  -5.0233  -5.0213  -5.0006  -4.9885  -4.9849  -4.9798  -4.9792
    -4.9775  -4.9522  -4.9431  -4.9419  -4.9229  -4.9224  -4.9180  -4.9057
    -4.9040  -4.8935  -4.8892  -4.8596  -4.8568  -4.8499  -4.8489  -4.8381
    -4.8341  -4.8269  -4.8198  -4.8111  -4.8089  -4.8087  -4.8034  -4.7991
    -4.7946  -4.7895  -4.7728  -4.7628  -4.7627  -4.7529  -4.7504  -4.7355
    -4.7283  -4.7217  -4.6987  -4.6962  -4.6759  -4.6706  -4.6699  -4.6463
    -4.6428  -4.6313  -4.5111  -4.4770  -4.4413  -4.4270  -4.3995  -4.3895
    -4.2849  -4.2257  -4.2144  -4.2066  -4.2002  -4.1733  -4.1660  -4.1475
    -4.1334  -4.1119

     the Fermi energy is    -6.9669 ev

!    total energy              =  -21093.78502258 Ry
     Harris-Foulkes estimate   =  -21093.78502264 Ry
     estimated scf accuracy    <          6.1E-11 Ry

     The total energy is the sum of the following terms:

     one-electron contribution = -744338.83821359 Ry
     hartree contribution      =  371900.37550257 Ry
     xc contribution           =   -2234.32814478 Ry
     ewald contribution        =  358453.85135201 Ry
     Dispersion Correction     =      -1.39616798 Ry
     one-center paw contrib.   =   -4873.45269625 Ry
     smearing contrib. (-TS)   =       0.00334543 Ry

     total magnetization       =   160.40 Bohr mag/cell
     absolute magnetization    =   167.38 Bohr mag/cell

     convergence has been achieved in  13 iterations

     negative rho (up, down):  2.507E-02 1.922E-02

     Forces acting on atoms (cartesian axes, Ry/au):

     atom    1 type  1   force =     0.00010338    0.00062598    0.00865318
     atom    2 type  1   force =     0.00263694   -0.00395584   -0.01573948
     atom    3 type  1   force =    -0.00086868   -0.00064345    0.00840591
     atom    4 type  1   force =     0.00071606    0.00128129   -0.00806280
     atom    5 type  1   force =     0.00004959    0.00000175   -0.00001418
     atom    6 type  1   force =     0.00003674   -0.00002137   -0.00002797
     atom    7 type  1   force =    -0.00004746   -0.00002008   -0.00000656
     atom    8 type  1   force =     0.00001769    0.00002589    0.00003037
     atom    9 type  1   force =     0.00006626    0.00008855    0.00813271
     atom   10 type  1   force =    -0.00064175   -0.00047275    0.00862490
     atom   11 type  1   force =     0.00108402   -0.00022559   -0.00870959
     atom   12 type  1   force =     0.00044341    0.00037035   -0.01267282
     atom   13 type  1   force =     0.00000667    0.00002841   -0.00003122
     atom   14 type  1   force =     0.00002560    0.00001952    0.00002488
     atom   15 type  1   force =     0.00007018    0.00004714   -0.00005220
     atom   16 type  1   force =    -0.00000092   -0.00000142    0.00005344
     atom   17 type  1   force =    -0.00090912   -0.00055764    0.00840945
     atom   18 type  1   force =     0.00145064    0.00026665   -0.00803893
     atom   19 type  1   force =     0.00076746    0.00061601    0.00849408
     atom   20 type  1   force =    -0.00126561    0.00153821   -0.00296128
     atom   21 type  1   force =    -0.00003722   -0.00004047   -0.00000981
     atom   22 type  1   force =     0.00003074    0.00000829    0.00003500
     atom   23 type  1   force =     0.00005705    0.00003050   -0.00000005
     atom   24 type  1   force =    -0.00004295    0.00005247   -0.00003461
     atom   25 type  1   force =     0.00003159   -0.00003162    0.00726351
     atom   26 type  1   force =    -0.00102170    0.00133819    0.00816566
     atom   27 type  1   force =     0.00129915    0.00084647   -0.00345063
     atom   28 type  1   force =     0.00007779   -0.00108372   -0.00800108
     atom   29 type  1   force =    -0.00001642   -0.00001044    0.00008098
     atom   30 type  1   force =    -0.00000337   -0.00000956    0.00006003
     atom   31 type  1   force =     0.00005368    0.00004032   -0.00002574
     atom   32 type  1   force =    -0.00006532   -0.00004915   -0.00003311
     atom   33 type  1   force =     0.00007594   -0.00072684    0.00844557
     atom   34 type  1   force =    -0.00059067   -0.00117487   -0.00812072
     atom   35 type  1   force =     0.00062544   -0.00010965    0.00865994
     atom   36 type  1   force =    -0.00290829    0.00387246   -0.01572143
     atom   37 type  1   force =    -0.00002656   -0.00000505   -0.00002096
     atom   38 type  1   force =     0.00001951    0.00006519    0.00003365
     atom   39 type  1   force =     0.00001921    0.00004689   -0.00001500
     atom   40 type  1   force =    -0.00000685    0.00004356   -0.00002713
     atom   41 type  1   force =     0.00015161    0.00005068    0.00906806
     atom   42 type  1   force =     0.00091925   -0.00140812    0.00814348
     atom   43 type  1   force =    -0.00092892   -0.00057872   -0.01211573
     atom   44 type  1   force =    -0.00102162    0.00042838   -0.00793426
     atom   45 type  1   force =     0.00000602    0.00000680    0.00001972
     atom   46 type  1   force =    -0.00001109    0.00000223    0.00006418
     atom   47 type  1   force =    -0.00003963   -0.00002838   -0.00000638
     atom   48 type  1   force =    -0.00007069   -0.00004236   -0.00002884
     atom   49 type  1   force =     0.00081168    0.00055730    0.00850949
     atom   50 type  1   force =     0.00108419   -0.00181555   -0.00291041
     atom   51 type  1   force =    -0.00066662    0.00032623    0.00849989
     atom   52 type  1   force =    -0.00131306   -0.00013948   -0.00815012
     atom   53 type  1   force =     0.00004498    0.00004209   -0.00000182
     atom   54 type  1   force =     0.00003415   -0.00005316   -0.00003747
     atom   55 type  1   force =    -0.00001143   -0.00002446   -0.00002586
     atom   56 type  1   force =     0.00006373   -0.00000071    0.00003447
     atom   57 type  1   force =     0.00008622   -0.00001527    0.00814396
     atom   58 type  1   force =     0.00051967    0.00034611    0.00860185
     atom   59 type  1   force =     0.00015352    0.00110001   -0.00864436
     atom   60 type  1   force =    -0.00113809   -0.00085817   -0.00339898
     atom   61 type  1   force =     0.00002814   -0.00000677   -0.00003379
     atom   62 type  1   force =    -0.00000887   -0.00000436    0.00000676
     atom   63 type  1   force =     0.00007168    0.00005393   -0.00005161
     atom   64 type  1   force =    -0.00007117   -0.00004565    0.00000314
     atom   65 type  2   force =    -0.00000951   -0.00000523   -0.00009879
     atom   66 type  3   force =     0.00000400   -0.00000194   -0.00005217

     Total force =     0.000375     Total SCF correction =     0.000047
     SCF correction compared to forces is large: reduce conv_thr to get better values

     bfgs converged in  10 scf cycles and   9 bfgs steps
     (criteria: energy <  7.3E-07 Ry, force <  3.9E-04 Ry/Bohr)

     End of BFGS Geometry Optimization

     Final energy   =  -21093.7850225781 Ry
Begin final coordinates

ATOMIC_POSITIONS (angstrom)
Fe       1.654912953   1.170200133   0.000000000    0   0   0
Fe       0.000000000   0.000000000   2.026984232    0   0   0
Fe       4.964738858   3.510600399   0.000000000    0   0   0
Fe       3.309825906   2.340400266   2.026984232    0   0   0
Fe       1.679526763   1.167093211   4.026201968
Fe       3.335619523   9.326848379   6.017188364
Fe       4.959608310   3.535219285   4.043023967
Fe       3.393832505   2.334893145   6.022431305
Fe       2.482363858   3.510600399   0.000000000    0   0   0
Fe       4.137287953   1.170200133   0.000000000    0   0   0
Fe       0.827450906   2.340400266   2.026984232    0   0   0
Fe       2.482375000   0.000000000   2.026984232    0   0   0
Fe       2.482734550   3.509609673   4.048838306
Fe       4.160670968   1.186912143   4.031868992
Fe       0.912669523   2.302140754   6.027362897
Fe       2.508702269   0.018703157   6.017524866
Fe       6.619662953   1.170200133   0.000000000    0   0   0
Fe       4.964750000   0.000000000   2.026984232    0   0   0
Fe       9.929488858   3.510600399   0.000000000    0   0   0
Fe       8.274575906   2.340400266   2.026984232    0   0   0
Fe       6.640971716   1.156958453   4.042746254
Fe       4.987375545   0.080905937   6.022547506
Fe       9.933237676   3.484573387   4.039812441
Fe       8.457907298   2.081491841   5.979904884
Fe       7.447113858   3.510600399   0.000000000    0   0   0
Fe       9.102037953   1.170200133   0.000000000    0   0   0
Fe       5.792200906   2.340400266   2.026984232    0   0   0
Fe       7.447125000   0.000000000   2.026984232    0   0   0
Fe       7.446449658   3.509706175   4.058561166
Fe       9.131282463   1.125965222   4.000701695
Fe       5.881940137   2.403264813   6.003501260
Fe      10.772145194   9.268673803   6.031716932
Fe       3.309814764   5.851000664   0.000000000    0   0   0
Fe       1.654901811   4.680800531   2.026984232    0   0   0
Fe       6.619640670   8.191400930   0.000000000    0   0   0
Fe       4.964727717   7.021200797   2.026984232    0   0   0
Fe       3.284492045   5.853324502   4.030480264
Fe      11.502523976   4.675228994   6.019713860
Fe       6.625012258   8.215557422   4.026391284
Fe       4.940580309   7.057059055   6.017848365
Fe       4.137265670   8.191400930   0.000000000    0   0   0
Fe       5.792189764   5.851000664   0.000000000    0   0   0
Fe       2.482352717   7.021200797   2.026984232    0   0   0
Fe       4.137276811   4.680800531   2.026984232    0   0   0
Fe       4.135902171   8.190389481   4.009870487
Fe       5.760087832   5.893433410   4.000912418
Fe      12.371715227   6.992786503   6.024648270
Fe       4.055093829   4.726352940   6.032012404
Fe       8.274564764   5.851000664   0.000000000    0   0   0
Fe       6.619651811   4.680800531   2.026984232    0   0   0
Fe      11.584390670   8.191400930   0.000000000    0   0   0
Fe       9.929477717   7.021200797   2.026984232    0   0   0
Fe       8.251048680   5.862945813   4.040039473
Fe       6.437093282   4.939212617   5.979631314
Fe      11.578245651   8.166715318   4.030324647
Fe       9.896703509   6.945831600   6.019243834
Fe       9.102015670   8.191400930   0.000000000    0   0   0
Fe      10.756939764   5.851000664   0.000000000    0   0   0
Fe       7.447102717   7.021200797   2.026984232    0   0   0
Fe       9.102026811   4.680800531   2.026984232    0   0   0
Fe       9.101209356   8.192032939   4.048806193
Fe      10.731384245   5.833050372   4.031234252
Fe       7.438978364   7.113915868   6.027705474
Fe       9.013672044   4.617777028   6.002047235
N        7.448222789   3.510909588   6.333471881
H        4.597203058   8.516955986   6.970981378
End final coordinates



     Writing output data file Fe_N_H_paper_480c_ESM_pn25.save/

     init_run     :     94.02s CPU     95.30s WALL (       1 calls)
     electrons    :  73089.19s CPU  73644.53s WALL (      10 calls)
     update_pot   :    185.48s CPU    185.72s WALL (       9 calls)
     forces       :    502.92s CPU    506.60s WALL (      10 calls)

     Called by init_run:
     wfcinit      :     58.36s CPU     59.42s WALL (       1 calls)
     potinit      :     10.96s CPU     11.00s WALL (       1 calls)
     hinit0       :     14.84s CPU     14.92s WALL (       1 calls)

     Called by electrons:
     c_bands      :  67727.94s CPU  68216.76s WALL (     181 calls)
     sum_band     :   3036.87s CPU   3081.37s WALL (     181 calls)
     v_of_rho     :    297.78s CPU    298.87s WALL (     182 calls)
     newd         :     57.26s CPU     58.14s WALL (     182 calls)
     PAW_pot      :    125.23s CPU    125.62s WALL (     191 calls)
     mix_rho      :   1769.26s CPU   1785.16s WALL (     181 calls)

     Called by c_bands:
     init_us_2    :     84.97s CPU     86.65s WALL (    1146 calls)
     cegterg      :  50773.37s CPU  51151.82s WALL (     555 calls)

     Called by sum_band:
     sum_band:bec :      5.38s CPU      5.41s WALL (     570 calls)
     addusdens    :     68.97s CPU     70.44s WALL (     181 calls)

     Called by *egterg:
     h_psi        :  14441.41s CPU  14562.33s WALL (    4796 calls)
     s_psi        :   3021.95s CPU   3025.87s WALL (    4796 calls)
     g_psi        :     41.21s CPU     41.40s WALL (    4238 calls)
     cdiaghg      :  20676.13s CPU  20765.09s WALL (    4739 calls)

     Called by h_psi:
     h_psi:pot    :  14393.68s CPU  14473.84s WALL (    4796 calls)
     h_psi:calbec :   3045.62s CPU   3050.27s WALL (    4796 calls)
     vloc_psi     :   8319.11s CPU   8388.68s WALL (    4796 calls)
     add_vuspsi   :   3028.88s CPU   3034.85s WALL (    4796 calls)

     General routines
     calbec       :   4287.49s CPU   4294.41s WALL (    5486 calls)
     fft          :    195.39s CPU    196.30s WALL (    4707 calls)
     ffts         :    897.23s CPU    904.01s WALL (  107426 calls)
     fftw         :   7800.37s CPU   7868.46s WALL ( 2321312 calls)
     interpolate  :     18.38s CPU     18.47s WALL (     364 calls)
     davcio       :      0.79s CPU    105.60s WALL (    4472 calls)

     Parallel routines
     fft_scatt_xy :   1567.98s CPU   1575.75s WALL ( 2433445 calls)
     fft_scatt_yz :   2360.75s CPU   2394.66s WALL ( 2433445 calls)

     PWSCF        :     20h33m CPU     20h42m WALL


   This run was terminated on:  23:45:47  13Jun2022            

=------------------------------------------------------------------------------=
   JOB DONE.
=------------------------------------------------------------------------------=
