
     Program PWSCF v.6.7MaX starts on 16Jun2022 at 19:29:20 

     This program is part of the open-source Quantum ESPRESSO suite
     for quantum simulation of materials; please cite
         "P. Giannozzi et al., J. Phys.:Condens. Matter 21 395502 (2009);
         "P. Giannozzi et al., J. Phys.:Condens. Matter 29 465901 (2017);
          URL http://www.quantum-espresso.org", 
     in publications or presentations arising from this work. More details at
     http://www.quantum-espresso.org/quote

     Parallel version (MPI), running on   256 processors

     MPI processes distributed on     2 nodes
     K-points division:     npool     =       8
     R & G space division:  proc/nbgrp/npool/nimage =      32
     Waiting for input...
     Reading input from standard input
Warning: card &CELL ignored
Warning: card / ignored

     Current dimensions of program PWSCF are:
     Max number of different atomic species (ntypx) = 10
     Max number of k-points (npk) =  40000
     Max angular momentum in pseudopotentials (lmaxx) =  3
     file Fe.pbe-spn-kjpaw_psl.0.2.1.UPF: wavefunction(s)  3D renormalized

     IMPORTANT: XC functional enforced from input :
     Exchange-correlation= PBE
                           (   1   4   3   4   0   0   0)
     Any further DFT definition will be discarded
     Please, verify this is what you really want


     -------------------------------------------------
     Parameters for Dispersion (Grimme-D2) Correction:
     -------------------------------------------------
       atom      VdW radius       C_6     

        Fe         2.952        374.666
        N          2.640         42.670
        H          1.892          4.857

     Subspace diagonalization in iterative solution of the eigenvalue problem:
     one sub-group per band group will be used
     scalapack distributed-memory algorithm (size of sub-group:  5*  5 procs)


     Parallelization info
     --------------------
     sticks:   dense  smooth     PW     G-vecs:    dense   smooth      PW
     Min         396     198     52                90796    32100    4368
     Max         397     199     53                90807    32109    4377
     Sum       12685    6351   1677              2905599  1027285  139897



     bravais-lattice index     =            0
     lattice parameter (alat)  =      18.7640  a.u.
     unit-cell volume          =   16360.3161 (a.u.)^3
     number of atoms/cell      =           66
     number of atomic types    =            3
     number of electrons       =      1030.00
     number of Kohn-Sham states=          618
     kinetic-energy cutoff     =      60.0000  Ry
     charge density cutoff     =     480.0000  Ry
     scf convergence threshold =      1.0E-08
     mixing beta               =       0.2000
     number of iterations used =           10  local-TF  mixing
     energy convergence thresh.=      7.3E-07
     force convergence thresh. =      3.9E-04
     Exchange-correlation= PBE
                           (   1   4   3   4   0   0   0)
     nstep                     =           50


     Effective Screening Medium Method
     =================================
     Boundary Conditions: Metal-Slab-Metal
     field strength                   =     0.02 Ry/a.u.
     grid points for fit at edges     =        4 


     celldm(1)=  18.764036  celldm(2)=   0.000000  celldm(3)=   0.000000
     celldm(4)=   0.000000  celldm(5)=   0.000000  celldm(6)=   0.000000

     crystal axes: (cart. coord. in units of alat)
               a(1) = (   1.000000   0.000000   0.000000 )  
               a(2) = (   0.333330   0.942807   0.000000 )  
               a(3) = (   0.000000   0.000000   2.626577 )  

     reciprocal axes: (cart. coord. in units 2 pi/alat)
               b(1) = (  1.000000 -0.353551  0.000000 )  
               b(2) = (  0.000000  1.060663  0.000000 )  
               b(3) = (  0.000000  0.000000  0.380724 )  


     PseudoPot. # 1 for Fe read from file:
     ../../SSSP/Fe.pbe-spn-kjpaw_psl.0.2.1.UPF
     MD5 check sum: e86618425769142926afa95317d90200
     Pseudo is Projector augmented-wave + core cor, Zval = 16.0
     Generated using "atomic" code by A. Dal Corso  v.5.0.99 svn rev. 10869
     Shape of augmentation charge: PSQ
     Using radial grid of 1191 points,  6 beta functions with: 
                l(1) =   0
                l(2) =   0
                l(3) =   1
                l(4) =   1
                l(5) =   2
                l(6) =   2
     Q(r) pseudized with 0 coefficients 


     PseudoPot. # 2 for N  read from file:
     ../../SSSP/N.pbe-n-radius_5.UPF
     MD5 check sum: 16739722b17309cd8fe442a2ace49922
     Pseudo is Ultrasoft + core correction, Zval =  5.0
     Generated using "atomic" code by A. Dal Corso  v.5.1
     Using radial grid of 1085 points,  4 beta functions with: 
                l(1) =   0
                l(2) =   0
                l(3) =   1
                l(4) =   1
     Q(r) pseudized with 0 coefficients 


     PseudoPot. # 3 for H  read from file:
     ../../SSSP/H.pbe-rrkjus_psl.1.0.0.UPF
     MD5 check sum: f52b6d4d1c606e5624b1dc7b2218f220
     Pseudo is Ultrasoft, Zval =  1.0
     Generated using "atomic" code by A. Dal Corso  v.5.1
     Using radial grid of  929 points,  2 beta functions with: 
                l(1) =   0
                l(2) =   0
     Q(r) pseudized with 0 coefficients 


     atomic species   valence    mass     pseudopotential
        Fe            16.00    55.84500     Fe( 1.00)
        N              5.00    14.00700     N ( 1.00)
        H              1.00     1.00800     H ( 1.00)

     Starting magnetic structure 
     atomic species   magnetization
        Fe           0.100
        N            0.100
        H            0.100

     No symmetry found



   Cartesian axes

     site n.     atom                  positions (alat units)
         1           Fe  tau(   1) = (   0.1666663   0.1178509   0.0000000  )
         2           Fe  tau(   2) = (   0.0000000   0.0000000   0.2041376  )
         3           Fe  tau(   3) = (   0.4999989   0.3535526   0.0000000  )
         4           Fe  tau(   4) = (   0.3333326   0.2357017   0.2041376  )
         5           Fe  tau(   5) = (   0.1686761   0.1178127   0.4053879  )
         6           Fe  tau(   6) = (   0.3341315   0.9417505   0.6038790  )
         7           Fe  tau(   7) = (   0.5010185   0.3547334   0.4069946  )
         8           Fe  tau(   8) = (   0.3389328   0.2353237   0.6057351  )
         9           Fe  tau(   9) = (   0.2499989   0.3535526   0.0000000  )
        10           Fe  tau(  10) = (   0.4166663   0.1178509   0.0000000  )
        11           Fe  tau(  11) = (   0.0833326   0.2357017   0.2041376  )
        12           Fe  tau(  12) = (   0.2500000   0.0000000   0.2041376  )
        13           Fe  tau(  13) = (   0.2500084   0.3535729   0.4069214  )
        14           Fe  tau(  14) = (   0.4190425   0.1195526   0.4061230  )
        15           Fe  tau(  15) = (   0.0867832   0.2339355   0.6042259  )
        16           Fe  tau(  16) = (   0.2513422   0.0009614   0.6055814  )
        17           Fe  tau(  17) = (   0.6666663   0.1178509   0.0000000  )
        18           Fe  tau(  18) = (   0.5000000   0.0000000   0.2041376  )
        19           Fe  tau(  19) = (   0.9999989   0.3535526   0.0000000  )
        20           Fe  tau(  20) = (   0.8333326   0.2357017   0.2041376  )
        21           Fe  tau(  21) = (   0.6681148   0.1184360   0.4069829  )
        22           Fe  tau(  22) = (   0.5015260   0.0054035   0.6057602  )
        23           Fe  tau(  23) = (   0.9990254   0.3524190   0.4069836  )
        24           Fe  tau(  24) = (   0.8421952   0.2232795   0.6023458  )
        25           Fe  tau(  25) = (   0.7499989   0.3535526   0.0000000  )
        26           Fe  tau(  26) = (   0.9166663   0.1178509   0.0000000  )
        27           Fe  tau(  27) = (   0.5833326   0.2357017   0.2041376  )
        28           Fe  tau(  28) = (   0.7500000   0.0000000   0.2041376  )
        29           Fe  tau(  29) = (   0.7500309   0.3535694   0.4028860  )
        30           Fe  tau(  30) = (   0.9184071   0.1154439   0.4036023  )
        31           Fe  tau(  31) = (   0.5922594   0.2420028   0.6095128  )
        32           Fe  tau(  32) = (   1.0839296   0.9390490   0.6042254  )
        33           Fe  tau(  33) = (   0.3333315   0.5892543   0.0000000  )
        34           Fe  tau(  34) = (   0.1666652   0.4714034   0.2041376  )
        35           Fe  tau(  35) = (   0.6666640   0.8249560   0.0000000  )
        36           Fe  tau(  36) = (   0.4999978   0.7071052   0.2041376  )
        37           Fe  tau(  37) = (   0.3313617   0.5893276   0.4053908  )
        38           Fe  tau(  38) = (   1.1611812   0.4718200   0.6057582  )
        39           Fe  tau(  39) = (   0.6673001   0.8268787   0.4053878  )
        40           Fe  tau(  40) = (   0.4992589   0.7082242   0.6038060  )
        41           Fe  tau(  41) = (   0.4166640   0.8249560   0.0000000  )
        42           Fe  tau(  42) = (   0.5833315   0.5892543   0.0000000  )
        43           Fe  tau(  43) = (   1.2499978   0.7071052   0.2041376  )
        44           Fe  tau(  44) = (   0.4166652   0.4714034   0.2041376  )
        45           Fe  tau(  45) = (   0.4166750   0.8249924   0.4051227  )
        46           Fe  tau(  46) = (   0.5816440   0.5916935   0.4035888  )
        47           Fe  tau(  47) = (   1.2487180   0.7062162   0.6055774  )
        48           Fe  tau(  48) = (   0.4133036   0.4732283   0.6042394  )
        49           Fe  tau(  49) = (   0.8333315   0.5892543   0.0000000  )
        50           Fe  tau(  50) = (   0.6666652   0.4714034   0.2041376  )
        51           Fe  tau(  51) = (   1.1666640   0.8249560   0.0000000  )
        52           Fe  tau(  52) = (   0.9999978   0.7071052   0.2041376  )
        53           Fe  tau(  53) = (   0.8319388   0.5887338   0.4069947  )
        54           Fe  tau(  54) = (   0.6578912   0.4839290   0.6023306  )
        55           Fe  tau(  55) = (   1.1660796   0.8230901   0.4053873  )
        56           Fe  tau(  56) = (   0.9985750   0.7017844   0.6057248  )
        57           Fe  tau(  57) = (   0.9166640   0.8249560   0.0000000  )
        58           Fe  tau(  58) = (   1.0833315   0.5892543   0.0000000  )
        59           Fe  tau(  59) = (   0.7499978   0.7071052   0.2041376  )
        60           Fe  tau(  60) = (   0.9166652   0.4714034   0.2041376  )
        61           Fe  tau(  61) = (   0.9166941   0.8250019   0.4069198  )
        62           Fe  tau(  62) = (   1.0809968   0.5876199   0.4061253  )
        63           Fe  tau(  63) = (   0.7494825   0.7109756   0.6042358  )
        64           Fe  tau(  64) = (   0.9078936   0.4651830   0.6094990  )
        65           N   tau(  65) = (   0.7501544   0.3536979   0.7049393  )
        66           H   tau(  66) = (   0.7501627   0.3537519   0.8083875  )

     number of k points=    10  Methfessel-Paxton smearing, width (Ry)=  0.0100
                       cart. coord. in units 2pi/alat
        k(    1) = (   0.0000000   0.0000000   0.0000000), wk =   0.0625000
        k(    2) = (   0.0000000   0.2651656   0.0000000), wk =   0.1250000
        k(    3) = (   0.0000000  -0.5303313   0.0000000), wk =   0.0625000
        k(    4) = (   0.2500000  -0.0883878   0.0000000), wk =   0.1250000
        k(    5) = (   0.2500000   0.1767779   0.0000000), wk =   0.1250000
        k(    6) = (   0.2500000  -0.6187190   0.0000000), wk =   0.1250000
        k(    7) = (   0.2500000  -0.3535534   0.0000000), wk =   0.1250000
        k(    8) = (  -0.5000000   0.1767755   0.0000000), wk =   0.0625000
        k(    9) = (  -0.5000000   0.4419412   0.0000000), wk =   0.1250000
        k(   10) = (  -0.5000000  -0.3535558   0.0000000), wk =   0.0625000

     Dense  grid:  2905599 G-vectors     FFT dimensions: ( 135, 135, 360)

     Smooth grid:  1027285 G-vectors     FFT dimensions: (  96,  96, 243)

     Estimated max dynamical RAM per process >     639.95 MB

     Estimated total dynamical RAM >     159.99 GB

     Check: negative core charge=   -0.000039
     Generating pointlists ...
     new r_m :   0.0783 (alat units)  1.4686 (a.u.) for type    1
     new r_m :   0.0427 (alat units)  0.8007 (a.u.) for type    2
     new r_m :   0.0427 (alat units)  0.8007 (a.u.) for type    3

     Initial potential from superposition of free atoms

     starting charge 1029.97193, renormalised to 1030.00000

     negative rho (up, down):  1.347E-02 1.102E-02
     Starting wfcs are  837 randomized atomic wfcs
     Checking if some PAW data can be deallocated... 

     total cpu time spent up to now is       31.5 secs

     Self-consistent Calculation

     iteration #  1     ecut=    60.00 Ry     beta= 0.20
     Davidson diagonalization with overlap
     ethr =  1.00E-04,  avg # of iterations = 18.6

     negative rho (up, down):  7.714E-03 6.242E-03

     total cpu time spent up to now is      337.8 secs

     total energy              =  -21077.25660971 Ry
     estimated scf accuracy    <    1277.69457995 Ry

     total magnetization       =    67.64 Bohr mag/cell
     absolute magnetization    =    69.54 Bohr mag/cell

     iteration #  2     ecut=    60.00 Ry     beta= 0.20
     Davidson diagonalization with overlap
     ethr =  1.00E-02,  avg # of iterations =  1.0

     negative rho (up, down):  6.129E-03 7.509E-03

     total cpu time spent up to now is      385.3 secs

     total energy              =  -21090.91570075 Ry
     estimated scf accuracy    <     357.00601522 Ry

     total magnetization       =    79.30 Bohr mag/cell
     absolute magnetization    =    81.62 Bohr mag/cell

     iteration #  3     ecut=    60.00 Ry     beta= 0.20
     Davidson diagonalization with overlap
     ethr =  1.00E-02,  avg # of iterations =  1.0

     negative rho (up, down):  7.078E-03 9.127E-03

     total cpu time spent up to now is      431.7 secs

     total energy              =  -21093.73216833 Ry
     estimated scf accuracy    <      15.37889085 Ry

     total magnetization       =   121.13 Bohr mag/cell
     absolute magnetization    =   121.75 Bohr mag/cell

     iteration #  4     ecut=    60.00 Ry     beta= 0.20
     Davidson diagonalization with overlap
     ethr =  1.49E-03,  avg # of iterations =  1.0

     negative rho (up, down):  5.351E-03 6.669E-03

     total cpu time spent up to now is      477.5 secs

     total energy              =  -21093.77222085 Ry
     estimated scf accuracy    <      19.37860453 Ry

     total magnetization       =   127.50 Bohr mag/cell
     absolute magnetization    =   128.09 Bohr mag/cell

     iteration #  5     ecut=    60.00 Ry     beta= 0.20
     Davidson diagonalization with overlap
     ethr =  1.49E-03,  avg # of iterations =  1.0

     negative rho (up, down):  2.057E-02 5.331E-02

     total cpu time spent up to now is      522.7 secs

     total energy              =  -21092.59356609 Ry
     estimated scf accuracy    <      24.54457794 Ry

     total magnetization       =   132.22 Bohr mag/cell
     absolute magnetization    =   132.84 Bohr mag/cell

     iteration #  6     ecut=    60.00 Ry     beta= 0.20
     Davidson diagonalization with overlap
     ethr =  1.49E-03,  avg # of iterations =  2.0

     negative rho (up, down):  2.141E-02 6.663E-02

     total cpu time spent up to now is      574.5 secs

     total energy              =  -21092.65473154 Ry
     estimated scf accuracy    <       8.91022007 Ry

     total magnetization       =   148.40 Bohr mag/cell
     absolute magnetization    =   149.56 Bohr mag/cell

     iteration #  7     ecut=    60.00 Ry     beta= 0.20
     Davidson diagonalization with overlap
     ethr =  8.65E-04,  avg # of iterations =  5.2

     negative rho (up, down):  4.480E-04 2.480E-02

     total cpu time spent up to now is      633.0 secs

     total energy              =  -21092.74472604 Ry
     estimated scf accuracy    <       3.42909227 Ry

     total magnetization       =   152.55 Bohr mag/cell
     absolute magnetization    =   154.35 Bohr mag/cell

     iteration #  8     ecut=    60.00 Ry     beta= 0.20
     Davidson diagonalization with overlap
     ethr =  3.33E-04,  avg # of iterations = 13.6

     negative rho (up, down):  3.261E-04 5.004E-03

     total cpu time spent up to now is      771.6 secs

     total energy              =  -21093.44928534 Ry
     estimated scf accuracy    <       7.29034182 Ry

     total magnetization       =   150.78 Bohr mag/cell
     absolute magnetization    =   155.46 Bohr mag/cell

     iteration #  9     ecut=    60.00 Ry     beta= 0.20
     Davidson diagonalization with overlap
     ethr =  3.33E-04,  avg # of iterations =  3.0

     negative rho (up, down):  1.736E-04 1.779E-03

     total cpu time spent up to now is      824.9 secs

     total energy              =  -21093.69874534 Ry
     estimated scf accuracy    <       0.51911521 Ry

     total magnetization       =   147.89 Bohr mag/cell
     absolute magnetization    =   151.92 Bohr mag/cell

     iteration # 10     ecut=    60.00 Ry     beta= 0.20
     Davidson diagonalization with overlap
     ethr =  5.04E-05,  avg # of iterations = 10.4

     negative rho (up, down):  9.112E-05 1.206E-03

     total cpu time spent up to now is      953.7 secs

     total energy              =  -21093.82749728 Ry
     estimated scf accuracy    <       0.59076385 Ry

     total magnetization       =   147.99 Bohr mag/cell
     absolute magnetization    =   151.92 Bohr mag/cell

     iteration # 11     ecut=    60.00 Ry     beta= 0.20
     Davidson diagonalization with overlap
     ethr =  5.04E-05,  avg # of iterations =  2.3

     negative rho (up, down):  2.991E-04 1.683E-03

     total cpu time spent up to now is     1005.5 secs

     total energy              =  -21093.83404062 Ry
     estimated scf accuracy    <       0.36145431 Ry

     total magnetization       =   150.85 Bohr mag/cell
     absolute magnetization    =   154.83 Bohr mag/cell

     iteration # 12     ecut=    60.00 Ry     beta= 0.20
     Davidson diagonalization with overlap
     ethr =  3.51E-05,  avg # of iterations =  5.7

     negative rho (up, down):  1.773E-04 1.820E-03

     total cpu time spent up to now is     1067.5 secs

     total energy              =  -21093.83589069 Ry
     estimated scf accuracy    <       0.34990199 Ry

     total magnetization       =   155.17 Bohr mag/cell
     absolute magnetization    =   159.39 Bohr mag/cell

     iteration # 13     ecut=    60.00 Ry     beta= 0.20
     Davidson diagonalization with overlap
     ethr =  3.40E-05,  avg # of iterations =  2.4

     negative rho (up, down):  3.384E-03 2.910E-03

     total cpu time spent up to now is     1120.7 secs

     total energy              =  -21093.84465939 Ry
     estimated scf accuracy    <       0.72430810 Ry

     total magnetization       =   157.83 Bohr mag/cell
     absolute magnetization    =   162.04 Bohr mag/cell

     iteration # 14     ecut=    60.00 Ry     beta= 0.20
     Davidson diagonalization with overlap
     ethr =  3.40E-05,  avg # of iterations =  7.6

     negative rho (up, down):  3.291E-03 3.283E-03

     total cpu time spent up to now is     1205.1 secs

     total energy              =  -21093.86916829 Ry
     estimated scf accuracy    <       0.71737930 Ry

     total magnetization       =   160.34 Bohr mag/cell
     absolute magnetization    =   165.42 Bohr mag/cell

     iteration # 15     ecut=    60.00 Ry     beta= 0.20
     Davidson diagonalization with overlap
     ethr =  3.40E-05,  avg # of iterations =  1.0

     negative rho (up, down):  8.352E-03 9.469E-03

     total cpu time spent up to now is     1250.9 secs

     total energy              =  -21093.88850664 Ry
     estimated scf accuracy    <       0.47453308 Ry

     total magnetization       =   161.24 Bohr mag/cell
     absolute magnetization    =   166.34 Bohr mag/cell

     iteration # 16     ecut=    60.00 Ry     beta= 0.20
     Davidson diagonalization with overlap
     ethr =  3.40E-05,  avg # of iterations =  1.0

     negative rho (up, down):  4.158E-02 4.443E-02

     total cpu time spent up to now is     1295.8 secs

     total energy              =  -21093.82448538 Ry
     estimated scf accuracy    <       0.62629114 Ry

     total magnetization       =   161.24 Bohr mag/cell
     absolute magnetization    =   166.43 Bohr mag/cell

     iteration # 17     ecut=    60.00 Ry     beta= 0.20
     Davidson diagonalization with overlap
     ethr =  3.40E-05,  avg # of iterations =  1.0

     negative rho (up, down):  3.341E-02 3.591E-02

     total cpu time spent up to now is     1340.9 secs

     total energy              =  -21093.81883884 Ry
     estimated scf accuracy    <       0.30766954 Ry

     total magnetization       =   162.04 Bohr mag/cell
     absolute magnetization    =   167.26 Bohr mag/cell

     iteration # 18     ecut=    60.00 Ry     beta= 0.20
     Davidson diagonalization with overlap
     ethr =  2.99E-05,  avg # of iterations =  1.1

     negative rho (up, down):  2.969E-02 3.171E-02

     total cpu time spent up to now is     1388.0 secs

     total energy              =  -21093.77482292 Ry
     estimated scf accuracy    <       0.21565364 Ry

     total magnetization       =   161.89 Bohr mag/cell
     absolute magnetization    =   167.17 Bohr mag/cell

     iteration # 19     ecut=    60.00 Ry     beta= 0.20
     Davidson diagonalization with overlap
     ethr =  2.09E-05,  avg # of iterations = 15.1

     negative rho (up, down):  4.749E-03 5.870E-03

     total cpu time spent up to now is     1521.7 secs

     total energy              =  -21093.80826335 Ry
     estimated scf accuracy    <       0.05371290 Ry

     total magnetization       =   161.38 Bohr mag/cell
     absolute magnetization    =   167.13 Bohr mag/cell

     iteration # 20     ecut=    60.00 Ry     beta= 0.20
     Davidson diagonalization with overlap
     ethr =  5.21E-06,  avg # of iterations = 15.1

     negative rho (up, down):  5.946E-02 5.999E-02

     total cpu time spent up to now is     1723.7 secs

     total energy              =  -21093.81328172 Ry
     estimated scf accuracy    <       0.05765729 Ry

     total magnetization       =   160.16 Bohr mag/cell
     absolute magnetization    =   166.24 Bohr mag/cell

     iteration # 21     ecut=    60.00 Ry     beta= 0.20
     Davidson diagonalization with overlap
     ethr =  5.21E-06,  avg # of iterations =  7.3

     negative rho (up, down):  8.812E-02 8.799E-02

     total cpu time spent up to now is     1801.4 secs

     total energy              =  -21093.81283621 Ry
     estimated scf accuracy    <       0.04843303 Ry

     total magnetization       =   160.71 Bohr mag/cell
     absolute magnetization    =   166.95 Bohr mag/cell

     iteration # 22     ecut=    60.00 Ry     beta= 0.20
     Davidson diagonalization with overlap
     ethr =  4.70E-06,  avg # of iterations =  3.1

     negative rho (up, down):  7.698E-02 7.755E-02

     total cpu time spent up to now is     1861.8 secs

     total energy              =  -21093.81039130 Ry
     estimated scf accuracy    <       0.02590344 Ry

     total magnetization       =   160.57 Bohr mag/cell
     absolute magnetization    =   166.84 Bohr mag/cell

     iteration # 23     ecut=    60.00 Ry     beta= 0.20
     Davidson diagonalization with overlap
     c_bands:  1 eigenvalues not converged
     ethr =  2.51E-06,  avg # of iterations = 10.7

     negative rho (up, down):  5.511E-02 5.641E-02

     total cpu time spent up to now is     1989.8 secs

     total energy              =  -21093.80655367 Ry
     estimated scf accuracy    <       0.02114155 Ry

     total magnetization       =   160.47 Bohr mag/cell
     absolute magnetization    =   166.75 Bohr mag/cell

     iteration # 24     ecut=    60.00 Ry     beta= 0.20
     Davidson diagonalization with overlap
     c_bands:  1 eigenvalues not converged
     ethr =  2.05E-06,  avg # of iterations = 16.9

     negative rho (up, down):  5.704E-02 5.843E-02

     total cpu time spent up to now is     2172.3 secs

     total energy              =  -21093.80898385 Ry
     estimated scf accuracy    <       0.01385150 Ry

     total magnetization       =   160.45 Bohr mag/cell
     absolute magnetization    =   166.68 Bohr mag/cell

     iteration # 25     ecut=    60.00 Ry     beta= 0.20
     Davidson diagonalization with overlap
     ethr =  1.34E-06,  avg # of iterations = 10.8

     negative rho (up, down):  3.365E-02 3.593E-02

     total cpu time spent up to now is     2250.7 secs

     total energy              =  -21093.80789699 Ry
     estimated scf accuracy    <       0.00815642 Ry

     total magnetization       =   160.45 Bohr mag/cell
     absolute magnetization    =   166.73 Bohr mag/cell

     iteration # 26     ecut=    60.00 Ry     beta= 0.20
     Davidson diagonalization with overlap
     c_bands:  3 eigenvalues not converged
     c_bands:  1 eigenvalues not converged
     ethr =  7.92E-07,  avg # of iterations = 16.6

     negative rho (up, down):  3.153E-02 3.396E-02

     total cpu time spent up to now is     2450.6 secs

     total energy              =  -21093.81111095 Ry
     estimated scf accuracy    <       0.02301866 Ry

     total magnetization       =   160.35 Bohr mag/cell
     absolute magnetization    =   166.89 Bohr mag/cell

     iteration # 27     ecut=    60.00 Ry     beta= 0.20
     Davidson diagonalization with overlap
     c_bands:  1 eigenvalues not converged
     ethr =  7.92E-07,  avg # of iterations = 14.9

     negative rho (up, down):  2.410E-02 2.699E-02

     total cpu time spent up to now is     2584.4 secs

     total energy              =  -21093.80867214 Ry
     estimated scf accuracy    <       0.00939378 Ry

     total magnetization       =   160.60 Bohr mag/cell
     absolute magnetization    =   167.13 Bohr mag/cell

     iteration # 28     ecut=    60.00 Ry     beta= 0.20
     Davidson diagonalization with overlap
     ethr =  7.92E-07,  avg # of iterations = 10.3

     negative rho (up, down):  2.100E-02 2.404E-02

     total cpu time spent up to now is     2690.2 secs

     total energy              =  -21093.81022424 Ry
     estimated scf accuracy    <       0.00097098 Ry

     total magnetization       =   160.88 Bohr mag/cell
     absolute magnetization    =   167.41 Bohr mag/cell

     iteration # 29     ecut=    60.00 Ry     beta= 0.20
     Davidson diagonalization with overlap
     ethr =  9.43E-08,  avg # of iterations = 13.5

     negative rho (up, down):  1.593E-02 1.930E-02

     total cpu time spent up to now is     2862.4 secs

     total energy              =  -21093.80947830 Ry
     estimated scf accuracy    <       0.00076283 Ry

     total magnetization       =   160.90 Bohr mag/cell
     absolute magnetization    =   167.51 Bohr mag/cell

     iteration # 30     ecut=    60.00 Ry     beta= 0.20
     Davidson diagonalization with overlap
     ethr =  7.41E-08,  avg # of iterations =  9.3

     negative rho (up, down):  1.444E-02 1.799E-02

     total cpu time spent up to now is     2988.9 secs

     total energy              =  -21093.80871516 Ry
     estimated scf accuracy    <       0.00147319 Ry

     total magnetization       =   161.01 Bohr mag/cell
     absolute magnetization    =   167.66 Bohr mag/cell

     iteration # 31     ecut=    60.00 Ry     beta= 0.20
     Davidson diagonalization with overlap
     ethr =  7.41E-08,  avg # of iterations =  5.4

     negative rho (up, down):  1.267E-02 1.639E-02

     total cpu time spent up to now is     3054.7 secs

     total energy              =  -21093.80672546 Ry
     estimated scf accuracy    <       0.00072777 Ry

     total magnetization       =   161.12 Bohr mag/cell
     absolute magnetization    =   167.77 Bohr mag/cell

     iteration # 32     ecut=    60.00 Ry     beta= 0.20
     Davidson diagonalization with overlap
     ethr =  7.07E-08,  avg # of iterations =  6.9

     negative rho (up, down):  1.115E-02 1.497E-02

     total cpu time spent up to now is     3119.3 secs

     total energy              =  -21093.80531699 Ry
     estimated scf accuracy    <       0.00024427 Ry

     total magnetization       =   161.11 Bohr mag/cell
     absolute magnetization    =   167.75 Bohr mag/cell

     iteration # 33     ecut=    60.00 Ry     beta= 0.20
     Davidson diagonalization with overlap
     ethr =  2.37E-08,  avg # of iterations =  8.8

     negative rho (up, down):  1.216E-02 1.601E-02

     total cpu time spent up to now is     3228.2 secs

     total energy              =  -21093.80494300 Ry
     estimated scf accuracy    <       0.00014181 Ry

     total magnetization       =   161.07 Bohr mag/cell
     absolute magnetization    =   167.75 Bohr mag/cell

     iteration # 34     ecut=    60.00 Ry     beta= 0.20
     Davidson diagonalization with overlap
     ethr =  1.38E-08,  avg # of iterations =  6.0

     negative rho (up, down):  1.269E-02 1.659E-02

     total cpu time spent up to now is     3290.7 secs

     total energy              =  -21093.80394487 Ry
     estimated scf accuracy    <       0.00006422 Ry

     total magnetization       =   161.05 Bohr mag/cell
     absolute magnetization    =   167.74 Bohr mag/cell

     iteration # 35     ecut=    60.00 Ry     beta= 0.20
     Davidson diagonalization with overlap
     ethr =  6.23E-09,  avg # of iterations =  9.4

     negative rho (up, down):  1.143E-02 1.538E-02

     total cpu time spent up to now is     3418.4 secs

     total energy              =  -21093.80277875 Ry
     estimated scf accuracy    <       0.00004984 Ry

     total magnetization       =   161.07 Bohr mag/cell
     absolute magnetization    =   167.77 Bohr mag/cell

     iteration # 36     ecut=    60.00 Ry     beta= 0.20
     Davidson diagonalization with overlap
     ethr =  4.84E-09,  avg # of iterations =  6.4

     negative rho (up, down):  1.157E-02 1.549E-02

     total cpu time spent up to now is     3501.8 secs

     total energy              =  -21093.80144640 Ry
     estimated scf accuracy    <       0.00002081 Ry

     total magnetization       =   161.09 Bohr mag/cell
     absolute magnetization    =   167.79 Bohr mag/cell

     iteration # 37     ecut=    60.00 Ry     beta= 0.20
     Davidson diagonalization with overlap
     ethr =  2.02E-09,  avg # of iterations =  9.8

     negative rho (up, down):  1.142E-02 1.533E-02

     total cpu time spent up to now is     3692.3 secs

     total energy              =  -21093.80126131 Ry
     estimated scf accuracy    <       0.00001977 Ry

     total magnetization       =   161.09 Bohr mag/cell
     absolute magnetization    =   167.81 Bohr mag/cell

     iteration # 38     ecut=    60.00 Ry     beta= 0.20
     Davidson diagonalization with overlap
     ethr =  1.92E-09,  avg # of iterations =  3.1

     negative rho (up, down):  1.137E-02 1.528E-02

     total cpu time spent up to now is     3746.8 secs

     total energy              =  -21093.80129624 Ry
     estimated scf accuracy    <       0.00000810 Ry

     total magnetization       =   161.08 Bohr mag/cell
     absolute magnetization    =   167.80 Bohr mag/cell

     iteration # 39     ecut=    60.00 Ry     beta= 0.20
     Davidson diagonalization with overlap
     ethr =  7.87E-10,  avg # of iterations =  5.7

     negative rho (up, down):  1.146E-02 1.537E-02

     total cpu time spent up to now is     3811.0 secs

     total energy              =  -21093.80128296 Ry
     estimated scf accuracy    <       0.00000699 Ry

     total magnetization       =   161.08 Bohr mag/cell
     absolute magnetization    =   167.80 Bohr mag/cell

     iteration # 40     ecut=    60.00 Ry     beta= 0.20
     Davidson diagonalization with overlap
     ethr =  6.79E-10,  avg # of iterations =  2.8

     negative rho (up, down):  1.152E-02 1.543E-02

     total cpu time spent up to now is     3867.1 secs

     total energy              =  -21093.80126087 Ry
     estimated scf accuracy    <       0.00000749 Ry

     total magnetization       =   161.08 Bohr mag/cell
     absolute magnetization    =   167.80 Bohr mag/cell

     iteration # 41     ecut=    60.00 Ry     beta= 0.20
     Davidson diagonalization with overlap
     ethr =  6.79E-10,  avg # of iterations =  1.0

     negative rho (up, down):  1.157E-02 1.544E-02

     total cpu time spent up to now is     3914.9 secs

     total energy              =  -21093.80092907 Ry
     estimated scf accuracy    <       0.00000614 Ry

     total magnetization       =   161.08 Bohr mag/cell
     absolute magnetization    =   167.80 Bohr mag/cell

     iteration # 42     ecut=    60.00 Ry     beta= 0.20
     Davidson diagonalization with overlap
     ethr =  5.96E-10,  avg # of iterations =  7.0

     negative rho (up, down):  1.159E-02 1.546E-02

     total cpu time spent up to now is     4003.4 secs

     total energy              =  -21093.80092732 Ry
     estimated scf accuracy    <       0.00000536 Ry

     total magnetization       =   161.08 Bohr mag/cell
     absolute magnetization    =   167.80 Bohr mag/cell

     iteration # 43     ecut=    60.00 Ry     beta= 0.20
     Davidson diagonalization with overlap
     ethr =  5.20E-10,  avg # of iterations =  5.3

     negative rho (up, down):  1.159E-02 1.546E-02

     total cpu time spent up to now is     4068.2 secs

     total energy              =  -21093.80101454 Ry
     estimated scf accuracy    <       0.00000325 Ry

     total magnetization       =   161.08 Bohr mag/cell
     absolute magnetization    =   167.80 Bohr mag/cell

     iteration # 44     ecut=    60.00 Ry     beta= 0.20
     Davidson diagonalization with overlap
     ethr =  3.15E-10,  avg # of iterations =  3.4

     negative rho (up, down):  1.164E-02 1.550E-02

     total cpu time spent up to now is     4123.4 secs

     total energy              =  -21093.80100573 Ry
     estimated scf accuracy    <       0.00000298 Ry

     total magnetization       =   161.09 Bohr mag/cell
     absolute magnetization    =   167.81 Bohr mag/cell

     iteration # 45     ecut=    60.00 Ry     beta= 0.20
     Davidson diagonalization with overlap
     ethr =  2.89E-10,  avg # of iterations =  1.1

     negative rho (up, down):  1.162E-02 1.549E-02

     total cpu time spent up to now is     4170.3 secs

     total energy              =  -21093.80095441 Ry
     estimated scf accuracy    <       0.00000228 Ry

     total magnetization       =   161.09 Bohr mag/cell
     absolute magnetization    =   167.81 Bohr mag/cell

     iteration # 46     ecut=    60.00 Ry     beta= 0.20
     Davidson diagonalization with overlap
     ethr =  2.22E-10,  avg # of iterations =  9.9

     negative rho (up, down):  1.145E-02 1.532E-02

     total cpu time spent up to now is     4345.0 secs

     total energy              =  -21093.80089368 Ry
     estimated scf accuracy    <       0.00000283 Ry

     total magnetization       =   161.09 Bohr mag/cell
     absolute magnetization    =   167.80 Bohr mag/cell

     iteration # 47     ecut=    60.00 Ry     beta= 0.20
     Davidson diagonalization with overlap
     ethr =  2.22E-10,  avg # of iterations =  7.0

     negative rho (up, down):  1.136E-02 1.523E-02

     total cpu time spent up to now is     4447.2 secs

     total energy              =  -21093.80096509 Ry
     estimated scf accuracy    <       0.00000078 Ry

     total magnetization       =   161.08 Bohr mag/cell
     absolute magnetization    =   167.80 Bohr mag/cell

     iteration # 48     ecut=    60.00 Ry     beta= 0.20
     Davidson diagonalization with overlap
     ethr =  7.53E-11,  avg # of iterations =  5.5

     negative rho (up, down):  1.136E-02 1.523E-02

     total cpu time spent up to now is     4530.3 secs

     total energy              =  -21093.80093712 Ry
     estimated scf accuracy    <       0.00000014 Ry

     total magnetization       =   161.09 Bohr mag/cell
     absolute magnetization    =   167.80 Bohr mag/cell

     iteration # 49     ecut=    60.00 Ry     beta= 0.20
     Davidson diagonalization with overlap
     ethr =  1.37E-11,  avg # of iterations = 10.3

     negative rho (up, down):  1.136E-02 1.522E-02

     total cpu time spent up to now is     4751.0 secs

     total energy              =  -21093.80091434 Ry
     estimated scf accuracy    <       0.00000016 Ry

     total magnetization       =   161.09 Bohr mag/cell
     absolute magnetization    =   167.80 Bohr mag/cell

     iteration # 50     ecut=    60.00 Ry     beta= 0.20
     Davidson diagonalization with overlap
     ethr =  1.37E-11,  avg # of iterations =  7.5

     negative rho (up, down):  1.135E-02 1.521E-02

     total cpu time spent up to now is     4822.0 secs

     total energy              =  -21093.80091950 Ry
     estimated scf accuracy    <       0.00000005 Ry

     total magnetization       =   161.09 Bohr mag/cell
     absolute magnetization    =   167.80 Bohr mag/cell

     iteration # 51     ecut=    60.00 Ry     beta= 0.20
     Davidson diagonalization with overlap
     ethr =  5.08E-12,  avg # of iterations =  8.1

     negative rho (up, down):  1.136E-02 1.522E-02

     total cpu time spent up to now is     4985.8 secs

     total energy              =  -21093.80088011 Ry
     estimated scf accuracy    <       0.00000006 Ry

     total magnetization       =   161.09 Bohr mag/cell
     absolute magnetization    =   167.80 Bohr mag/cell

     iteration # 52     ecut=    60.00 Ry     beta= 0.20
     Davidson diagonalization with overlap
     ethr =  5.08E-12,  avg # of iterations =  5.0

     negative rho (up, down):  1.135E-02 1.521E-02

     total cpu time spent up to now is     5069.7 secs

     total energy              =  -21093.80087300 Ry
     estimated scf accuracy    <       0.00000001 Ry

     total magnetization       =   161.09 Bohr mag/cell
     absolute magnetization    =   167.81 Bohr mag/cell

     iteration # 53     ecut=    60.00 Ry     beta= 0.20
     Davidson diagonalization with overlap
     ethr =  1.44E-12,  avg # of iterations = 11.2

     negative rho (up, down):  1.135E-02 1.521E-02

     total cpu time spent up to now is     5303.4 secs

     total energy              =  -21093.80087367 Ry
     estimated scf accuracy    <       0.00000002 Ry

     total magnetization       =   161.09 Bohr mag/cell
     absolute magnetization    =   167.81 Bohr mag/cell

     iteration # 54     ecut=    60.00 Ry     beta= 0.20
     Davidson diagonalization with overlap
     ethr =  1.44E-12,  avg # of iterations =  2.1

     negative rho (up, down):  1.135E-02 1.520E-02

     total cpu time spent up to now is     5362.2 secs

     total energy              =  -21093.80087322 Ry
     estimated scf accuracy    <       0.00000001 Ry

     total magnetization       =   161.09 Bohr mag/cell
     absolute magnetization    =   167.81 Bohr mag/cell

     iteration # 55     ecut=    60.00 Ry     beta= 0.20
     Davidson diagonalization with overlap
     ethr =  1.29E-12,  avg # of iterations =  6.5

     negative rho (up, down):  1.137E-02 1.523E-02

     Magnetic moment per site:
     atom:    1    charge:   12.9391    magn:    2.4361    constr:    0.0000
     atom:    2    charge:   12.9346    magn:    2.2617    constr:    0.0000
     atom:    3    charge:   12.9384    magn:    2.4420    constr:    0.0000
     atom:    4    charge:   12.9311    magn:    2.2594    constr:    0.0000
     atom:    5    charge:   12.9352    magn:    2.2427    constr:    0.0000
     atom:    6    charge:   12.9361    magn:    2.4086    constr:    0.0000
     atom:    7    charge:   12.9316    magn:    2.2456    constr:    0.0000
     atom:    8    charge:   12.9335    magn:    2.4361    constr:    0.0000
     atom:    9    charge:   12.9394    magn:    2.4337    constr:    0.0000
     atom:   10    charge:   12.9387    magn:    2.4415    constr:    0.0000
     atom:   11    charge:   12.9310    magn:    2.2659    constr:    0.0000
     atom:   12    charge:   12.9325    magn:    2.2563    constr:    0.0000
     atom:   13    charge:   12.9312    magn:    2.2590    constr:    0.0000
     atom:   14    charge:   12.9356    magn:    2.2100    constr:    0.0000
     atom:   15    charge:   12.9391    magn:    2.3928    constr:    0.0000
     atom:   16    charge:   12.9378    magn:    2.4092    constr:    0.0000
     atom:   17    charge:   12.9386    magn:    2.4420    constr:    0.0000
     atom:   18    charge:   12.9310    magn:    2.2594    constr:    0.0000
     atom:   19    charge:   12.9386    magn:    2.4420    constr:    0.0000
     atom:   20    charge:   12.9321    magn:    2.2506    constr:    0.0000
     atom:   21    charge:   12.9317    magn:    2.2454    constr:    0.0000
     atom:   22    charge:   12.9335    magn:    2.4362    constr:    0.0000
     atom:   23    charge:   12.9317    magn:    2.2454    constr:    0.0000
     atom:   24    charge:   12.9426    magn:    1.9261    constr:    0.0000
     atom:   25    charge:   12.9376    magn:    2.4491    constr:    0.0000
     atom:   26    charge:   12.9389    magn:    2.4358    constr:    0.0000
     atom:   27    charge:   12.9300    magn:    2.2660    constr:    0.0000
     atom:   28    charge:   12.9310    magn:    2.2659    constr:    0.0000
     atom:   29    charge:   12.9350    magn:    2.2921    constr:    0.0000
     atom:   30    charge:   12.9368    magn:    2.1808    constr:    0.0000
     atom:   31    charge:   12.9286    magn:    2.3163    constr:    0.0000
     atom:   32    charge:   12.9391    magn:    2.3926    constr:    0.0000
     atom:   33    charge:   12.9386    magn:    2.4360    constr:    0.0000
     atom:   34    charge:   12.9310    magn:    2.2594    constr:    0.0000
     atom:   35    charge:   12.9386    magn:    2.4360    constr:    0.0000
     atom:   36    charge:   12.9337    magn:    2.2617    constr:    0.0000
     atom:   37    charge:   12.9350    magn:    2.2429    constr:    0.0000
     atom:   38    charge:   12.9335    magn:    2.4361    constr:    0.0000
     atom:   39    charge:   12.9350    magn:    2.2429    constr:    0.0000
     atom:   40    charge:   12.9358    magn:    2.4082    constr:    0.0000
     atom:   41    charge:   12.9389    magn:    2.4477    constr:    0.0000
     atom:   42    charge:   12.9383    magn:    2.4357    constr:    0.0000
     atom:   43    charge:   12.9325    magn:    2.2564    constr:    0.0000
     atom:   44    charge:   12.9307    magn:    2.2659    constr:    0.0000
     atom:   45    charge:   12.9352    magn:    2.2232    constr:    0.0000
     atom:   46    charge:   12.9369    magn:    2.1806    constr:    0.0000
     atom:   47    charge:   12.9378    magn:    2.4091    constr:    0.0000
     atom:   48    charge:   12.9393    magn:    2.3927    constr:    0.0000
     atom:   49    charge:   12.9384    magn:    2.4420    constr:    0.0000
     atom:   50    charge:   12.9318    magn:    2.2506    constr:    0.0000
     atom:   51    charge:   12.9391    magn:    2.4361    constr:    0.0000
     atom:   52    charge:   12.9311    magn:    2.2594    constr:    0.0000
     atom:   53    charge:   12.9315    magn:    2.2457    constr:    0.0000
     atom:   54    charge:   12.9422    magn:    1.9261    constr:    0.0000
     atom:   55    charge:   12.9352    magn:    2.2427    constr:    0.0000
     atom:   56    charge:   12.9335    magn:    2.4360    constr:    0.0000
     atom:   57    charge:   12.9394    magn:    2.4337    constr:    0.0000
     atom:   58    charge:   12.9387    magn:    2.4415    constr:    0.0000
     atom:   59    charge:   12.9307    magn:    2.2659    constr:    0.0000
     atom:   60    charge:   12.9300    magn:    2.2660    constr:    0.0000
     atom:   61    charge:   12.9312    magn:    2.2590    constr:    0.0000
     atom:   62    charge:   12.9355    magn:    2.2100    constr:    0.0000
     atom:   63    charge:   12.9393    magn:    2.3929    constr:    0.0000
     atom:   64    charge:   12.9287    magn:    2.3143    constr:    0.0000
     atom:   65    charge:    1.3263    magn:   -0.0307    constr:    0.0000
     atom:   66    charge:    0.4411    magn:    0.0066    constr:    0.0000

     total cpu time spent up to now is     5434.3 secs

     End of self-consistent calculation

 ------ SPIN UP ------------


          k = 0.0000 0.0000 0.0000 (128403 PWs)   bands (ev):

   -88.8867 -88.8847 -88.8467 -88.8325 -88.8316 -88.8301 -88.8268 -88.8264
   -88.8249 -88.8237 -88.8199 -88.8193 -88.8158 -88.8115 -88.8100 -88.8098
   -88.8043 -88.8011 -88.7996 -88.7991 -88.7964 -88.7929 -88.7915 -88.7844
   -88.7767 -88.7748 -88.7705 -88.7704 -88.7702 -88.7619 -88.7383 -88.7333
   -88.7247 -88.7029 -88.6925 -88.6891 -88.6878 -88.6808 -88.6768 -88.6764
   -88.6688 -88.6685 -88.6684 -88.6671 -88.6630 -88.6622 -88.6607 -88.6588
   -88.6558 -88.6544 -88.6531 -88.6521 -88.6502 -88.6502 -88.6478 -88.6440
   -88.6420 -88.6409 -88.6373 -88.6344 -88.6296 -88.6285 -88.6231 -88.6124
   -55.0712 -55.0610 -55.0430 -55.0260 -55.0231 -55.0209 -55.0177 -55.0158
   -55.0142 -55.0117 -55.0111 -55.0101 -55.0080 -55.0065 -55.0056 -55.0038
   -55.0036 -54.9987 -54.9976 -54.9937 -54.9922 -54.9895 -54.9836 -54.9829
   -54.9753 -54.9747 -54.9747 -54.9689 -54.9668 -54.9626 -54.9620 -54.9616
   -54.9612 -54.9507 -54.9505 -54.9500 -54.9481 -54.9312 -54.9294 -54.9291
   -54.9290 -54.9289 -54.9211 -54.9210 -54.9143 -54.9140 -54.8900 -54.8782
   -54.8701 -54.8696 -54.8673 -54.8610 -54.8574 -54.8540 -54.8530 -54.8514
   -54.8504 -54.8475 -54.8449 -54.8431 -54.8428 -54.8410 -54.8409 -54.8384
   -54.8354 -54.8321 -54.8267 -54.8263 -54.8260 -54.8246 -54.8215 -54.8198
   -54.8145 -54.8087 -54.8069 -54.8064 -54.8056 -54.8043 -54.8006 -54.7996
   -54.7903 -54.7868 -54.7862 -54.7849 -54.7833 -54.7830 -54.7809 -54.7792
   -54.7755 -54.7751 -54.7739 -54.7720 -54.7719 -54.7662 -54.7637 -54.7633
   -54.7622 -54.7599 -54.7594 -54.7546 -54.7486 -54.7462 -54.7441 -54.7439
   -54.7394 -54.7362 -54.7344 -54.7284 -54.7280 -54.7275 -54.7258 -54.7234
   -54.7219 -54.7201 -54.7170 -54.7163 -54.7147 -54.7112 -54.7088 -54.7063
   -54.7061 -54.7058 -54.7054 -54.7039 -54.7035 -54.6987 -54.6977 -54.6977
   -54.6970 -54.6942 -54.6921 -54.6867 -54.6832 -54.6830 -54.6808 -54.6803
   -54.6746 -54.6743 -54.6731 -54.6722 -54.6676 -54.6667 -54.6666 -54.6629
   -54.6621 -54.6621 -54.6483 -54.6481 -54.6434 -54.6406 -54.6380 -54.6372
   -54.6362 -54.6327 -54.6326 -54.6311 -54.6234 -54.6227 -54.6182 -54.6156
   -54.6155 -54.6149 -54.6129 -54.6110 -54.6093 -54.6074 -54.6034 -54.5998
   -54.5976 -54.5975 -54.5940 -54.5889 -54.5877 -54.5836 -54.5833 -54.5812
   -54.5781 -54.5751 -54.5724 -54.5704 -54.5676 -54.5631 -54.5623 -54.5606
   -54.5589 -54.5583 -54.5577 -54.5570 -54.5557 -54.5553 -54.5513 -54.5482
   -16.9961  -8.8427  -8.4578  -7.2968  -7.0067  -6.9548  -6.9168  -6.8737
    -6.5026  -6.4301  -6.2687  -6.2658  -5.9758  -5.9393  -5.8066  -5.7847
    -5.6468  -5.5158  -5.4755  -5.4383  -5.3082  -5.3058  -5.2649  -5.2646
    -5.2480  -5.2023  -5.1806  -5.1213  -5.1182  -4.8772  -4.8461  -4.8363
    -4.8346  -4.8059  -4.7508  -4.7506  -4.7308  -4.7293  -4.7280  -4.7117
    -4.7103  -4.7095  -4.7061  -4.7033  -4.7026  -4.6960  -4.6753  -4.6712
    -4.6574  -4.6547  -4.6416  -4.6309  -4.6251  -4.6187  -4.5979  -4.5746
    -4.5482  -4.5330  -4.5186  -4.4620  -4.4570  -4.4520  -4.4399  -4.4328
    -4.3591  -4.3466  -4.1653  -4.1587  -4.1312  -4.1290  -4.1274  -4.1052
    -4.0408  -3.9985  -3.9789  -3.9704  -3.9615  -3.9594  -3.9551  -3.9509
    -3.9336  -3.9250  -3.9168  -3.9153  -3.9108  -3.9084  -3.9027  -3.9003
    -3.8970  -3.8911  -3.8883  -3.8762  -3.8744  -3.8732  -3.8664  -3.8530
    -3.8387  -3.8259  -3.8233  -3.8125  -3.8111  -3.7976  -3.7921  -3.7896
    -3.7831  -3.7632  -3.7594  -3.7581  -3.7526  -3.7511  -3.7413  -3.6822
    -3.6755  -3.5990  -3.5791  -3.5783  -3.5762  -3.5725  -3.5190  -3.5059
    -3.4648  -3.4571  -3.3883  -3.3845  -3.3777  -3.3718  -3.3662  -3.3660
    -3.3581  -3.3341  -3.3254  -3.3040  -3.3032  -3.2837  -3.2752  -3.2682
    -3.2584  -3.2522  -3.2393  -3.2360  -3.2328  -3.2310  -3.2261  -3.2198
    -3.2123  -3.1735  -3.1710  -3.1430  -3.1416  -3.0846  -3.0802  -3.0797
    -3.0791  -3.0516  -3.0274  -3.0264  -3.0238  -3.0160  -3.0033  -2.9904
    -2.9590  -2.9515  -2.9510  -2.9326  -2.9264  -2.9259  -2.9244  -2.9236
    -2.8891  -2.8814  -2.8736  -2.8568  -2.8494  -2.8370  -2.8354  -2.8283
    -2.8071  -2.8055  -2.8039  -2.8030  -2.7955  -2.7873  -2.7733  -2.7704
    -2.7423  -2.7341  -2.6759  -2.6693  -2.6623  -2.5526  -2.5481  -2.4116
    -2.3948  -2.3892  -2.2766  -2.2744  -2.2700  -2.2641  -2.2618  -2.2551
    -2.2434  -2.2401  -2.2278  -2.2085  -2.2034  -2.2005  -2.1884  -2.1788
    -2.1345  -2.1294  -2.1233  -2.1004  -2.0974  -2.0810  -2.0764  -2.0736
    -2.0676  -2.0560  -2.0555  -2.0488  -2.0488  -2.0399  -2.0087  -2.0060
    -1.9958  -1.9901  -1.9812  -1.9743  -1.9627  -1.9580  -1.9516  -1.9513
    -1.9278  -1.9250  -1.9244  -1.9154  -1.9139  -1.9104  -1.8980  -1.8972
    -1.8967  -1.8660  -1.8595  -1.8533  -1.8520  -1.8511  -1.8445  -1.8439
    -1.8413  -1.8335  -1.8330  -1.8306  -1.8287  -1.8268  -1.8221  -1.8182
    -1.8168  -1.8106  -1.8060  -1.8039  -1.7995  -1.7966  -1.7854  -1.7801
    -1.7708  -1.7639  -1.7573  -1.7559  -1.7430  -1.7382  -1.7253  -1.7183
    -1.7174  -1.7168  -1.7121  -1.7080  -1.7054  -1.6962  -1.6938  -1.6901
    -1.6716  -1.6664  -1.6403  -1.6335  -1.6235  -1.6100  -1.5987  -1.5980
    -1.5871  -1.5788  -1.5715  -1.5644  -1.4981  -1.4930  -1.4664  -1.4614
    -1.4543  -1.4490  -1.4416  -1.4326  -1.4308  -1.4243  -1.4204  -1.4198
    -1.4142  -1.4005  -1.3975  -1.3955  -1.3801  -1.3629  -1.3587  -1.3582
    -1.3570  -1.3450  -1.2943  -1.2687  -1.1687  -1.1040  -0.9698  -0.9628
    -0.9563  -0.9404  -0.8741  -0.8691  -0.8467  -0.8358  -0.8322  -0.8045
    -0.7786  -0.7455  -0.7338  -0.7064  -0.6961  -0.6910  -0.6722  -0.6338
    -0.6222  -0.6162  -0.5808  -0.5055  -0.4825  -0.4487  -0.4468  -0.3777
    -0.3566  -0.2935  -0.1185  -0.0922  -0.0314   0.3315   0.3556   0.3711
     0.3783   0.5971   0.6578   0.8487   1.1613   1.1976   1.2666   1.2684
     1.2699   1.2707

          k = 0.0000 0.2652 0.0000 (128375 PWs)   bands (ev):

   -88.8866 -88.8847 -88.8455 -88.8360 -88.8312 -88.8292 -88.8279 -88.8257
   -88.8234 -88.8224 -88.8204 -88.8201 -88.8165 -88.8130 -88.8100 -88.8064
   -88.8041 -88.8027 -88.7998 -88.7990 -88.7975 -88.7925 -88.7902 -88.7852
   -88.7761 -88.7744 -88.7715 -88.7708 -88.7693 -88.7621 -88.7383 -88.7333
   -88.7246 -88.7023 -88.6957 -88.6887 -88.6859 -88.6808 -88.6761 -88.6743
   -88.6713 -88.6693 -88.6677 -88.6675 -88.6640 -88.6629 -88.6606 -88.6579
   -88.6559 -88.6545 -88.6524 -88.6515 -88.6502 -88.6491 -88.6485 -88.6436
   -88.6426 -88.6406 -88.6390 -88.6349 -88.6301 -88.6273 -88.6218 -88.6133
   -55.0704 -55.0612 -55.0415 -55.0296 -55.0227 -55.0217 -55.0173 -55.0156
   -55.0144 -55.0121 -55.0101 -55.0095 -55.0069 -55.0058 -55.0053 -55.0039
   -55.0031 -54.9985 -54.9979 -54.9939 -54.9916 -54.9897 -54.9829 -54.9816
   -54.9763 -54.9751 -54.9721 -54.9664 -54.9639 -54.9625 -54.9617 -54.9589
   -54.9580 -54.9509 -54.9486 -54.9449 -54.9405 -54.9357 -54.9341 -54.9315
   -54.9244 -54.9230 -54.9169 -54.9163 -54.9152 -54.9073 -54.8871 -54.8846
   -54.8785 -54.8722 -54.8707 -54.8689 -54.8657 -54.8638 -54.8589 -54.8546
   -54.8528 -54.8475 -54.8470 -54.8451 -54.8429 -54.8405 -54.8402 -54.8363
   -54.8349 -54.8344 -54.8332 -54.8308 -54.8280 -54.8246 -54.8223 -54.8198
   -54.8193 -54.8166 -54.8142 -54.8126 -54.8096 -54.8028 -54.8010 -54.7990
   -54.7975 -54.7946 -54.7907 -54.7889 -54.7871 -54.7839 -54.7779 -54.7770
   -54.7748 -54.7728 -54.7687 -54.7673 -54.7644 -54.7633 -54.7597 -54.7593
   -54.7570 -54.7544 -54.7538 -54.7519 -54.7509 -54.7488 -54.7455 -54.7417
   -54.7399 -54.7367 -54.7355 -54.7317 -54.7302 -54.7291 -54.7268 -54.7251
   -54.7241 -54.7216 -54.7203 -54.7181 -54.7167 -54.7128 -54.7108 -54.7092
   -54.7071 -54.7053 -54.7013 -54.7008 -54.6967 -54.6945 -54.6939 -54.6911
   -54.6900 -54.6877 -54.6863 -54.6861 -54.6843 -54.6787 -54.6776 -54.6761
   -54.6753 -54.6724 -54.6701 -54.6673 -54.6660 -54.6654 -54.6632 -54.6585
   -54.6546 -54.6526 -54.6505 -54.6491 -54.6486 -54.6407 -54.6384 -54.6365
   -54.6348 -54.6312 -54.6304 -54.6286 -54.6250 -54.6239 -54.6208 -54.6191
   -54.6140 -54.6136 -54.6121 -54.6091 -54.6054 -54.6030 -54.6001 -54.5978
   -54.5965 -54.5934 -54.5903 -54.5882 -54.5875 -54.5844 -54.5836 -54.5826
   -54.5803 -54.5761 -54.5759 -54.5738 -54.5687 -54.5683 -54.5657 -54.5648
   -54.5642 -54.5626 -54.5610 -54.5595 -54.5590 -54.5569 -54.5549 -54.5499
   -16.9960  -8.8082  -8.3832  -7.5970  -7.1980  -7.0727  -6.8099  -6.6412
    -6.5232  -6.2797  -6.2570  -6.0588  -5.9579  -5.9027  -5.7980  -5.7448
    -5.5982  -5.5553  -5.4764  -5.3971  -5.3450  -5.2781  -5.2429  -5.2163
    -5.2026  -5.1856  -5.1586  -5.1369  -5.1159  -5.0012  -4.9398  -4.8947
    -4.8692  -4.8525  -4.8470  -4.8370  -4.8219  -4.8204  -4.8070  -4.7894
    -4.7767  -4.7602  -4.7508  -4.7303  -4.7141  -4.7042  -4.6847  -4.6805
    -4.6552  -4.6487  -4.6443  -4.6231  -4.5943  -4.5656  -4.5593  -4.5535
    -4.5473  -4.5394  -4.5021  -4.4621  -4.4570  -4.3985  -4.3780  -4.3519
    -4.3459  -4.3123  -4.2585  -4.2390  -4.1991  -4.1611  -4.1248  -4.0874
    -4.0678  -4.0579  -4.0280  -3.9809  -3.9700  -3.9588  -3.9526  -3.9429
    -3.9351  -3.9266  -3.9184  -3.9099  -3.9075  -3.8997  -3.8902  -3.8819
    -3.8720  -3.8655  -3.8614  -3.8592  -3.8440  -3.8415  -3.8306  -3.8207
    -3.8196  -3.8123  -3.8080  -3.7985  -3.7968  -3.7875  -3.7788  -3.7632
    -3.7329  -3.7254  -3.7176  -3.7072  -3.7042  -3.6878  -3.6682  -3.6610
    -3.6533  -3.6474  -3.6240  -3.5971  -3.5506  -3.5420  -3.5068  -3.4939
    -3.4718  -3.4623  -3.4553  -3.4447  -3.4322  -3.3873  -3.3642  -3.3621
    -3.3496  -3.3416  -3.3401  -3.3270  -3.3149  -3.3121  -3.3060  -3.2954
    -3.2904  -3.2697  -3.2608  -3.2559  -3.2523  -3.2292  -3.2162  -3.2031
    -3.2007  -3.1580  -3.1430  -3.1291  -3.1031  -3.0986  -3.0893  -3.0793
    -3.0736  -3.0654  -3.0591  -3.0557  -3.0505  -3.0408  -3.0317  -3.0214
    -3.0168  -3.0065  -2.9933  -2.9916  -2.9791  -2.9605  -2.9515  -2.9122
    -2.9002  -2.8850  -2.8679  -2.8591  -2.8487  -2.8324  -2.8256  -2.8056
    -2.8022  -2.7892  -2.7690  -2.7532  -2.7272  -2.7099  -2.6889  -2.6587
    -2.6569  -2.6246  -2.5988  -2.5951  -2.5810  -2.5234  -2.4268  -2.3933
    -2.3870  -2.3855  -2.3418  -2.3286  -2.3193  -2.3078  -2.2778  -2.2710
    -2.2501  -2.2411  -2.2360  -2.2310  -2.2151  -2.2043  -2.2036  -2.1917
    -2.1805  -2.1594  -2.1492  -2.1463  -2.1243  -2.1047  -2.0855  -2.0675
    -2.0644  -2.0577  -2.0515  -2.0469  -2.0416  -2.0326  -2.0236  -2.0175
    -2.0153  -2.0081  -1.9972  -1.9928  -1.9639  -1.9489  -1.9425  -1.9403
    -1.9341  -1.9278  -1.9176  -1.9126  -1.9092  -1.9007  -1.8932  -1.8915
    -1.8835  -1.8820  -1.8736  -1.8657  -1.8643  -1.8599  -1.8473  -1.8387
    -1.8359  -1.8227  -1.8169  -1.8139  -1.8062  -1.7993  -1.7952  -1.7935
    -1.7873  -1.7835  -1.7816  -1.7708  -1.7681  -1.7633  -1.7602  -1.7475
    -1.7414  -1.7375  -1.7256  -1.7235  -1.7208  -1.7180  -1.7149  -1.7142
    -1.7059  -1.7012  -1.6768  -1.6761  -1.6730  -1.6643  -1.6511  -1.6463
    -1.6424  -1.6217  -1.6041  -1.5859  -1.5791  -1.5780  -1.5663  -1.5629
    -1.5510  -1.5462  -1.5341  -1.5240  -1.5186  -1.5154  -1.5111  -1.4951
    -1.4825  -1.4717  -1.4487  -1.4460  -1.4415  -1.4347  -1.4226  -1.4175
    -1.4026  -1.3983  -1.3956  -1.3809  -1.3706  -1.3501  -1.3066  -1.2764
    -1.2609  -1.2522  -1.1770  -1.1386  -1.1102  -1.0216  -1.0071  -0.9819
    -0.9799  -0.9628  -0.9403  -0.9378  -0.9303  -0.8891  -0.8598  -0.8550
    -0.8409  -0.8366  -0.8172  -0.8083  -0.7994  -0.7800  -0.7719  -0.7368
    -0.7299  -0.7184  -0.6659  -0.6437  -0.6129  -0.5780  -0.5642  -0.4246
    -0.3923  -0.1720  -0.0175   0.0193   0.0856   0.2095   0.2796   0.3687
     0.4802   0.5441   0.6287   0.6751   0.7367   0.8934   0.9282   0.9902
     1.1557   1.2120

          k = 0.0000-0.5303 0.0000 (128388 PWs)   bands (ev):

   -88.8866 -88.8848 -88.8431 -88.8399 -88.8301 -88.8295 -88.8271 -88.8266
   -88.8217 -88.8217 -88.8216 -88.8212 -88.8165 -88.8133 -88.8082 -88.8077
   -88.8028 -88.8014 -88.8005 -88.8003 -88.7985 -88.7921 -88.7878 -88.7870
   -88.7748 -88.7746 -88.7723 -88.7711 -88.7688 -88.7624 -88.7384 -88.7332
   -88.7245 -88.7012 -88.6981 -88.6893 -88.6845 -88.6793 -88.6759 -88.6728
   -88.6723 -88.6714 -88.6687 -88.6659 -88.6654 -88.6623 -88.6610 -88.6567
   -88.6564 -88.6545 -88.6525 -88.6521 -88.6505 -88.6475 -88.6470 -88.6435
   -88.6429 -88.6407 -88.6405 -88.6360 -88.6289 -88.6279 -88.6198 -88.6147
   -55.0695 -55.0613 -55.0381 -55.0349 -55.0229 -55.0210 -55.0183 -55.0149
   -55.0129 -55.0120 -55.0104 -55.0093 -55.0083 -55.0055 -55.0041 -55.0029
   -55.0015 -55.0008 -54.9958 -54.9940 -54.9920 -54.9896 -54.9826 -54.9789
   -54.9780 -54.9757 -54.9681 -54.9675 -54.9651 -54.9613 -54.9575 -54.9542
   -54.9482 -54.9466 -54.9459 -54.9440 -54.9434 -54.9415 -54.9334 -54.9256
   -54.9246 -54.9170 -54.9154 -54.9098 -54.9021 -54.9021 -54.8936 -54.8922
   -54.8870 -54.8869 -54.8813 -54.8724 -54.8702 -54.8701 -54.8675 -54.8662
   -54.8600 -54.8504 -54.8494 -54.8431 -54.8419 -54.8400 -54.8400 -54.8358
   -54.8328 -54.8308 -54.8275 -54.8273 -54.8247 -54.8245 -54.8206 -54.8192
   -54.8185 -54.8165 -54.8138 -54.8123 -54.8109 -54.8096 -54.8066 -54.8019
   -54.8007 -54.8000 -54.7982 -54.7937 -54.7935 -54.7913 -54.7909 -54.7902
   -54.7817 -54.7756 -54.7722 -54.7651 -54.7643 -54.7598 -54.7579 -54.7562
   -54.7559 -54.7540 -54.7490 -54.7469 -54.7466 -54.7436 -54.7405 -54.7396
   -54.7309 -54.7307 -54.7284 -54.7266 -54.7257 -54.7252 -54.7248 -54.7244
   -54.7231 -54.7208 -54.7195 -54.7190 -54.7136 -54.7130 -54.7111 -54.7090
   -54.7077 -54.7060 -54.7032 -54.7012 -54.7005 -54.6984 -54.6943 -54.6931
   -54.6905 -54.6873 -54.6871 -54.6814 -54.6795 -54.6764 -54.6754 -54.6706
   -54.6699 -54.6694 -54.6690 -54.6630 -54.6630 -54.6618 -54.6586 -54.6558
   -54.6532 -54.6528 -54.6494 -54.6485 -54.6459 -54.6444 -54.6440 -54.6387
   -54.6353 -54.6325 -54.6313 -54.6268 -54.6243 -54.6189 -54.6189 -54.6176
   -54.6129 -54.6099 -54.6016 -54.6001 -54.6001 -54.5990 -54.5970 -54.5931
   -54.5922 -54.5904 -54.5870 -54.5869 -54.5867 -54.5864 -54.5837 -54.5834
   -54.5828 -54.5807 -54.5793 -54.5773 -54.5764 -54.5756 -54.5750 -54.5725
   -54.5721 -54.5701 -54.5672 -54.5626 -54.5592 -54.5576 -54.5555 -54.5504
   -16.9960  -8.7760  -8.1574  -8.0407  -7.0633  -7.0179  -6.9873  -6.7993
    -6.3539  -6.2234  -6.1274  -6.0502  -5.9341  -5.7793  -5.6237  -5.6105
    -5.5574  -5.5190  -5.4703  -5.4558  -5.3566  -5.3038  -5.2851  -5.2474
    -5.1827  -5.1530  -5.0904  -5.0731  -5.0684  -5.0565  -5.0503  -5.0401
    -5.0297  -5.0176  -5.0032  -4.9923  -4.9241  -4.9152  -4.8617  -4.8157
    -4.8018  -4.7313  -4.7087  -4.7008  -4.6953  -4.6893  -4.6269  -4.6147
    -4.6125  -4.6053  -4.5994  -4.5904  -4.5804  -4.5792  -4.5703  -4.5674
    -4.5172  -4.5102  -4.4594  -4.4486  -4.4398  -4.4211  -4.4072  -4.3974
    -4.3346  -4.3307  -4.2987  -4.2770  -4.2380  -4.2316  -4.2231  -4.1754
    -4.1404  -4.0743  -3.9995  -3.9842  -3.9660  -3.9613  -3.9423  -3.9339
    -3.9291  -3.9115  -3.9065  -3.8956  -3.8937  -3.8876  -3.8834  -3.8814
    -3.8679  -3.8543  -3.8460  -3.8459  -3.8429  -3.8401  -3.8196  -3.8189
    -3.8059  -3.7994  -3.7462  -3.7448  -3.7281  -3.7149  -3.7104  -3.6957
    -3.6863  -3.6716  -3.6712  -3.6630  -3.6573  -3.6491  -3.6489  -3.6462
    -3.6315  -3.6290  -3.6224  -3.6010  -3.5914  -3.5829  -3.5782  -3.5516
    -3.5411  -3.4827  -3.4416  -3.4275  -3.3699  -3.3694  -3.3537  -3.3373
    -3.3322  -3.3293  -3.3178  -3.3164  -3.3104  -3.3102  -3.3050  -3.3004
    -3.2917  -3.2888  -3.2864  -3.2710  -3.2644  -3.2543  -3.2484  -3.2405
    -3.2308  -3.2304  -3.2183  -3.2178  -3.1767  -3.1731  -3.1522  -3.1418
    -3.1294  -3.1243  -3.1070  -3.1043  -3.0899  -3.0879  -3.0744  -3.0648
    -3.0374  -3.0333  -3.0006  -2.9957  -2.9594  -2.9580  -2.9311  -2.8938
    -2.8657  -2.8394  -2.8352  -2.8270  -2.8187  -2.8184  -2.7959  -2.7846
    -2.7738  -2.7677  -2.6894  -2.6821  -2.6232  -2.5351  -2.5279  -2.5183
    -2.5170  -2.5061  -2.4722  -2.4641  -2.4571  -2.4558  -2.4337  -2.4116
    -2.3809  -2.3780  -2.3638  -2.3617  -2.3499  -2.3461  -2.3203  -2.3191
    -2.3074  -2.3006  -2.2987  -2.2978  -2.2685  -2.2481  -2.2109  -2.1920
    -2.1789  -2.1698  -2.1673  -2.1591  -2.1376  -2.1353  -2.1304  -2.1249
    -2.0855  -2.0773  -2.0595  -2.0424  -2.0283  -2.0265  -2.0241  -2.0184
    -2.0182  -2.0153  -2.0051  -2.0050  -1.9980  -1.9901  -1.9862  -1.9838
    -1.9825  -1.9763  -1.9750  -1.9587  -1.9436  -1.9421  -1.8890  -1.8842
    -1.8737  -1.8693  -1.8595  -1.8501  -1.8485  -1.8443  -1.8426  -1.8264
    -1.8228  -1.8134  -1.8090  -1.8061  -1.8056  -1.7999  -1.7898  -1.7856
    -1.7846  -1.7722  -1.7699  -1.7682  -1.7569  -1.7501  -1.7361  -1.7355
    -1.7280  -1.7224  -1.7017  -1.6986  -1.6817  -1.6763  -1.6629  -1.6613
    -1.6535  -1.6459  -1.6358  -1.6190  -1.6175  -1.6158  -1.5863  -1.5782
    -1.5735  -1.5728  -1.5725  -1.5660  -1.5657  -1.5557  -1.5517  -1.5512
    -1.5448  -1.5411  -1.5346  -1.5332  -1.5275  -1.5257  -1.5167  -1.5161
    -1.5151  -1.4752  -1.4566  -1.4497  -1.4367  -1.3691  -1.3663  -1.3395
    -1.3292  -1.2944  -1.2921  -1.2767  -1.2623  -1.2399  -1.1642  -1.1632
    -1.1419  -1.1360  -1.1230  -1.1036  -1.0986  -1.0923  -1.0615  -1.0606
    -1.0447  -1.0308  -1.0189  -1.0094  -0.9951  -0.9892  -0.9717  -0.9149
    -0.8952  -0.8925  -0.8559  -0.8505  -0.8230  -0.8220  -0.8202  -0.8056
    -0.7791  -0.7779  -0.7608  -0.7452  -0.7330  -0.7270  -0.7238  -0.5669
    -0.4728  -0.4238  -0.2653  -0.1496  -0.0781  -0.0270   0.2654   0.3309
     0.5932   0.6399   0.9262   0.9542   0.9895   1.0383   1.0817   1.1022
     1.1094   1.1623

          k = 0.2500-0.0884 0.0000 (128371 PWs)   bands (ev):

   -88.8866 -88.8847 -88.8455 -88.8360 -88.8312 -88.8292 -88.8279 -88.8257
   -88.8234 -88.8224 -88.8204 -88.8201 -88.8165 -88.8130 -88.8100 -88.8064
   -88.8041 -88.8027 -88.7998 -88.7990 -88.7975 -88.7925 -88.7902 -88.7852
   -88.7761 -88.7743 -88.7716 -88.7708 -88.7693 -88.7621 -88.7383 -88.7333
   -88.7246 -88.7023 -88.6957 -88.6887 -88.6859 -88.6808 -88.6761 -88.6743
   -88.6713 -88.6693 -88.6677 -88.6675 -88.6640 -88.6629 -88.6606 -88.6579
   -88.6559 -88.6545 -88.6524 -88.6514 -88.6502 -88.6491 -88.6485 -88.6436
   -88.6426 -88.6406 -88.6390 -88.6349 -88.6301 -88.6273 -88.6218 -88.6133
   -55.0704 -55.0612 -55.0415 -55.0296 -55.0227 -55.0217 -55.0173 -55.0156
   -55.0144 -55.0121 -55.0101 -55.0095 -55.0069 -55.0058 -55.0053 -55.0039
   -55.0031 -54.9985 -54.9979 -54.9939 -54.9916 -54.9897 -54.9829 -54.9816
   -54.9763 -54.9751 -54.9721 -54.9664 -54.9639 -54.9625 -54.9617 -54.9589
   -54.9580 -54.9509 -54.9486 -54.9449 -54.9405 -54.9357 -54.9341 -54.9315
   -54.9244 -54.9230 -54.9169 -54.9163 -54.9152 -54.9073 -54.8871 -54.8846
   -54.8785 -54.8722 -54.8707 -54.8689 -54.8657 -54.8638 -54.8589 -54.8546
   -54.8528 -54.8475 -54.8470 -54.8451 -54.8429 -54.8405 -54.8402 -54.8363
   -54.8349 -54.8344 -54.8332 -54.8308 -54.8280 -54.8246 -54.8223 -54.8198
   -54.8193 -54.8166 -54.8142 -54.8126 -54.8096 -54.8028 -54.8010 -54.7990
   -54.7975 -54.7945 -54.7907 -54.7889 -54.7871 -54.7839 -54.7779 -54.7770
   -54.7748 -54.7728 -54.7687 -54.7673 -54.7644 -54.7633 -54.7597 -54.7593
   -54.7570 -54.7544 -54.7538 -54.7519 -54.7509 -54.7488 -54.7455 -54.7417
   -54.7399 -54.7367 -54.7355 -54.7317 -54.7302 -54.7291 -54.7268 -54.7251
   -54.7241 -54.7216 -54.7203 -54.7181 -54.7167 -54.7128 -54.7108 -54.7092
   -54.7071 -54.7053 -54.7013 -54.7008 -54.6967 -54.6945 -54.6939 -54.6911
   -54.6900 -54.6877 -54.6863 -54.6861 -54.6843 -54.6787 -54.6776 -54.6761
   -54.6753 -54.6724 -54.6701 -54.6673 -54.6660 -54.6654 -54.6632 -54.6585
   -54.6547 -54.6526 -54.6505 -54.6491 -54.6486 -54.6407 -54.6384 -54.6365
   -54.6347 -54.6312 -54.6304 -54.6286 -54.6250 -54.6239 -54.6208 -54.6191
   -54.6140 -54.6136 -54.6121 -54.6090 -54.6054 -54.6030 -54.6001 -54.5978
   -54.5965 -54.5934 -54.5903 -54.5882 -54.5875 -54.5844 -54.5836 -54.5826
   -54.5803 -54.5761 -54.5759 -54.5738 -54.5687 -54.5683 -54.5658 -54.5648
   -54.5642 -54.5626 -54.5610 -54.5595 -54.5590 -54.5569 -54.5549 -54.5499
   -16.9960  -8.8082  -8.3832  -7.5970  -7.1980  -7.0727  -6.8099  -6.6412
    -6.5232  -6.2797  -6.2570  -6.0588  -5.9579  -5.9027  -5.7980  -5.7448
    -5.5982  -5.5553  -5.4764  -5.3971  -5.3450  -5.2781  -5.2429  -5.2163
    -5.2025  -5.1856  -5.1586  -5.1369  -5.1159  -5.0012  -4.9398  -4.8947
    -4.8692  -4.8525  -4.8470  -4.8370  -4.8219  -4.8204  -4.8070  -4.7894
    -4.7767  -4.7602  -4.7508  -4.7303  -4.7141  -4.7042  -4.6847  -4.6805
    -4.6552  -4.6487  -4.6443  -4.6230  -4.5943  -4.5656  -4.5593  -4.5535
    -4.5473  -4.5394  -4.5021  -4.4621  -4.4570  -4.3985  -4.3780  -4.3519
    -4.3459  -4.3123  -4.2585  -4.2390  -4.1991  -4.1611  -4.1248  -4.0874
    -4.0678  -4.0579  -4.0280  -3.9809  -3.9700  -3.9588  -3.9526  -3.9429
    -3.9351  -3.9266  -3.9184  -3.9099  -3.9075  -3.8996  -3.8902  -3.8818
    -3.8720  -3.8655  -3.8614  -3.8592  -3.8440  -3.8415  -3.8306  -3.8207
    -3.8196  -3.8123  -3.8080  -3.7985  -3.7968  -3.7875  -3.7788  -3.7632
    -3.7329  -3.7255  -3.7176  -3.7072  -3.7042  -3.6878  -3.6682  -3.6610
    -3.6533  -3.6474  -3.6240  -3.5971  -3.5506  -3.5420  -3.5068  -3.4939
    -3.4718  -3.4623  -3.4553  -3.4447  -3.4322  -3.3873  -3.3642  -3.3621
    -3.3495  -3.3416  -3.3400  -3.3270  -3.3149  -3.3121  -3.3060  -3.2954
    -3.2904  -3.2697  -3.2608  -3.2559  -3.2523  -3.2292  -3.2162  -3.2031
    -3.2007  -3.1580  -3.1430  -3.1291  -3.1031  -3.0986  -3.0893  -3.0793
    -3.0736  -3.0655  -3.0590  -3.0557  -3.0505  -3.0408  -3.0316  -3.0214
    -3.0168  -3.0065  -2.9933  -2.9916  -2.9791  -2.9605  -2.9515  -2.9122
    -2.9002  -2.8850  -2.8679  -2.8591  -2.8487  -2.8324  -2.8256  -2.8056
    -2.8022  -2.7892  -2.7690  -2.7532  -2.7272  -2.7099  -2.6889  -2.6587
    -2.6569  -2.6246  -2.5989  -2.5951  -2.5810  -2.5233  -2.4268  -2.3933
    -2.3870  -2.3855  -2.3418  -2.3286  -2.3193  -2.3078  -2.2778  -2.2710
    -2.2501  -2.2411  -2.2360  -2.2310  -2.2151  -2.2043  -2.2036  -2.1917
    -2.1805  -2.1594  -2.1492  -2.1463  -2.1243  -2.1047  -2.0855  -2.0675
    -2.0644  -2.0577  -2.0515  -2.0469  -2.0416  -2.0326  -2.0236  -2.0175
    -2.0153  -2.0081  -1.9972  -1.9928  -1.9639  -1.9489  -1.9425  -1.9403
    -1.9341  -1.9278  -1.9176  -1.9126  -1.9092  -1.9007  -1.8932  -1.8914
    -1.8835  -1.8820  -1.8736  -1.8657  -1.8643  -1.8599  -1.8473  -1.8387
    -1.8359  -1.8227  -1.8169  -1.8139  -1.8062  -1.7994  -1.7952  -1.7935
    -1.7873  -1.7835  -1.7816  -1.7708  -1.7681  -1.7633  -1.7602  -1.7475
    -1.7415  -1.7375  -1.7256  -1.7235  -1.7208  -1.7180  -1.7149  -1.7142
    -1.7059  -1.7012  -1.6768  -1.6761  -1.6730  -1.6643  -1.6511  -1.6463
    -1.6424  -1.6217  -1.6041  -1.5859  -1.5791  -1.5780  -1.5663  -1.5629
    -1.5510  -1.5462  -1.5341  -1.5240  -1.5186  -1.5154  -1.5111  -1.4951
    -1.4825  -1.4717  -1.4487  -1.4460  -1.4415  -1.4347  -1.4226  -1.4175
    -1.4026  -1.3983  -1.3957  -1.3809  -1.3706  -1.3501  -1.3066  -1.2764
    -1.2609  -1.2522  -1.1770  -1.1386  -1.1102  -1.0216  -1.0071  -0.9819
    -0.9799  -0.9628  -0.9403  -0.9378  -0.9303  -0.8891  -0.8598  -0.8550
    -0.8409  -0.8366  -0.8172  -0.8083  -0.7993  -0.7800  -0.7719  -0.7367
    -0.7298  -0.7184  -0.6659  -0.6437  -0.6129  -0.5780  -0.5642  -0.4246
    -0.3923  -0.1720  -0.0175   0.0193   0.0856   0.2095   0.2796   0.3687
     0.4802   0.5441   0.6287   0.6751   0.7367   0.8934   0.9282   0.9902
     1.1557   1.2120

          k = 0.2500 0.1768 0.0000 (128340 PWs)   bands (ev):

   -88.8866 -88.8848 -88.8446 -88.8359 -88.8313 -88.8299 -88.8278 -88.8266
   -88.8251 -88.8246 -88.8199 -88.8186 -88.8131 -88.8100 -88.8097 -88.8089
   -88.8067 -88.8014 -88.8010 -88.8004 -88.7957 -88.7920 -88.7889 -88.7865
   -88.7759 -88.7732 -88.7729 -88.7712 -88.7686 -88.7624 -88.7384 -88.7332
   -88.7245 -88.7022 -88.6952 -88.6898 -88.6855 -88.6833 -88.6763 -88.6727
   -88.6716 -88.6687 -88.6659 -88.6655 -88.6651 -88.6618 -88.6609 -88.6577
   -88.6550 -88.6545 -88.6542 -88.6534 -88.6517 -88.6500 -88.6470 -88.6449
   -88.6414 -88.6402 -88.6398 -88.6340 -88.6284 -88.6278 -88.6217 -88.6140
   -55.0698 -55.0613 -55.0410 -55.0285 -55.0248 -55.0202 -55.0191 -55.0173
   -55.0130 -55.0107 -55.0102 -55.0083 -55.0061 -55.0056 -55.0049 -55.0029
   -55.0015 -54.9997 -54.9987 -54.9948 -54.9937 -54.9874 -54.9846 -54.9800
   -54.9780 -54.9738 -54.9711 -54.9654 -54.9653 -54.9627 -54.9573 -54.9564
   -54.9543 -54.9488 -54.9423 -54.9412 -54.9407 -54.9364 -54.9248 -54.9231
   -54.9222 -54.9222 -54.9168 -54.9138 -54.9111 -54.9065 -54.8848 -54.8845
   -54.8817 -54.8792 -54.8771 -54.8753 -54.8709 -54.8692 -54.8679 -54.8670
   -54.8605 -54.8584 -54.8521 -54.8495 -54.8487 -54.8430 -54.8398 -54.8377
   -54.8359 -54.8344 -54.8337 -54.8321 -54.8312 -54.8266 -54.8236 -54.8226
   -54.8221 -54.8165 -54.8121 -54.8118 -54.8049 -54.8048 -54.8008 -54.7998
   -54.7963 -54.7962 -54.7932 -54.7904 -54.7843 -54.7835 -54.7829 -54.7775
   -54.7751 -54.7722 -54.7692 -54.7678 -54.7633 -54.7617 -54.7606 -54.7567
   -54.7561 -54.7544 -54.7501 -54.7480 -54.7475 -54.7471 -54.7445 -54.7435
   -54.7414 -54.7393 -54.7371 -54.7333 -54.7322 -54.7319 -54.7294 -54.7268
   -54.7248 -54.7232 -54.7165 -54.7143 -54.7111 -54.7111 -54.7092 -54.7069
   -54.7063 -54.7048 -54.6997 -54.6968 -54.6955 -54.6942 -54.6916 -54.6906
   -54.6893 -54.6874 -54.6809 -54.6797 -54.6788 -54.6780 -54.6771 -54.6765
   -54.6762 -54.6714 -54.6689 -54.6626 -54.6612 -54.6572 -54.6568 -54.6558
   -54.6538 -54.6533 -54.6489 -54.6481 -54.6460 -54.6433 -54.6422 -54.6394
   -54.6363 -54.6307 -54.6297 -54.6237 -54.6197 -54.6185 -54.6151 -54.6136
   -54.6130 -54.6109 -54.6100 -54.6063 -54.6044 -54.6021 -54.5996 -54.5988
   -54.5979 -54.5956 -54.5906 -54.5893 -54.5876 -54.5860 -54.5838 -54.5822
   -54.5818 -54.5785 -54.5761 -54.5748 -54.5716 -54.5682 -54.5678 -54.5678
   -54.5668 -54.5659 -54.5651 -54.5649 -54.5643 -54.5622 -54.5594 -54.5534
   -16.9960  -8.7995  -8.3516  -7.3284  -7.2977  -7.2883  -7.1124  -6.4774
    -6.4585  -6.2811  -6.2422  -6.1761  -5.9539  -5.8957  -5.7907  -5.7015
    -5.5058  -5.4960  -5.3839  -5.2678  -5.2635  -5.2627  -5.2159  -5.2036
    -5.1515  -5.1374  -5.1353  -5.1182  -5.0390  -5.0252  -5.0132  -4.9917
    -4.9109  -4.9038  -4.8915  -4.8718  -4.8174  -4.8151  -4.8009  -4.7800
    -4.7751  -4.7641  -4.7605  -4.7453  -4.7431  -4.7343  -4.7339  -4.7323
    -4.6958  -4.6868  -4.6594  -4.6542  -4.6394  -4.6253  -4.5923  -4.5624
    -4.5274  -4.5108  -4.4984  -4.4091  -4.4001  -4.3710  -4.3575  -4.3520
    -4.2801  -4.2800  -4.2619  -4.2614  -4.2296  -4.2078  -4.1754  -4.0922
    -4.0913  -4.0607  -4.0153  -3.9927  -3.9876  -3.9792  -3.9673  -3.9627
    -3.9586  -3.9585  -3.9504  -3.9441  -3.9435  -3.9349  -3.9304  -3.9282
    -3.9197  -3.8990  -3.8893  -3.8804  -3.8390  -3.8265  -3.8182  -3.8039
    -3.7867  -3.7740  -3.7565  -3.7547  -3.7485  -3.7423  -3.7417  -3.7339
    -3.7223  -3.7017  -3.6984  -3.6721  -3.6553  -3.6283  -3.6182  -3.6123
    -3.5976  -3.5854  -3.5635  -3.5526  -3.5474  -3.5459  -3.5405  -3.5354
    -3.5319  -3.5240  -3.5176  -3.4965  -3.4769  -3.4499  -3.4453  -3.4292
    -3.4121  -3.3693  -3.3490  -3.3451  -3.3378  -3.3353  -3.3247  -3.3086
    -3.2935  -3.2801  -3.2573  -3.2535  -3.2499  -3.2459  -3.2303  -3.2224
    -3.1961  -3.1914  -3.1726  -3.1690  -3.1491  -3.1416  -3.1167  -3.0953
    -3.0781  -3.0716  -3.0549  -3.0482  -3.0468  -3.0405  -3.0232  -3.0209
    -3.0054  -2.9716  -2.9527  -2.9478  -2.9397  -2.9375  -2.9303  -2.9260
    -2.9162  -2.9109  -2.9048  -2.8966  -2.8907  -2.8860  -2.8846  -2.8694
    -2.8537  -2.8317  -2.7986  -2.7813  -2.7705  -2.6389  -2.6206  -2.6004
    -2.5869  -2.5697  -2.5659  -2.4926  -2.4731  -2.4567  -2.4197  -2.4088
    -2.3805  -2.3593  -2.3448  -2.3391  -2.3366  -2.3111  -2.2822  -2.2626
    -2.2601  -2.2420  -2.2393  -2.2250  -2.2238  -2.2075  -2.1990  -2.1760
    -2.1616  -2.1610  -2.1528  -2.1467  -2.1365  -2.1175  -2.1166  -2.1096
    -2.1073  -2.0948  -2.0662  -2.0636  -2.0268  -2.0239  -2.0055  -1.9976
    -1.9958  -1.9913  -1.9883  -1.9808  -1.9748  -1.9682  -1.9568  -1.9546
    -1.9422  -1.9375  -1.9131  -1.9118  -1.9029  -1.9010  -1.8973  -1.8906
    -1.8842  -1.8791  -1.8683  -1.8645  -1.8581  -1.8496  -1.8271  -1.8214
    -1.8166  -1.8087  -1.8083  -1.7983  -1.7903  -1.7776  -1.7696  -1.7619
    -1.7486  -1.7411  -1.7407  -1.7382  -1.7348  -1.7225  -1.7162  -1.7002
    -1.6931  -1.6894  -1.6780  -1.6779  -1.6697  -1.6657  -1.6625  -1.6579
    -1.6554  -1.6510  -1.6492  -1.6487  -1.6363  -1.6360  -1.6206  -1.6196
    -1.6114  -1.5899  -1.5824  -1.5788  -1.5767  -1.5717  -1.5716  -1.5698
    -1.5518  -1.5474  -1.5377  -1.5374  -1.5251  -1.5160  -1.4980  -1.4979
    -1.4899  -1.4715  -1.4658  -1.4627  -1.4194  -1.4169  -1.4005  -1.3916
    -1.3753  -1.3639  -1.3600  -1.3464  -1.3406  -1.2876  -1.2696  -1.2516
    -1.2304  -1.2272  -1.2034  -1.1557  -1.0718  -1.0592  -1.0557  -0.9881
    -0.9869  -0.9571  -0.9432  -0.8923  -0.8702  -0.8544  -0.8426  -0.8331
    -0.8256  -0.8152  -0.8093  -0.7932  -0.7872  -0.7682  -0.7630  -0.7132
    -0.7038  -0.6418  -0.6094  -0.6067  -0.5002  -0.4985  -0.4928  -0.4006
    -0.3688  -0.1691  -0.1629   0.0377   0.0813   0.1777   0.1784   0.2066
     0.2292   0.3076   0.3086   0.3585   0.4320   0.5139   0.5562   0.7533
     0.8923   0.9608

          k = 0.2500-0.6187 0.0000 (128424 PWs)   bands (ev):

   -88.8865 -88.8848 -88.8423 -88.8386 -88.8324 -88.8306 -88.8283 -88.8276
   -88.8236 -88.8217 -88.8203 -88.8159 -88.8155 -88.8121 -88.8106 -88.8077
   -88.8052 -88.8040 -88.8010 -88.7984 -88.7954 -88.7915 -88.7891 -88.7871
   -88.7750 -88.7745 -88.7722 -88.7711 -88.7685 -88.7628 -88.7384 -88.7331
   -88.7244 -88.7009 -88.6978 -88.6910 -88.6841 -88.6815 -88.6744 -88.6736
   -88.6716 -88.6702 -88.6673 -88.6664 -88.6640 -88.6626 -88.6602 -88.6585
   -88.6566 -88.6545 -88.6528 -88.6524 -88.6508 -88.6482 -88.6469 -88.6451
   -88.6424 -88.6409 -88.6401 -88.6352 -88.6294 -88.6257 -88.6201 -88.6154
   -55.0689 -55.0615 -55.0380 -55.0323 -55.0283 -55.0190 -55.0175 -55.0155
   -55.0131 -55.0114 -55.0097 -55.0081 -55.0062 -55.0051 -55.0039 -55.0033
   -55.0021 -55.0008 -54.9973 -54.9961 -54.9913 -54.9865 -54.9842 -54.9807
   -54.9776 -54.9739 -54.9681 -54.9673 -54.9651 -54.9622 -54.9554 -54.9524
   -54.9472 -54.9403 -54.9393 -54.9378 -54.9376 -54.9325 -54.9297 -54.9222
   -54.9198 -54.9164 -54.9113 -54.9091 -54.9059 -54.9002 -54.8981 -54.8947
   -54.8923 -54.8897 -54.8879 -54.8805 -54.8771 -54.8738 -54.8714 -54.8657
   -54.8631 -54.8607 -54.8577 -54.8510 -54.8483 -54.8473 -54.8435 -54.8404
   -54.8365 -54.8343 -54.8322 -54.8278 -54.8254 -54.8229 -54.8199 -54.8176
   -54.8167 -54.8154 -54.8141 -54.8127 -54.8120 -54.8098 -54.8089 -54.8043
   -54.8023 -54.7998 -54.7966 -54.7942 -54.7910 -54.7874 -54.7859 -54.7819
   -54.7797 -54.7783 -54.7769 -54.7724 -54.7691 -54.7627 -54.7626 -54.7590
   -54.7552 -54.7535 -54.7500 -54.7456 -54.7433 -54.7415 -54.7382 -54.7367
   -54.7353 -54.7311 -54.7299 -54.7284 -54.7276 -54.7255 -54.7224 -54.7221
   -54.7205 -54.7195 -54.7157 -54.7133 -54.7131 -54.7090 -54.7077 -54.7065
   -54.7055 -54.7041 -54.7024 -54.7006 -54.6985 -54.6973 -54.6952 -54.6925
   -54.6908 -54.6850 -54.6807 -54.6792 -54.6775 -54.6748 -54.6726 -54.6705
   -54.6694 -54.6675 -54.6669 -54.6654 -54.6603 -54.6584 -54.6555 -54.6548
   -54.6542 -54.6537 -54.6510 -54.6483 -54.6411 -54.6401 -54.6379 -54.6368
   -54.6341 -54.6290 -54.6277 -54.6257 -54.6243 -54.6150 -54.6121 -54.6106
   -54.6086 -54.6041 -54.6020 -54.6011 -54.6006 -54.5987 -54.5975 -54.5943
   -54.5933 -54.5908 -54.5904 -54.5886 -54.5869 -54.5866 -54.5855 -54.5841
   -54.5829 -54.5821 -54.5806 -54.5796 -54.5772 -54.5757 -54.5755 -54.5747
   -54.5736 -54.5718 -54.5711 -54.5673 -54.5653 -54.5640 -54.5634 -54.5563
   -16.9960  -8.7709  -8.1372  -7.8581  -7.5759  -6.9532  -6.8421  -6.6652
    -6.5014  -6.3506  -6.1566  -6.0870  -5.7075  -5.6673  -5.5708  -5.5441
    -5.5337  -5.4482  -5.4384  -5.4133  -5.3116  -5.3021  -5.2372  -5.2274
    -5.2022  -5.1672  -5.1391  -5.1101  -5.0828  -5.0738  -5.0442  -5.0355
    -5.0261  -5.0185  -4.9764  -4.9265  -4.9199  -4.9101  -4.8984  -4.8797
    -4.8557  -4.8249  -4.8067  -4.8041  -4.7831  -4.7338  -4.6917  -4.6820
    -4.6575  -4.6231  -4.6069  -4.5956  -4.5536  -4.5386  -4.5103  -4.4904
    -4.4626  -4.4553  -4.4348  -4.4240  -4.4008  -4.3865  -4.3756  -4.3609
    -4.3285  -4.3149  -4.2900  -4.2729  -4.2603  -4.2548  -4.1991  -4.1765
    -4.1512  -4.1458  -4.0966  -4.0391  -4.0060  -3.9921  -3.9789  -3.9725
    -3.9666  -3.9546  -3.9494  -3.9396  -3.9266  -3.9121  -3.8711  -3.8594
    -3.8386  -3.8277  -3.8185  -3.8109  -3.7959  -3.7858  -3.7746  -3.7650
    -3.7564  -3.7490  -3.7448  -3.7347  -3.7291  -3.7242  -3.7134  -3.7040
    -3.6879  -3.6772  -3.6675  -3.6607  -3.6396  -3.6323  -3.6253  -3.6129
    -3.6093  -3.6001  -3.5806  -3.5650  -3.5597  -3.5305  -3.5255  -3.5191
    -3.5112  -3.5006  -3.4926  -3.4906  -3.4797  -3.4719  -3.4612  -3.4490
    -3.4444  -3.4396  -3.4292  -3.4185  -3.4181  -3.4058  -3.3886  -3.3663
    -3.3575  -3.3241  -3.3124  -3.2909  -3.2358  -3.2145  -3.2041  -3.1903
    -3.1891  -3.1766  -3.1693  -3.1560  -3.1493  -3.1418  -3.1341  -3.1229
    -3.1101  -3.1086  -3.1030  -3.0993  -3.0829  -3.0798  -3.0670  -3.0445
    -3.0349  -3.0299  -3.0231  -3.0190  -2.9827  -2.9652  -2.9140  -2.9017
    -2.8819  -2.8771  -2.8398  -2.8348  -2.8097  -2.7845  -2.7700  -2.7461
    -2.7244  -2.6868  -2.6622  -2.6282  -2.6130  -2.6023  -2.5904  -2.5616
    -2.5223  -2.5023  -2.4982  -2.4674  -2.4432  -2.4380  -2.4305  -2.4166
    -2.4017  -2.3883  -2.3877  -2.3776  -2.3726  -2.3537  -2.3206  -2.3012
    -2.2891  -2.2822  -2.2590  -2.2479  -2.2296  -2.2203  -2.2129  -2.1991
    -2.1926  -2.1652  -2.1639  -2.1481  -2.1449  -2.1321  -2.1244  -2.1233
    -2.1065  -2.0893  -2.0765  -2.0658  -2.0567  -2.0358  -2.0320  -2.0228
    -2.0172  -2.0117  -2.0064  -1.9959  -1.9920  -1.9804  -1.9736  -1.9678
    -1.9599  -1.9562  -1.9410  -1.9207  -1.9140  -1.9090  -1.8989  -1.8924
    -1.8807  -1.8730  -1.8631  -1.8579  -1.8479  -1.8406  -1.8369  -1.8215
    -1.8149  -1.8067  -1.7962  -1.7877  -1.7819  -1.7740  -1.7729  -1.7685
    -1.7563  -1.7435  -1.7335  -1.7268  -1.7228  -1.7149  -1.7041  -1.7009
    -1.6925  -1.6875  -1.6848  -1.6793  -1.6700  -1.6643  -1.6599  -1.6432
    -1.6345  -1.6309  -1.6259  -1.6215  -1.6128  -1.6071  -1.6007  -1.5951
    -1.5901  -1.5843  -1.5783  -1.5779  -1.5677  -1.5656  -1.5539  -1.5418
    -1.5303  -1.5139  -1.5053  -1.4954  -1.4831  -1.4659  -1.4620  -1.4582
    -1.4424  -1.4188  -1.4045  -1.3696  -1.3570  -1.3542  -1.3413  -1.3104
    -1.2983  -1.2662  -1.2535  -1.2244  -1.2131  -1.1996  -1.1729  -1.1588
    -1.1509  -1.1417  -1.1348  -1.0840  -1.0785  -1.0624  -1.0557  -1.0323
    -1.0106  -0.9970  -0.9892  -0.9560  -0.9433  -0.9370  -0.9243  -0.9168
    -0.8976  -0.8711  -0.8565  -0.8464  -0.8329  -0.8292  -0.8223  -0.7929
    -0.7791  -0.7678  -0.7405  -0.7352  -0.7045  -0.6562  -0.6221  -0.6053
    -0.4858  -0.3786  -0.3243  -0.1777  -0.0867  -0.0181   0.0635   0.1097
     0.1561   0.3057   0.3744   0.4932   0.6420   0.6965   0.8456   0.8693
     0.9899   1.0712

          k = 0.2500-0.3536 0.0000 (128397 PWs)   bands (ev):

   -88.8866 -88.8848 -88.8440 -88.8364 -88.8340 -88.8301 -88.8294 -88.8224
   -88.8217 -88.8216 -88.8212 -88.8181 -88.8179 -88.8148 -88.8105 -88.8062
   -88.8044 -88.8020 -88.8005 -88.7996 -88.7952 -88.7919 -88.7911 -88.7855
   -88.7759 -88.7746 -88.7714 -88.7705 -88.7695 -88.7624 -88.7384 -88.7332
   -88.7245 -88.7009 -88.6982 -88.6906 -88.6829 -88.6796 -88.6745 -88.6737
[...]
     1.7348   1.7523   1.7657   1.8070   1.8372   1.8860   1.9001   1.9737
     1.9871   2.0400   2.1608   2.1913   2.2331   2.2982   2.3730   2.4310
     2.4731   2.5047

          k =-0.5000-0.3536 0.0000 (128560 PWs)   bands (ev):

   -86.2912 -86.2896 -85.9451 -85.9437 -85.8782 -85.8765 -85.8457 -85.8406
   -85.8275 -85.8238 -85.8172 -85.8159 -85.8113 -85.8074 -85.8033 -85.8026
   -85.7989 -85.7983 -85.7978 -85.7956 -85.7947 -85.7889 -85.7852 -85.7844
   -85.7812 -85.7777 -85.7771 -85.7765 -85.7758 -85.7757 -85.7749 -85.7743
   -85.7583 -85.7545 -85.7544 -85.7539 -85.7491 -85.7482 -85.7459 -85.7404
   -85.7399 -85.7398 -85.7397 -85.7358 -85.7339 -85.7287 -85.7278 -85.7230
   -85.7228 -85.7197 -85.7184 -85.7184 -85.7181 -85.7170 -85.7167 -85.7160
   -85.7153 -85.7119 -85.7067 -85.7014 -85.6960 -85.6954 -85.6952 -85.6949
   -52.7232 -52.7080 -52.3818 -52.3769 -52.2333 -52.2171 -52.1740 -52.1713
   -52.1057 -52.1032 -52.1014 -52.1009 -52.0953 -52.0950 -52.0936 -52.0864
   -52.0862 -52.0831 -52.0821 -52.0778 -52.0773 -52.0762 -52.0736 -52.0732
   -52.0724 -52.0668 -52.0637 -52.0626 -52.0589 -52.0537 -52.0504 -52.0500
   -52.0488 -52.0404 -52.0378 -52.0360 -52.0359 -52.0334 -52.0310 -52.0290
   -52.0223 -52.0145 -52.0138 -52.0121 -52.0054 -52.0050 -52.0004 -51.9992
   -51.9989 -51.9985 -51.9948 -51.9946 -51.9925 -51.9924 -51.9917 -51.9898
   -51.9865 -51.9862 -51.9860 -51.9853 -51.9826 -51.9815 -51.9814 -51.9767
   -51.9712 -51.9668 -51.9660 -51.9632 -51.9552 -51.9538 -51.9534 -51.9492
   -51.9407 -51.9356 -51.9328 -51.9249 -51.9198 -51.9165 -51.9157 -51.9156
   -51.9135 -51.9064 -51.9062 -51.9026 -51.8968 -51.8910 -51.8896 -51.8862
   -51.8860 -51.8841 -51.8821 -51.8809 -51.8772 -51.8755 -51.8743 -51.8724
   -51.8719 -51.8700 -51.8685 -51.8670 -51.8552 -51.8546 -51.8499 -51.8485
   -51.8471 -51.8449 -51.8425 -51.8411 -51.8410 -51.8405 -51.8383 -51.8374
   -51.8361 -51.8358 -51.8305 -51.8298 -51.8286 -51.8283 -51.8271 -51.8230
   -51.8228 -51.8119 -51.8117 -51.8098 -51.8095 -51.8052 -51.8040 -51.8035
   -51.8003 -51.7997 -51.7981 -51.7975 -51.7913 -51.7882 -51.7859 -51.7855
   -51.7827 -51.7814 -51.7811 -51.7799 -51.7795 -51.7793 -51.7761 -51.7748
   -51.7744 -51.7729 -51.7707 -51.7704 -51.7690 -51.7690 -51.7685 -51.7652
   -51.7623 -51.7611 -51.7597 -51.7578 -51.7561 -51.7557 -51.7557 -51.7535
   -51.7530 -51.7523 -51.7510 -51.7502 -51.7501 -51.7491 -51.7486 -51.7484
   -51.7482 -51.7467 -51.7454 -51.7446 -51.7408 -51.7402 -51.7394 -51.7378
   -51.7373 -51.7342 -51.7341 -51.7340 -51.7337 -51.7276 -51.7267 -51.7256
   -51.7249 -51.7230 -51.7220 -51.7202 -51.7191 -51.7185 -51.7145 -51.7140
   -17.0456  -8.5616  -7.7900  -7.7084  -7.2324  -7.1532  -6.5490  -6.3869
    -6.1303  -5.8445  -5.7445  -5.5910  -5.2024  -5.1855  -5.1403  -5.0945
    -4.7397  -4.7131  -4.3704  -4.3650  -4.3489  -4.3349  -4.3132  -4.2753
    -4.2514  -4.2353  -4.2170  -4.1779  -4.1684  -4.1184  -3.8152  -3.7931
    -3.7861  -3.7825  -3.7501  -3.7409  -3.5928  -3.5517  -3.3338  -3.3172
    -3.3103  -3.2850  -3.2748  -3.2554  -3.2462  -3.2239  -3.1864  -3.1699
    -3.1563  -3.0758  -3.0389  -3.0327  -3.0156  -3.0108  -2.9869  -2.9222
    -2.7701  -2.7633  -2.7472  -2.7306  -2.7190  -2.7148  -2.5143  -2.4921
    -2.4808  -2.4538  -2.4445  -2.4209  -2.3342  -2.3066  -2.2916  -2.2639
    -2.2571  -2.2286  -2.2184  -2.2144  -2.2127  -2.2045  -2.1888  -2.1854
    -2.1590  -2.1490  -2.1154  -2.1081  -2.0982  -2.0977  -2.0890  -2.0869
    -2.0820  -2.0667  -2.0455  -1.9752  -1.9619  -1.8827  -1.8744  -1.8664
    -1.8039  -1.7618  -1.7493  -1.7425  -1.7391  -1.7317  -1.7275  -1.7103
    -1.7031  -1.6942  -1.6878  -1.6628  -1.6606  -1.6601  -1.6591  -1.6530
    -1.6374  -1.6367  -1.6204  -1.6161  -1.6135  -1.5989  -1.5976  -1.5946
    -1.5939  -1.5871  -1.5836  -1.5823  -1.5692  -1.5661  -1.5550  -1.5380
    -1.5203  -1.5138  -1.5122  -1.5073  -1.4977  -1.4905  -1.4784  -1.4778
    -1.4736  -1.4480  -1.4434  -1.4418  -1.3889  -1.3767  -1.2924  -1.2753
    -1.2442  -1.2338  -1.2189  -1.2184  -1.2095  -1.2025  -1.1939  -1.1798
    -1.1645  -1.1305  -1.1015  -1.0897  -1.0606  -1.0407  -1.0300  -1.0108
    -1.0072  -1.0012  -0.9896  -0.9674  -0.9594  -0.9572  -0.9449  -0.8739
    -0.8270  -0.8022  -0.7873  -0.7757  -0.7509  -0.7286  -0.7149  -0.7084
    -0.7057  -0.6919  -0.6856  -0.6477  -0.6260  -0.6005  -0.5922  -0.5881
    -0.5868  -0.5724  -0.5708  -0.5604  -0.5495  -0.3219  -0.3084  -0.2935
    -0.2482  -0.2013  -0.1994  -0.1741  -0.0167   0.0225   0.0764   0.0820
     0.0997   0.1436   0.1447   0.1652   0.1760   0.1995   0.2022   0.2452
     0.2456   0.2547   0.2570   0.2926   0.3346   0.3359   0.3610   0.3671
     0.3788   0.4035   0.4064   0.4369   0.4464   0.4543   0.4841   0.5380
     0.5415   0.5530   0.5633   0.5677   0.5731   0.5772   0.5780   0.5893
     0.6016   0.6049   0.6545   0.6576   0.6585   0.6768   0.7190   0.7264
     0.7381   0.7429   0.7528   0.7735   0.7772   0.7970   0.8561   0.8717
     0.8829   0.8862   0.9242   0.9269   0.9610   0.9708   0.9920   0.9971
     1.0008   1.0018   1.0045   1.0196   1.0309   1.0396   1.0532   1.0631
     1.0676   1.0717   1.0717   1.0719   1.0753   1.0903   1.0910   1.1164
     1.1196   1.1255   1.1307   1.1412   1.1502   1.1550   1.1668   1.1707
     1.1742   1.1750   1.1813   1.1816   1.1830   1.2057   1.2121   1.2163
     1.2293   1.2421   1.2424   1.2459   1.2494   1.2534   1.2579   1.2590
     1.2678   1.2785   1.2895   1.2942   1.3329   1.3612   1.3643   1.3652
     1.3767   1.3840   1.3854   1.3927   1.3974   1.4134   1.4219   1.4351
     1.4355   1.4392   1.4452   1.4459   1.4524   1.4582   1.4630   1.4685
     1.4693   1.4736   1.4755   1.4775   1.4796   1.5000   1.5105   1.5119
     1.5226   1.5277   1.5326   1.5355   1.5406   1.5513   1.5545   1.5698
     1.5725   1.5956   1.6183   1.6307   1.6361   1.6458   1.6491   1.6644
     1.7519   1.7530   1.8533   1.8591   1.9944   2.0029   2.0600   2.0721
     2.0736   2.0789   2.1207   2.1252   2.1346   2.1412   2.1449   2.1668
     2.1675   2.1730

     the Fermi energy is    -0.6830 ev

!    total energy              =  -21093.80094539 Ry
     estimated scf accuracy    <          4.7E-11 Ry
     smearing contrib. (-TS)   =       0.00195614 Ry
     internal energy E=F+TS    =  -21093.80290153 Ry

     The total energy is F=E-TS. E is the sum of the following terms:
     one-electron contribution = -742939.83885682 Ry
     hartree contribution      =  371439.37151367 Ry
     xc contribution           =   -2234.25629686 Ry
     ewald contribution        =  357515.75215489 Ry
     Dispersion Correction     =      -1.39168952 Ry
     one-center paw contrib.   =   -4873.43972690 Ry

     total magnetization       =   161.26 Bohr mag/cell
     absolute magnetization    =   168.00 Bohr mag/cell

     convergence has been achieved in  12 iterations

     negative rho (up, down):  1.138E-02 1.525E-02

     Forces acting on atoms (cartesian axes, Ry/au):

     atom    1 type  1   force =     0.00042698   -0.00020734    0.00873717
     atom    2 type  1   force =     0.00183406   -0.00258510   -0.01260353
     atom    3 type  1   force =    -0.00043751   -0.00039177    0.00841909
     atom    4 type  1   force =     0.00046119    0.00056966   -0.00770282
     atom    5 type  1   force =    -0.00000256    0.00000992   -0.00003763
     atom    6 type  1   force =     0.00000809   -0.00001578   -0.00002023
     atom    7 type  1   force =     0.00003172   -0.00000365   -0.00002705
     atom    8 type  1   force =    -0.00000967   -0.00001220    0.00002804
     atom    9 type  1   force =     0.00000044    0.00001447    0.00902429
     atom   10 type  1   force =    -0.00021156   -0.00014867    0.00878440
     atom   11 type  1   force =    -0.00027158    0.00113600   -0.00665822
     atom   12 type  1   force =     0.00087924    0.00069637   -0.01097156
     atom   13 type  1   force =    -0.00000388    0.00000252   -0.00001290
     atom   14 type  1   force =     0.00003403    0.00002084   -0.00003855
     atom   15 type  1   force =    -0.00009037   -0.00002252    0.00002263
     atom   16 type  1   force =    -0.00002625   -0.00002372    0.00000036
     atom   17 type  1   force =    -0.00049225   -0.00024974    0.00835243
     atom   18 type  1   force =     0.00071023    0.00028992   -0.00773478
     atom   19 type  1   force =     0.00041175    0.00037737    0.00834808
     atom   20 type  1   force =     0.00080404   -0.00110266   -0.01117954
     atom   21 type  1   force =     0.00000745    0.00002862   -0.00001822
     atom   22 type  1   force =    -0.00001620   -0.00001056    0.00004980
     atom   23 type  1   force =    -0.00003476   -0.00000042   -0.00001755
     atom   24 type  1   force =     0.00003384   -0.00005690    0.00002918
     atom   25 type  1   force =     0.00000696    0.00000891    0.00746664
     atom   26 type  1   force =    -0.00072890    0.00101526    0.00930613
     atom   27 type  1   force =    -0.00006838   -0.00010614   -0.00614351
     atom   28 type  1   force =    -0.00096089    0.00066734   -0.00665574
     atom   29 type  1   force =     0.00000200   -0.00000777   -0.00001285
     atom   30 type  1   force =    -0.00000166   -0.00000276   -0.00004552
     atom   31 type  1   force =     0.00004211    0.00003416    0.00005027
     atom   32 type  1   force =     0.00004408    0.00007342    0.00002305
     atom   33 type  1   force =    -0.00042775    0.00016561    0.00878126
     atom   34 type  1   force =    -0.00048777   -0.00057060   -0.00773590
     atom   35 type  1   force =    -0.00002823    0.00044886    0.00879285
     atom   36 type  1   force =    -0.00192420    0.00271392   -0.01259653
     atom   37 type  1   force =    -0.00000672   -0.00001125   -0.00003392
     atom   38 type  1   force =     0.00000762    0.00001001    0.00005013
     atom   39 type  1   force =     0.00001124   -0.00000272   -0.00003443
     atom   40 type  1   force =    -0.00000680    0.00000402   -0.00002027
     atom   41 type  1   force =     0.00001948   -0.00002397    0.00783879
     atom   42 type  1   force =     0.00073848   -0.00101896    0.00935186
     atom   43 type  1   force =    -0.00094500   -0.00058158   -0.01097197
     atom   44 type  1   force =     0.00027942   -0.00112992   -0.00663061
     atom   45 type  1   force =     0.00000162   -0.00000750   -0.00005432
     atom   46 type  1   force =    -0.00000494   -0.00000160   -0.00004136
     atom   47 type  1   force =     0.00002560    0.00001669    0.00000635
     atom   48 type  1   force =     0.00009257    0.00000898    0.00001542
     atom   49 type  1   force =     0.00051648    0.00026725    0.00843094
     atom   50 type  1   force =    -0.00070335    0.00101114   -0.01123781
     atom   51 type  1   force =     0.00006351   -0.00047392    0.00874227
     atom   52 type  1   force =    -0.00068551   -0.00021675   -0.00770722
     atom   53 type  1   force =    -0.00001382   -0.00003453   -0.00002797
     atom   54 type  1   force =    -0.00003385    0.00004010    0.00002336
     atom   55 type  1   force =    -0.00001209    0.00000192   -0.00003692
     atom   56 type  1   force =     0.00000994   -0.00000085    0.00003265
     atom   57 type  1   force =    -0.00003198   -0.00000455    0.00903193
     atom   58 type  1   force =     0.00020097    0.00015940    0.00877689
     atom   59 type  1   force =     0.00098466   -0.00061945   -0.00663128
     atom   60 type  1   force =     0.00013967    0.00005173   -0.00615044
     atom   61 type  1   force =    -0.00000556    0.00000055   -0.00001207
     atom   62 type  1   force =    -0.00003707   -0.00002808   -0.00003820
     atom   63 type  1   force =    -0.00004305   -0.00009272    0.00001369
     atom   64 type  1   force =    -0.00005529   -0.00003677    0.00005042
     atom   65 type  2   force =    -0.00001144   -0.00001612    0.00002633
     atom   66 type  3   force =    -0.00000862   -0.00002545    0.00016138

     Total force =     0.000351     Total SCF correction =     0.000042
     SCF correction compared to forces is large: reduce conv_thr to get better values
     Energy error            =      2.8E-07
     Gradient error          =      1.6E-04

     bfgs converged in  11 scf cycles and  10 bfgs steps
     (criteria: energy <  7.3E-07 Ry, force <  3.9E-04 Ry/Bohr)

     End of BFGS Geometry Optimization

     Final energy   =  -21093.8009453870 Ry

     File ./Fe_NH_paper_480c_ESM_p5.bfgs deleted, as requested
Begin final coordinates

ATOMIC_POSITIONS (angstrom)
Fe            1.6549129530        1.1702001330        0.0000000000    0   0   0
Fe            0.0000000000        0.0000000000        2.0269842320    0   0   0
Fe            4.9647388580        3.5106003990        0.0000000000    0   0   0
Fe            3.3098259060        2.3404002660        2.0269842320    0   0   0
Fe            1.6752313675        1.1693932593        4.0289342541
Fe            3.3180258836        9.3505956329        6.0037455668
Fe            4.9743174284        3.5223509881        4.0438866736
Fe            3.3665565781        2.3366806491        6.0230680389
Fe            2.4823638580        3.5106003990        0.0000000000    0   0   0
Fe            4.1372879530        1.1702001330        0.0000000000    0   0   0
Fe            0.8274509060        2.3404002660        2.0269842320    0   0   0
Fe            2.4823750000        0.0000000000        2.0269842320    0   0   0
Fe            2.4825220168        3.5106364001        4.0446245838
Fe            4.1608607669        1.1868609756        4.0358133868
Fe            0.8633531188        2.3223016847        6.0073416654
Fe            2.4963183359        0.0098120128        6.0214107202
Fe            6.6196629530        1.1702001330        0.0000000000    0   0   0
Fe            4.9647500000        0.0000000000        2.0269842320    0   0   0
Fe            9.9294888580        3.5106003990        0.0000000000    0   0   0
Fe            8.2745759060        2.3404002660        2.0269842320    0   0   0
Fe            6.6341596613        1.1751884066        4.0437748389
Fe            4.9805023462        0.0542838903        6.0231465337
Fe            9.9204466823        3.4988787377        4.0437642154
Fe            8.3634773710        2.2155236205        5.9850188409
Fe            7.4471138580        3.5106003990        0.0000000000    0   0   0
Fe            9.1020379530        1.1702001330        0.0000000000    0   0   0
Fe            5.7922009060        2.3404002660        2.0269842320    0   0   0
Fe            7.4471250000        0.0000000000        2.0269842320    0   0   0
Fe            7.4474469058        3.5106304912        4.0020354358
Fe            9.1197654295        1.1455873309        4.0103314488
Fe            5.8800495132        2.4019913319        6.0567828495
Fe           10.7626979643        9.3223548731        6.0072871596
Fe            3.3098147640        5.8510006640        0.0000000000    0   0   0
Fe            1.6549018110        4.6808005310        2.0269842320    0   0   0
Fe            6.6196406700        8.1914009300        0.0000000000    0   0   0
Fe            4.9647277170        7.0212007970        2.0269842320    0   0   0
Fe            3.2900463130        5.8519311012        4.0289018952
Fe           11.5288778875        4.6844619146        6.0231427045
Fe            6.6257371679        8.2106793186        4.0288727190
Fe            4.9571290380        7.0324987573        6.0030813388
Fe            4.1372656700        8.1914009300        0.0000000000    0   0   0
Fe            5.7921897640        5.8510006640        0.0000000000    0   0   0
Fe           12.4118527170        7.0212007970        2.0269842320    0   0   0
Fe            4.1372768110        4.6808005310        2.0269842320    0   0   0
Fe            4.1373848748        8.1916475064        4.0262855929
Fe            5.7751323043        5.8755671539        4.0102584491
Fe           12.3985102563        7.0117839689        6.0213423145
Fe            4.1023667128        4.6990375061        6.0071874507
Fe            8.2745647640        5.8510006640        0.0000000000    0   0   0
Fe            6.6196518110        4.6808005310        2.0269842320    0   0   0
Fe           11.5843906700        8.1914009300        0.0000000000    0   0   0
Fe            9.9294777170        7.0212007970        2.0269842320    0   0   0
Fe            8.2607867259        5.8462608898        4.0438866042
Fe            6.5317257800        4.8060709493        5.9849954865
Fe           11.5787551802        8.1723060664        4.0289048021
Fe            9.9147207381        6.9671188973        6.0229290276
Fe            9.1020156700        8.1914009300        0.0000000000    0   0   0
Fe           10.7569397640        5.8510006640        0.0000000000    0   0   0
Fe            7.4471027170        7.0212007970        2.0269842320    0   0   0
Fe            9.1020268110        4.6808005310        2.0269842320    0   0   0
Fe            9.1023139475        8.1916482140        4.0446032632
Fe           10.7338753989        5.8346140048        4.0358166873
Fe            7.4421645234        7.0609098092        6.0071591305
Fe            9.0157952671        4.6191809571        6.0566655164
N             7.4484011486        3.5114315208        7.0044509226
H             7.4484813438        3.5117938355        8.0308403234
End final coordinates



     Writing output data file ./Fe_NH_paper_480c_ESM_p5.save/

     init_run     :     30.01s CPU     31.17s WALL (       1 calls)
     electrons    :  26625.58s CPU  27087.98s WALL (      11 calls)
     update_pot   :     57.54s CPU     57.91s WALL (      10 calls)
     forces       :    194.61s CPU    197.83s WALL (      11 calls)

     Called by init_run:
     wfcinit      :     20.01s CPU     20.82s WALL (       1 calls)
     potinit      :      2.82s CPU      2.91s WALL (       1 calls)
     hinit0       :      5.02s CPU      5.13s WALL (       1 calls)

     Called by electrons:
     c_bands      :  23998.50s CPU  24376.35s WALL (     270 calls)
     sum_band     :   1292.68s CPU   1345.08s WALL (     270 calls)
     v_of_rho     :    227.71s CPU    230.77s WALL (     271 calls)
     newd         :     47.16s CPU     47.71s WALL (     271 calls)
     PAW_pot      :     51.82s CPU     52.29s WALL (     281 calls)
     mix_rho      :    946.61s CPU    964.55s WALL (     270 calls)

     Called by c_bands:
     init_us_2    :    116.57s CPU    123.33s WALL (    1686 calls)
     cegterg      :  19037.50s CPU  19297.68s WALL (     810 calls)

     Called by *egterg:
     cdiaghg      :   5424.36s CPU   5463.44s WALL (    6356 calls)
     h_psi        :   5881.56s CPU   5976.93s WALL (    6419 calls)
     s_psi        :   1539.62s CPU   1549.68s WALL (    6419 calls)
     g_psi        :     25.10s CPU     25.50s WALL (    5606 calls)

     Called by h_psi:
     h_psi:calbec :   1687.70s CPU   1699.15s WALL (    6419 calls)
     vloc_psi     :   2609.03s CPU   2638.11s WALL (    6419 calls)
     add_vuspsi   :   1532.74s CPU   1542.66s WALL (    6419 calls)

     General routines
     calbec       :   2418.85s CPU   2435.21s WALL (    7391 calls)
     fft          :    151.88s CPU    153.71s WALL (    6948 calls)
     ffts         :    420.92s CPU    424.72s WALL (  160785 calls)
     fftw         :   2852.24s CPU   2884.54s WALL ( 3188252 calls)
     interpolate  :     17.95s CPU     18.17s WALL (     542 calls)
     davcio       :      1.06s CPU    123.87s WALL (    7245 calls)

     Parallel routines
     fft_scatt_xy :    397.00s CPU    401.18s WALL ( 3355985 calls)
     fft_scatt_yz :   1593.88s CPU   1612.40s WALL ( 3355985 calls)

     PWSCF        :      7h29m CPU      7h37m WALL


   This run was terminated on:   3: 6:39  17Jun2022            

=------------------------------------------------------------------------------=
   JOB DONE.
=------------------------------------------------------------------------------=
