
     Program PWSCF v.6.4.1 starts on 15Jun2022 at 15: 7:34 

     This program is part of the open-source Quantum ESPRESSO suite
     for quantum simulation of materials; please cite
         "P. Giannozzi et al., J. Phys.:Condens. Matter 21 395502 (2009);
         "P. Giannozzi et al., J. Phys.:Condens. Matter 29 465901 (2017);
          URL http://www.quantum-espresso.org", 
     in publications or presentations arising from this work. More details at
     http://www.quantum-espresso.org/quote

     Parallel version (MPI), running on   160 processors

     MPI processes distributed on     8 nodes
     K-points division:     npool     =       8
     R & G space division:  proc/nbgrp/npool/nimage =      20
     Waiting for input...
     Reading input from standard input
Warning: card &CELL ignored
Warning: card / ignored

     Current dimensions of program PWSCF are:
     Max number of different atomic species (ntypx) = 10
     Max number of k-points (npk) =  40000
     Max angular momentum in pseudopotentials (lmaxx) =  3

     IMPORTANT: XC functional enforced from input :
     Exchange-correlation      = PBE ( 1  4  3  4 0 0)
     Any further DFT definition will be discarded
     Please, verify this is what you really want

               file Fe.pbe-spn-kjpaw_psl.0.2.1.UPF: wavefunction(s)  3D renormalized

     -------------------------------------------------
     Parameters for Dispersion (Grimme-D2) Correction:
     -------------------------------------------------
       atom      VdW radius       C_6     

        Fe         2.952        374.666
        N          2.640         42.670
        H          1.892          4.857

     Subspace diagonalization in iterative solution of the eigenvalue problem:
     one sub-group per band group will be used
     scalapack distributed-memory algorithm (size of sub-group:  3*  3 procs)


     Parallelization info
     --------------------
     sticks:   dense  smooth     PW     G-vecs:    dense   smooth      PW
     Min         634     317     83               145278    51361    6989
     Max         635     318     84               145287    51370    7000
     Sum       12685    6351   1677              2905599  1027285  139897



     bravais-lattice index     =            0
     lattice parameter (alat)  =      18.7640  a.u.
     unit-cell volume          =   16360.3163 (a.u.)^3
     number of atoms/cell      =           68
     number of atomic types    =            3
     number of electrons       =      1032.00
     number of Kohn-Sham states=          619
     kinetic-energy cutoff     =      60.0000  Ry
     charge density cutoff     =     480.0000  Ry
     convergence threshold     =      1.0E-08
     mixing beta               =       0.2000
     number of iterations used =           10  local-TF  mixing
     Exchange-correlation      = PBE ( 1  4  3  4 0 0)
     nstep                     =           50


     Effective Screening Medium Method
     =================================
     Boundary Conditions: Metal-Slab-Metal
     field strength                   =    -0.02 Ry/a.u.
     grid points for fit at edges     =        4 


     celldm(1)=  18.764036  celldm(2)=   0.000000  celldm(3)=   0.000000
     celldm(4)=   0.000000  celldm(5)=   0.000000  celldm(6)=   0.000000

     crystal axes: (cart. coord. in units of alat)
               a(1) = (   1.000000   0.000000   0.000000 )  
               a(2) = (   0.333330   0.942807   0.000000 )  
               a(3) = (   0.000000   0.000000   2.626577 )  

     reciprocal axes: (cart. coord. in units 2 pi/alat)
               b(1) = (  1.000000 -0.353551  0.000000 )  
               b(2) = (  0.000000  1.060663  0.000000 )  
               b(3) = (  0.000000  0.000000  0.380724 )  


     PseudoPot. # 1 for Fe read from file:
     ../../SSSP/Fe.pbe-spn-kjpaw_psl.0.2.1.UPF
     MD5 check sum: e86618425769142926afa95317d90200
     Pseudo is Projector augmented-wave + core cor, Zval = 16.0
     Generated using "atomic" code by A. Dal Corso v.5.0.99 svn rev. 10869
     Shape of augmentation charge: PSQ
     Using radial grid of 1191 points,  6 beta functions with: 
                l(1) =   0
                l(2) =   0
                l(3) =   1
                l(4) =   1
                l(5) =   2
                l(6) =   2
     Q(r) pseudized with 0 coefficients 


     PseudoPot. # 2 for N  read from file:
     ../../SSSP/N.pbe-n-radius_5.UPF
     MD5 check sum: 16739722b17309cd8fe442a2ace49922
     Pseudo is Ultrasoft + core correction, Zval =  5.0
     Generated using "atomic" code by A. Dal Corso v.5.1
     Using radial grid of 1085 points,  4 beta functions with: 
                l(1) =   0
                l(2) =   0
                l(3) =   1
                l(4) =   1
     Q(r) pseudized with 0 coefficients 


     PseudoPot. # 3 for H  read from file:
     ../../SSSP/H.pbe-rrkjus_psl.1.0.0.UPF
     MD5 check sum: f52b6d4d1c606e5624b1dc7b2218f220
     Pseudo is Ultrasoft, Zval =  1.0
     Generated using "atomic" code by A. Dal Corso v.5.1
     Using radial grid of  929 points,  2 beta functions with: 
                l(1) =   0
                l(2) =   0
     Q(r) pseudized with 0 coefficients 


     atomic species   valence    mass     pseudopotential
        Fe            16.00    55.84500     Fe( 1.00)
        N              5.00    14.00700     N ( 1.00)
        H              1.00     1.00800     H ( 1.00)

     Starting magnetic structure 
     atomic species   magnetization
        Fe           0.100
        N            0.100
        H            0.100

     No symmetry found



   Cartesian axes

     site n.     atom                  positions (alat units)
         1           Fe  tau(   1) = (   0.1666663   0.1178509   0.0000000  )
         2           Fe  tau(   2) = (   0.0000000   0.0000000   0.2041376  )
         3           Fe  tau(   3) = (   0.4999989   0.3535526   0.0000000  )
         4           Fe  tau(   4) = (   0.3333326   0.2357017   0.2041376  )
         5           Fe  tau(   5) = (   0.1668150   0.1179490   0.4053626  )
         6           Fe  tau(   6) = (   0.3333868   0.9428454   0.6038549  )
         7           Fe  tau(   7) = (   0.5005912   0.3539599   0.4050553  )
         8           Fe  tau(   8) = (   0.3332959   0.2356823   0.6034905  )
         9           Fe  tau(   9) = (   0.2499989   0.3535526   0.0000000  )
        10           Fe  tau(  10) = (   0.4166663   0.1178509   0.0000000  )
        11           Fe  tau(  11) = (   0.0833326   0.2357017   0.2041376  )
        12           Fe  tau(  12) = (   0.2500000   0.0000000   0.2041376  )
        13           Fe  tau(  13) = (   0.2499789   0.3537362   0.4054413  )
        14           Fe  tau(  14) = (   0.4168384   0.1177684   0.4054549  )
        15           Fe  tau(  15) = (   0.0832320   0.2361914   0.6049059  )
        16           Fe  tau(  16) = (   0.2504252  -0.0002748   0.6049130  )
        17           Fe  tau(  17) = (   0.6666663   0.1178509   0.0000000  )
        18           Fe  tau(  18) = (   0.5000000   0.0000000   0.2041376  )
        19           Fe  tau(  19) = (   0.9999989   0.3535526   0.0000000  )
        20           Fe  tau(  20) = (   0.8333326   0.2357017   0.2041376  )
        21           Fe  tau(  21) = (   0.6668910   0.1176724   0.4044192  )
        22           Fe  tau(  22) = (   0.4999495  -0.0002250   0.6061889  )
        23           Fe  tau(  23) = (   1.0000102   0.3532725   0.4044401  )
        24           Fe  tau(  24) = (   0.8338927   0.2348593   0.5993609  )
        25           Fe  tau(  25) = (   0.7499989   0.3535526   0.0000000  )
        26           Fe  tau(  26) = (   0.9166663   0.1178509   0.0000000  )
        27           Fe  tau(  27) = (   0.5833326   0.2357017   0.2041376  )
        28           Fe  tau(  28) = (   0.7500000   0.0000000   0.2041376  )
        29           Fe  tau(  29) = (   0.7485980   0.3554065   0.4068798  )
        30           Fe  tau(  30) = (   0.9170252   0.1173513   0.4040413  )
        31           Fe  tau(  31) = (   0.5835974   0.2347272   0.6012596  )
        32           Fe  tau(  32) = (   1.0829045   0.9429156   0.6048228  )
        33           Fe  tau(  33) = (   0.3333315   0.5892543   0.0000000  )
        34           Fe  tau(  34) = (   0.1666652   0.4714034   0.2041376  )
        35           Fe  tau(  35) = (   0.6666640   0.8249560   0.0000000  )
        36           Fe  tau(  36) = (   0.4999978   0.7071052   0.2041376  )
        37           Fe  tau(  37) = (   0.3332430   0.5895473   0.4044062  )
        38           Fe  tau(  38) = (   1.1664937   0.4714016   0.6061925  )
        39           Fe  tau(  39) = (   0.6663886   0.8250675   0.4044295  )
        40           Fe  tau(  40) = (   0.4994463   0.7078628   0.5994854  )
        41           Fe  tau(  41) = (   0.4166640   0.8249560   0.0000000  )
        42           Fe  tau(  42) = (   0.5833315   0.5892543   0.0000000  )
        43           Fe  tau(  43) = (   0.2499978   0.7071052   0.2041376  )
        44           Fe  tau(  44) = (   0.4166652   0.4714034   0.2041376  )
        45           Fe  tau(  45) = (   0.4163183   0.8254594   0.4040598  )
        46           Fe  tau(  46) = (   0.5846120   0.5873225   0.4068666  )
        47           Fe  tau(  47) = (   1.2499938   0.7066657   0.6048290  )
        48           Fe  tau(  48) = (   0.4158140   0.4719674   0.6011649  )
        49           Fe  tau(  49) = (   0.8333315   0.5892543   0.0000000  )
        50           Fe  tau(  50) = (   0.6666652   0.4714034   0.2041376  )
        51           Fe  tau(  51) = (   1.1666640   0.8249560   0.0000000  )
        52           Fe  tau(  52) = (   0.9999978   0.7071052   0.2041376  )
        53           Fe  tau(  53) = (   0.8326895   0.5887813   0.4051396  )
        54           Fe  tau(  54) = (   0.6663598   0.4713000   0.6237436  )
        55           Fe  tau(  55) = (   1.1665180   0.8248425   0.4052975  )
        56           Fe  tau(  56) = (   1.0000300   0.7071229   0.6033450  )
        57           Fe  tau(  57) = (   0.9166640   0.8249560   0.0000000  )
        58           Fe  tau(  58) = (   1.0833315   0.5892543   0.0000000  )
        59           Fe  tau(  59) = (   0.7499978   0.7071052   0.2041376  )
        60           Fe  tau(  60) = (   0.9166652   0.4714034   0.2041376  )
        61           Fe  tau(  61) = (   0.9164486   0.8249612   0.4054023  )
        62           Fe  tau(  62) = (   1.0832689   0.5890358   0.4054167  )
        63           Fe  tau(  63) = (   0.7495988   0.7078200   0.6013691  )
        64           Fe  tau(  64) = (   0.9171890   0.4707487   0.6014715  )
        65           N   tau(  65) = (   0.6671339   0.4713838   0.8323327  )
        66           H   tau(  66) = (   0.6649147   0.5671478   0.8703447  )
        67           H   tau(  67) = (   0.5844521   0.4216821   0.8686979  )
        68           H   tau(  68) = (   0.7507002   0.4243040   0.8700227  )

     number of k points=    10  Methfessel-Paxton smearing, width (Ry)=  0.0100
                       cart. coord. in units 2pi/alat
        k(    1) = (   0.0000000   0.0000000   0.0000000), wk =   0.0625000
        k(    2) = (   0.0000000   0.2651656   0.0000000), wk =   0.1250000
        k(    3) = (   0.0000000  -0.5303313   0.0000000), wk =   0.0625000
        k(    4) = (   0.2500000  -0.0883878   0.0000000), wk =   0.1250000
        k(    5) = (   0.2500000   0.1767779   0.0000000), wk =   0.1250000
        k(    6) = (   0.2500000  -0.6187190   0.0000000), wk =   0.1250000
        k(    7) = (   0.2500000  -0.3535534   0.0000000), wk =   0.1250000
        k(    8) = (  -0.5000000   0.1767755   0.0000000), wk =   0.0625000
        k(    9) = (  -0.5000000   0.4419412   0.0000000), wk =   0.1250000
        k(   10) = (  -0.5000000  -0.3535558   0.0000000), wk =   0.0625000

     Dense  grid:  2905599 G-vectors     FFT dimensions: ( 135, 135, 360)

     Smooth grid:  1027285 G-vectors     FFT dimensions: (  96,  96, 243)

     Estimated max dynamical RAM per process >       1.01 GB

     Estimated total dynamical RAM >     162.10 GB
     Generating pointlists ...
     new r_m :   0.0860 (alat units)  1.6145 (a.u.) for type    1
     new r_m :   0.0425 (alat units)  0.7977 (a.u.) for type    2
     new r_m :   0.0425 (alat units)  0.7977 (a.u.) for type    3

     Check: negative core charge=   -0.000039

     Initial potential from superposition of free atoms

     starting charge 1031.97191, renormalised to 1032.00000

     negative rho (up, down):  2.371E-02 2.573E-03
     Starting wfcs are  839 randomized atomic wfcs
     Checking if some PAW data can be deallocated... 

     total cpu time spent up to now is       89.5 secs

     Self-consistent Calculation

     iteration #  1     ecut=    60.00 Ry     beta= 0.20
     Davidson diagonalization with overlap
     ethr =  1.00E-04,  avg # of iterations = 18.0

     negative rho (up, down):  1.461E-02 3.089E-03

     total cpu time spent up to now is     1079.3 secs

     total energy              =  -21080.64140401 Ry
     Harris-Foulkes estimate   =  -21103.35825809 Ry
     estimated scf accuracy    <    1189.11016514 Ry

     total magnetization       =    68.93 Bohr mag/cell
     absolute magnetization    =    70.81 Bohr mag/cell

     iteration #  2     ecut=    60.00 Ry     beta= 0.20
     Davidson diagonalization with overlap
     ethr =  1.00E-02,  avg # of iterations =  1.0

     negative rho (up, down):  1.194E-02 2.724E-02

     total cpu time spent up to now is     1209.2 secs

     total energy              =  -21093.42357498 Ry
     Harris-Foulkes estimate   =  -21100.58328892 Ry
     estimated scf accuracy    <     366.63501888 Ry

     total magnetization       =    81.71 Bohr mag/cell
     absolute magnetization    =    83.82 Bohr mag/cell

     iteration #  3     ecut=    60.00 Ry     beta= 0.20
     Davidson diagonalization with overlap
     ethr =  1.00E-02,  avg # of iterations =  1.0

     negative rho (up, down):  9.203E-03 5.850E-02

     total cpu time spent up to now is     1343.8 secs

     total energy              =  -21096.23139717 Ry
     Harris-Foulkes estimate   =  -21096.51264697 Ry
     estimated scf accuracy    <      16.40143247 Ry

     total magnetization       =   120.63 Bohr mag/cell
     absolute magnetization    =   121.26 Bohr mag/cell

     iteration #  4     ecut=    60.00 Ry     beta= 0.20
     Davidson diagonalization with overlap
     ethr =  1.59E-03,  avg # of iterations =  1.0

     negative rho (up, down):  6.508E-03 6.430E-02

     total cpu time spent up to now is     1478.7 secs

     total energy              =  -21096.30215090 Ry
     Harris-Foulkes estimate   =  -21096.37463176 Ry
     estimated scf accuracy    <      20.14233796 Ry

     total magnetization       =   127.93 Bohr mag/cell
     absolute magnetization    =   128.49 Bohr mag/cell

     iteration #  5     ecut=    60.00 Ry     beta= 0.20
     Davidson diagonalization with overlap
     ethr =  1.59E-03,  avg # of iterations =  1.0

     negative rho (up, down):  1.923E-02 2.288E-01

     total cpu time spent up to now is     1613.7 secs

     total energy              =  -21094.34481402 Ry
     Harris-Foulkes estimate   =  -21096.34609408 Ry
     estimated scf accuracy    <      24.03390045 Ry

     total magnetization       =   132.29 Bohr mag/cell
     absolute magnetization    =   132.87 Bohr mag/cell

     iteration #  6     ecut=    60.00 Ry     beta= 0.20
     Davidson diagonalization with overlap
     ethr =  1.59E-03,  avg # of iterations =  4.0

     negative rho (up, down):  1.253E-02 1.877E-01

     total cpu time spent up to now is     1781.0 secs

     total energy              =  -21095.08461506 Ry
     Harris-Foulkes estimate   =  -21095.36214657 Ry
     estimated scf accuracy    <       8.88220866 Ry

     total magnetization       =   154.46 Bohr mag/cell
     absolute magnetization    =   155.89 Bohr mag/cell

     iteration #  7     ecut=    60.00 Ry     beta= 0.20
     Davidson diagonalization with overlap
     ethr =  8.61E-04,  avg # of iterations =  6.2

     negative rho (up, down):  5.093E-03 7.959E-02

     total cpu time spent up to now is     1964.4 secs

     total energy              =  -21095.30480529 Ry
     Harris-Foulkes estimate   =  -21095.37564814 Ry
     estimated scf accuracy    <       2.58754190 Ry

     total magnetization       =   153.70 Bohr mag/cell
     absolute magnetization    =   155.59 Bohr mag/cell

     iteration #  8     ecut=    60.00 Ry     beta= 0.20
     Davidson diagonalization with overlap
     ethr =  2.51E-04,  avg # of iterations = 13.1

     negative rho (up, down):  6.435E-04 3.911E-02

     total cpu time spent up to now is     2763.0 secs

     total energy              =  -21095.87783187 Ry
     Harris-Foulkes estimate   =  -21096.74780166 Ry
     estimated scf accuracy    <       8.25210323 Ry

     total magnetization       =   151.24 Bohr mag/cell
     absolute magnetization    =   156.99 Bohr mag/cell

     iteration #  9     ecut=    60.00 Ry     beta= 0.20
     Davidson diagonalization with overlap
     ethr =  2.51E-04,  avg # of iterations =  3.8

     negative rho (up, down):  4.115E-04 2.055E-02

     total cpu time spent up to now is     2936.7 secs

     total energy              =  -21096.17878698 Ry
     Harris-Foulkes estimate   =  -21096.20744697 Ry
     estimated scf accuracy    <       0.84410895 Ry

     total magnetization       =   147.27 Bohr mag/cell
     absolute magnetization    =   152.20 Bohr mag/cell

     iteration # 10     ecut=    60.00 Ry     beta= 0.20
     Davidson diagonalization with overlap
     ethr =  8.18E-05,  avg # of iterations =  7.2

     negative rho (up, down):  7.143E-04 4.418E-02

     total cpu time spent up to now is     3156.0 secs

     total energy              =  -21096.19431992 Ry
     Harris-Foulkes estimate   =  -21096.24662171 Ry
     estimated scf accuracy    <       0.84210889 Ry

     total magnetization       =   147.27 Bohr mag/cell
     absolute magnetization    =   151.92 Bohr mag/cell

     iteration # 11     ecut=    60.00 Ry     beta= 0.20
     Davidson diagonalization with overlap
     ethr =  8.16E-05,  avg # of iterations =  6.8

     negative rho (up, down):  8.178E-04 4.321E-02

     total cpu time spent up to now is     3337.7 secs

     total energy              =  -21096.27185263 Ry
     Harris-Foulkes estimate   =  -21096.28112439 Ry
     estimated scf accuracy    <       0.43921741 Ry

     total magnetization       =   153.34 Bohr mag/cell
     absolute magnetization    =   157.85 Bohr mag/cell

     iteration # 12     ecut=    60.00 Ry     beta= 0.20
     Davidson diagonalization with overlap
     ethr =  4.26E-05,  avg # of iterations =  6.0

     negative rho (up, down):  1.613E-03 4.457E-02

     total cpu time spent up to now is     3530.0 secs

     total energy              =  -21096.24314748 Ry
     Harris-Foulkes estimate   =  -21096.29176794 Ry
     estimated scf accuracy    <       0.32786769 Ry

     total magnetization       =   156.28 Bohr mag/cell
     absolute magnetization    =   160.77 Bohr mag/cell

     iteration # 13     ecut=    60.00 Ry     beta= 0.20
     Davidson diagonalization with overlap
     ethr =  3.18E-05,  avg # of iterations =  8.3

     negative rho (up, down):  1.340E-03 3.485E-02

     total cpu time spent up to now is     3836.0 secs

     total energy              =  -21096.31083516 Ry
     Harris-Foulkes estimate   =  -21096.32198590 Ry
     estimated scf accuracy    <       0.57181402 Ry

     total magnetization       =   161.26 Bohr mag/cell
     absolute magnetization    =   166.32 Bohr mag/cell

     iteration # 14     ecut=    60.00 Ry     beta= 0.20
     Davidson diagonalization with overlap
     ethr =  3.18E-05,  avg # of iterations =  5.4

     negative rho (up, down):  5.274E-02 4.482E-02

     total cpu time spent up to now is     4013.0 secs

     total energy              =  -21096.28901268 Ry
     Harris-Foulkes estimate   =  -21096.32045427 Ry
     estimated scf accuracy    <       0.48704217 Ry

     total magnetization       =   161.44 Bohr mag/cell
     absolute magnetization    =   166.54 Bohr mag/cell

     iteration # 15     ecut=    60.00 Ry     beta= 0.20
     Davidson diagonalization with overlap
     ethr =  3.18E-05,  avg # of iterations =  7.2

     negative rho (up, down):  3.787E-02 4.656E-02

     total cpu time spent up to now is     4201.0 secs

     total energy              =  -21096.30126292 Ry
     Harris-Foulkes estimate   =  -21096.31448501 Ry
     estimated scf accuracy    <       0.47909879 Ry

     total magnetization       =   163.55 Bohr mag/cell
     absolute magnetization    =   168.77 Bohr mag/cell

     iteration # 16     ecut=    60.00 Ry     beta= 0.20
     Davidson diagonalization with overlap
     ethr =  3.18E-05,  avg # of iterations =  1.6

     negative rho (up, down):  1.006E-02 3.641E-02

     total cpu time spent up to now is     4361.9 secs

     total energy              =  -21096.27503349 Ry
     Harris-Foulkes estimate   =  -21096.30692124 Ry
     estimated scf accuracy    <       0.46895505 Ry

     total magnetization       =   163.51 Bohr mag/cell
     absolute magnetization    =   168.79 Bohr mag/cell

     iteration # 17     ecut=    60.00 Ry     beta= 0.20
     Davidson diagonalization with overlap
     ethr =  3.18E-05,  avg # of iterations =  4.2

     negative rho (up, down):  3.262E-02 2.602E-02

     total cpu time spent up to now is     4523.9 secs

     total energy              =  -21096.26920518 Ry
     Harris-Foulkes estimate   =  -21096.28598911 Ry
     estimated scf accuracy    <       0.23366484 Ry

     total magnetization       =   162.98 Bohr mag/cell
     absolute magnetization    =   168.35 Bohr mag/cell

     iteration # 18     ecut=    60.00 Ry     beta= 0.20
     Davidson diagonalization with overlap
     ethr =  2.26E-05,  avg # of iterations = 16.4

     negative rho (up, down):  2.347E-03 2.126E-02

     total cpu time spent up to now is     6008.3 secs

     total energy              =  -21096.30680640 Ry
     Harris-Foulkes estimate   =  -21096.31245192 Ry
     estimated scf accuracy    <       0.05361549 Ry

     total magnetization       =   162.38 Bohr mag/cell
     absolute magnetization    =   168.90 Bohr mag/cell

     iteration # 19     ecut=    60.00 Ry     beta= 0.20
     Davidson diagonalization with overlap
     c_bands:  2 eigenvalues not converged
     ethr =  5.20E-06,  avg # of iterations = 46.3

     negative rho (up, down):  3.389E-03 1.907E-02

     total cpu time spent up to now is     7950.5 secs

     total energy              =  -21096.43249881 Ry
     Harris-Foulkes estimate   =  -21096.42560008 Ry
     estimated scf accuracy    <       1.56154757 Ry

     total magnetization       =   159.35 Bohr mag/cell
     absolute magnetization    =   170.39 Bohr mag/cell

     iteration # 20     ecut=    60.00 Ry     beta= 0.20
     Davidson diagonalization with overlap
     c_bands:  1 eigenvalues not converged
     ethr =  5.20E-06,  avg # of iterations = 19.7

     negative rho (up, down):  3.329E-03 2.584E-02

     total cpu time spent up to now is     8604.6 secs

     total energy              =  -21096.47227620 Ry
     Harris-Foulkes estimate   =  -21096.47047501 Ry
     estimated scf accuracy    <       3.15157188 Ry

     total magnetization       =   160.26 Bohr mag/cell
     absolute magnetization    =   169.53 Bohr mag/cell

     iteration # 21     ecut=    60.00 Ry     beta= 0.20
     Davidson diagonalization with overlap
     ethr =  5.20E-06,  avg # of iterations = 10.0

     negative rho (up, down):  3.370E-03 5.577E-02

     total cpu time spent up to now is     8889.7 secs

     total energy              =  -21096.48676283 Ry
     Harris-Foulkes estimate   =  -21096.47481646 Ry
     estimated scf accuracy    <       3.07146380 Ry

     total magnetization       =   160.10 Bohr mag/cell
     absolute magnetization    =   169.68 Bohr mag/cell

     iteration # 22     ecut=    60.00 Ry     beta= 0.20
     Davidson diagonalization with overlap
     c_bands:  2 eigenvalues not converged
     ethr =  5.20E-06,  avg # of iterations =  7.9

     negative rho (up, down):  2.155E-03 1.127E-01

     total cpu time spent up to now is     9178.0 secs

     total energy              =  -21096.24816712 Ry
     Harris-Foulkes estimate   =  -21096.49085360 Ry
     estimated scf accuracy    <       3.31277646 Ry

     total magnetization       =   159.57 Bohr mag/cell
     absolute magnetization    =   170.23 Bohr mag/cell

     iteration # 23     ecut=    60.00 Ry     beta= 0.20
     Davidson diagonalization with overlap
     c_bands:  2 eigenvalues not converged
     ethr =  5.20E-06,  avg # of iterations = 16.9

     negative rho (up, down):  2.318E-03 1.336E-01

     total cpu time spent up to now is     9686.6 secs

     total energy              =  -21096.38575749 Ry
     Harris-Foulkes estimate   =  -21096.38600970 Ry
     estimated scf accuracy    <       0.93936362 Ry

     total magnetization       =   162.04 Bohr mag/cell
     absolute magnetization    =   167.94 Bohr mag/cell

     iteration # 24     ecut=    60.00 Ry     beta= 0.20
     Davidson diagonalization with overlap
     c_bands:  1 eigenvalues not converged
     ethr =  5.20E-06,  avg # of iterations =  9.7

     negative rho (up, down):  2.381E-03 7.352E-02

     total cpu time spent up to now is     9983.0 secs

     total energy              =  -21096.39519152 Ry
     Harris-Foulkes estimate   =  -21096.38966596 Ry
     estimated scf accuracy    <       1.07861090 Ry

     total magnetization       =   162.30 Bohr mag/cell
     absolute magnetization    =   168.19 Bohr mag/cell

     iteration # 25     ecut=    60.00 Ry     beta= 0.20
     Davidson diagonalization with overlap
     c_bands:  2 eigenvalues not converged
     ethr =  5.20E-06,  avg # of iterations = 14.2

     negative rho (up, down):  2.419E-03 8.207E-02

     total cpu time spent up to now is    10365.7 secs

     total energy              =  -21096.40901188 Ry
     Harris-Foulkes estimate   =  -21096.40959022 Ry
     estimated scf accuracy    <       1.65104131 Ry

     total magnetization       =   161.92 Bohr mag/cell
     absolute magnetization    =   168.20 Bohr mag/cell

     iteration # 26     ecut=    60.00 Ry     beta= 0.20
     Davidson diagonalization with overlap
     c_bands:  2 eigenvalues not converged
     ethr =  5.20E-06,  avg # of iterations =  6.0

     negative rho (up, down):  2.090E-03 1.140E-01

     total cpu time spent up to now is    10656.6 secs

     total energy              =  -21096.39503171 Ry
     Harris-Foulkes estimate   =  -21096.40958617 Ry
     estimated scf accuracy    <       1.65978137 Ry

     total magnetization       =   162.01 Bohr mag/cell
     absolute magnetization    =   168.26 Bohr mag/cell

     iteration # 27     ecut=    60.00 Ry     beta= 0.20
     Davidson diagonalization with overlap
     c_bands:  2 eigenvalues not converged
     ethr =  5.20E-06,  avg # of iterations =  8.8

     negative rho (up, down):  2.138E-03 1.198E-01

     total cpu time spent up to now is    10940.6 secs

     total energy              =  -21096.39647467 Ry
     Harris-Foulkes estimate   =  -21096.39750804 Ry
     estimated scf accuracy    <       1.67216113 Ry

     total magnetization       =   162.01 Bohr mag/cell
     absolute magnetization    =   168.20 Bohr mag/cell

     iteration # 28     ecut=    60.00 Ry     beta= 0.20
     Davidson diagonalization with overlap
     c_bands:  2 eigenvalues not converged
     ethr =  5.20E-06,  avg # of iterations =  4.7

     negative rho (up, down):  2.086E-03 1.326E-01

     total cpu time spent up to now is    11189.9 secs

     total energy              =  -21096.38540884 Ry
     Harris-Foulkes estimate   =  -21096.39704286 Ry
     estimated scf accuracy    <       1.65304907 Ry

     total magnetization       =   162.03 Bohr mag/cell
     absolute magnetization    =   168.31 Bohr mag/cell

     iteration # 29     ecut=    60.00 Ry     beta= 0.20
     Davidson diagonalization with overlap
     c_bands:  1 eigenvalues not converged
     ethr =  5.20E-06,  avg # of iterations =  6.5

     negative rho (up, down):  2.034E-03 1.437E-01

     total cpu time spent up to now is    11424.6 secs

     total energy              =  -21096.37363676 Ry
     Harris-Foulkes estimate   =  -21096.38599760 Ry
     estimated scf accuracy    <       1.52203332 Ry

     total magnetization       =   162.13 Bohr mag/cell
     absolute magnetization    =   168.40 Bohr mag/cell

     iteration # 30     ecut=    60.00 Ry     beta= 0.20
     Davidson diagonalization with overlap
     c_bands:  1 eigenvalues not converged
     ethr =  5.20E-06,  avg # of iterations =  6.7

     negative rho (up, down):  2.219E-03 1.827E-01

     total cpu time spent up to now is    11664.6 secs

     total energy              =  -21096.31453572 Ry
     Harris-Foulkes estimate   =  -21096.37441385 Ry
     estimated scf accuracy    <       1.35593653 Ry

     total magnetization       =   162.20 Bohr mag/cell
     absolute magnetization    =   168.52 Bohr mag/cell

     iteration # 31     ecut=    60.00 Ry     beta= 0.20
     Davidson diagonalization with overlap
     c_bands:  1 eigenvalues not converged
     ethr =  5.20E-06,  avg # of iterations = 14.8

     negative rho (up, down):  4.030E-03 2.059E-01

     total cpu time spent up to now is    11986.8 secs

     total energy              =  -21096.32306341 Ry
     Harris-Foulkes estimate   =  -21096.34095958 Ry
     estimated scf accuracy    <       0.34477688 Ry

     total magnetization       =   162.39 Bohr mag/cell
     absolute magnetization    =   168.34 Bohr mag/cell

     iteration # 32     ecut=    60.00 Ry     beta= 0.20
     Davidson diagonalization with overlap
     c_bands:  1 eigenvalues not converged
     ethr =  5.20E-06,  avg # of iterations = 10.3

     negative rho (up, down):  1.623E-02 2.201E-01

     total cpu time spent up to now is    12280.7 secs

     total energy              =  -21096.29627573 Ry
     Harris-Foulkes estimate   =  -21096.32677283 Ry
     estimated scf accuracy    <       0.18628687 Ry

     total magnetization       =   162.03 Bohr mag/cell
     absolute magnetization    =   168.00 Bohr mag/cell

     iteration # 33     ecut=    60.00 Ry     beta= 0.20
     Davidson diagonalization with overlap
     c_bands:  1 eigenvalues not converged
     ethr =  5.20E-06,  avg # of iterations = 10.2

     negative rho (up, down):  1.599E-02 2.191E-01

     total cpu time spent up to now is    12571.5 secs

     total energy              =  -21096.29193742 Ry
     Harris-Foulkes estimate   =  -21096.29765907 Ry
     estimated scf accuracy    <       0.23314713 Ry

     total magnetization       =   161.77 Bohr mag/cell
     absolute magnetization    =   167.76 Bohr mag/cell

     iteration # 34     ecut=    60.00 Ry     beta= 0.20
     Davidson diagonalization with overlap
     c_bands:  2 eigenvalues not converged
     ethr =  5.20E-06,  avg # of iterations =  8.0

     negative rho (up, down):  2.489E-02 2.104E-01

     total cpu time spent up to now is    12849.9 secs

     total energy              =  -21096.29254735 Ry
     Harris-Foulkes estimate   =  -21096.29441318 Ry
     estimated scf accuracy    <       0.04941457 Ry

     total magnetization       =   162.06 Bohr mag/cell
     absolute magnetization    =   168.08 Bohr mag/cell

     iteration # 35     ecut=    60.00 Ry     beta= 0.20
     Davidson diagonalization with overlap
     c_bands:  2 eigenvalues not converged
     ethr =  4.79E-06,  avg # of iterations = 10.2

     negative rho (up, down):  4.687E-02 1.177E-01

     total cpu time spent up to now is    13152.1 secs

     total energy              =  -21096.26325716 Ry
     Harris-Foulkes estimate   =  -21096.29461977 Ry
     estimated scf accuracy    <       0.01620326 Ry

     total magnetization       =   162.57 Bohr mag/cell
     absolute magnetization    =   168.63 Bohr mag/cell

     iteration # 36     ecut=    60.00 Ry     beta= 0.20
     Davidson diagonalization with overlap
     c_bands:  5 eigenvalues not converged
     ethr =  1.57E-06,  avg # of iterations = 21.6

     negative rho (up, down):  3.771E-02 1.010E-01

     total cpu time spent up to now is    13775.3 secs

     total energy              =  -21096.30607375 Ry
     Harris-Foulkes estimate   =  -21096.30260225 Ry
     estimated scf accuracy    <       0.33699303 Ry

     total magnetization       =   161.48 Bohr mag/cell
     absolute magnetization    =   169.24 Bohr mag/cell

     iteration # 37     ecut=    60.00 Ry     beta= 0.20
     Davidson diagonalization with overlap
     c_bands:  1 eigenvalues not converged
     ethr =  1.57E-06,  avg # of iterations = 13.1

     negative rho (up, down):  4.177E-02 8.377E-02

     total cpu time spent up to now is    14068.4 secs

     total energy              =  -21096.30896388 Ry
     Harris-Foulkes estimate   =  -21096.30744144 Ry
     estimated scf accuracy    <       0.50959800 Ry

     total magnetization       =   161.47 Bohr mag/cell
     absolute magnetization    =   169.00 Bohr mag/cell

     iteration # 38     ecut=    60.00 Ry     beta= 0.20
     Davidson diagonalization with overlap
     c_bands:  3 eigenvalues not converged
     ethr =  1.57E-06,  avg # of iterations = 14.6

     negative rho (up, down):  4.150E-02 1.676E-01

     total cpu time spent up to now is    14377.5 secs

     total energy              =  -21096.29799212 Ry
     Harris-Foulkes estimate   =  -21096.31190500 Ry
     estimated scf accuracy    <       0.60420321 Ry

     total magnetization       =   161.65 Bohr mag/cell
     absolute magnetization    =   168.70 Bohr mag/cell

     iteration # 39     ecut=    60.00 Ry     beta= 0.20
     Davidson diagonalization with overlap
     c_bands:  3 eigenvalues not converged
     ethr =  1.57E-06,  avg # of iterations = 15.2

     negative rho (up, down):  3.676E-02 1.960E-01

     total cpu time spent up to now is    14701.8 secs

     total energy              =  -21096.30076282 Ry
     Harris-Foulkes estimate   =  -21096.31401791 Ry
     estimated scf accuracy    <       0.25795993 Ry

     total magnetization       =   160.84 Bohr mag/cell
     absolute magnetization    =   169.54 Bohr mag/cell

     iteration # 40     ecut=    60.00 Ry     beta= 0.20
     Davidson diagonalization with overlap
     c_bands:  1 eigenvalues not converged
     ethr =  1.57E-06,  avg # of iterations = 13.1

     negative rho (up, down):  4.122E-02 2.218E-01

     total cpu time spent up to now is    15000.5 secs

     total energy              =  -21096.28887667 Ry
     Harris-Foulkes estimate   =  -21096.30468205 Ry
     estimated scf accuracy    <       0.08199730 Ry

     total magnetization       =   161.15 Bohr mag/cell
     absolute magnetization    =   169.48 Bohr mag/cell

     iteration # 41     ecut=    60.00 Ry     beta= 0.20
     Davidson diagonalization with overlap
     c_bands:  1 eigenvalues not converged
     ethr =  1.57E-06,  avg # of iterations = 12.2

     negative rho (up, down):  3.698E-02 2.243E-01

     total cpu time spent up to now is    15307.9 secs

     total energy              =  -21096.29080839 Ry
     Harris-Foulkes estimate   =  -21096.28993503 Ry
     estimated scf accuracy    <       0.04178473 Ry

     total magnetization       =   161.41 Bohr mag/cell
     absolute magnetization    =   169.47 Bohr mag/cell

     iteration # 42     ecut=    60.00 Ry     beta= 0.20
     Davidson diagonalization with overlap
     ethr =  1.57E-06,  avg # of iterations =  5.2

     negative rho (up, down):  2.090E-02 2.342E-01

     total cpu time spent up to now is    15563.3 secs

     total energy              =  -21096.29589165 Ry
     Harris-Foulkes estimate   =  -21096.29094194 Ry
     estimated scf accuracy    <       0.04089831 Ry

     total magnetization       =   161.38 Bohr mag/cell
     absolute magnetization    =   169.44 Bohr mag/cell

     iteration # 43     ecut=    60.00 Ry     beta= 0.20
     Davidson diagonalization with overlap
     c_bands:  2 eigenvalues not converged
     ethr =  1.57E-06,  avg # of iterations = 14.9

     negative rho (up, down):  1.740E-02 2.449E-01

     total cpu time spent up to now is    15889.1 secs

     total energy              =  -21096.30279310 Ry
     Harris-Foulkes estimate   =  -21096.29709739 Ry
     estimated scf accuracy    <       0.05510792 Ry

     total magnetization       =   161.26 Bohr mag/cell
     absolute magnetization    =   169.46 Bohr mag/cell

     iteration # 44     ecut=    60.00 Ry     beta= 0.20
     Davidson diagonalization with overlap
     ethr =  1.57E-06,  avg # of iterations =  9.3

     negative rho (up, down):  1.725E-02 2.409E-01

     total cpu time spent up to now is    16160.6 secs

     total energy              =  -21096.31654954 Ry
     Harris-Foulkes estimate   =  -21096.30314115 Ry
     estimated scf accuracy    <       0.06400531 Ry

     total magnetization       =   161.22 Bohr mag/cell
     absolute magnetization    =   169.50 Bohr mag/cell

     iteration # 45     ecut=    60.00 Ry     beta= 0.20
     Davidson diagonalization with overlap
     ethr =  1.57E-06,  avg # of iterations = 11.9

     negative rho (up, down):  1.658E-02 2.402E-01

     total cpu time spent up to now is    16483.9 secs

     total energy              =  -21096.32132714 Ry
     Harris-Foulkes estimate   =  -21096.31857384 Ry
     estimated scf accuracy    <       0.13592420 Ry

     total magnetization       =   161.06 Bohr mag/cell
     absolute magnetization    =   169.74 Bohr mag/cell

     iteration # 46     ecut=    60.00 Ry     beta= 0.20
     Davidson diagonalization with overlap
     ethr =  1.57E-06,  avg # of iterations =  7.5

     negative rho (up, down):  1.760E-02 2.437E-01

     total cpu time spent up to now is    16744.3 secs

     total energy              =  -21096.31158602 Ry
     Harris-Foulkes estimate   =  -21096.32145199 Ry
     estimated scf accuracy    <       0.13560916 Ry

     total magnetization       =   161.08 Bohr mag/cell
     absolute magnetization    =   169.76 Bohr mag/cell

     iteration # 47     ecut=    60.00 Ry     beta= 0.20
     Davidson diagonalization with overlap
     ethr =  1.57E-06,  avg # of iterations =  7.0

     negative rho (up, down):  3.216E-02 2.569E-01

     total cpu time spent up to now is    16995.3 secs

     total energy              =  -21096.29074214 Ry
     Harris-Foulkes estimate   =  -21096.31198819 Ry
     estimated scf accuracy    <       0.10616770 Ry

     total magnetization       =   161.11 Bohr mag/cell
     absolute magnetization    =   169.66 Bohr mag/cell

     iteration # 48     ecut=    60.00 Ry     beta= 0.20
     Davidson diagonalization with overlap
     ethr =  1.57E-06,  avg # of iterations = 12.8

     negative rho (up, down):  4.437E-02 2.546E-01

     total cpu time spent up to now is    17316.5 secs

     total energy              =  -21096.29485957 Ry
     Harris-Foulkes estimate   =  -21096.29322327 Ry
     estimated scf accuracy    <       0.04473792 Ry

     total magnetization       =   161.32 Bohr mag/cell
     absolute magnetization    =   169.51 Bohr mag/cell

     iteration # 49     ecut=    60.00 Ry     beta= 0.20
     Davidson diagonalization with overlap
     ethr =  1.57E-06,  avg # of iterations = 12.4

     negative rho (up, down):  5.787E-02 2.499E-01

     total cpu time spent up to now is    17626.9 secs

     total energy              =  -21096.29301272 Ry
     Harris-Foulkes estimate   =  -21096.29545933 Ry
     estimated scf accuracy    <       0.04047761 Ry

     total magnetization       =   161.30 Bohr mag/cell
     absolute magnetization    =   169.46 Bohr mag/cell

     iteration # 50     ecut=    60.00 Ry     beta= 0.20
     Davidson diagonalization with overlap
     ethr =  1.57E-06,  avg # of iterations = 14.1

     negative rho (up, down):  4.580E-02 2.479E-01

     total cpu time spent up to now is    17934.4 secs

     total energy              =  -21096.29208324 Ry
     Harris-Foulkes estimate   =  -21096.29370039 Ry
     estimated scf accuracy    <       0.02236627 Ry

     total magnetization       =   161.37 Bohr mag/cell
     absolute magnetization    =   169.35 Bohr mag/cell

     iteration # 51     ecut=    60.00 Ry     beta= 0.20
     Davidson diagonalization with overlap
     ethr =  1.57E-06,  avg # of iterations =  8.9

     negative rho (up, down):  9.862E-02 1.907E-01

     total cpu time spent up to now is    18207.7 secs

     total energy              =  -21096.30073118 Ry
     Harris-Foulkes estimate   =  -21096.29240276 Ry
     estimated scf accuracy    <       0.01608680 Ry

     total magnetization       =   161.45 Bohr mag/cell
     absolute magnetization    =   169.37 Bohr mag/cell

     iteration # 52     ecut=    60.00 Ry     beta= 0.20
     Davidson diagonalization with overlap
     c_bands:  1 eigenvalues not converged
     ethr =  1.56E-06,  avg # of iterations = 15.2

     negative rho (up, down):  1.005E-01 1.882E-01

     total cpu time spent up to now is    18540.0 secs

     total energy              =  -21096.30226669 Ry
     Harris-Foulkes estimate   =  -21096.30187309 Ry
     estimated scf accuracy    <       0.03489506 Ry

     total magnetization       =   161.37 Bohr mag/cell
     absolute magnetization    =   169.47 Bohr mag/cell

     iteration # 53     ecut=    60.00 Ry     beta= 0.20
     Davidson diagonalization with overlap
     ethr =  1.56E-06,  avg # of iterations =  8.8

     negative rho (up, down):  7.387E-02 2.011E-01

     total cpu time spent up to now is    18801.8 secs

     total energy              =  -21096.31217733 Ry
     Harris-Foulkes estimate   =  -21096.30272469 Ry
     estimated scf accuracy    <       0.01253624 Ry

     total magnetization       =   161.59 Bohr mag/cell
     absolute magnetization    =   169.38 Bohr mag/cell

     iteration # 54     ecut=    60.00 Ry     beta= 0.20
     Davidson diagonalization with overlap
     c_bands:  1 eigenvalues not converged
     ethr =  1.21E-06,  avg # of iterations = 15.2

     negative rho (up, down):  6.544E-02 1.951E-01

     total cpu time spent up to now is    19123.9 secs

     total energy              =  -21096.31299181 Ry
     Harris-Foulkes estimate   =  -21096.31380110 Ry
     estimated scf accuracy    <       0.04596009 Ry

     total magnetization       =   161.44 Bohr mag/cell
     absolute magnetization    =   169.69 Bohr mag/cell

     iteration # 55     ecut=    60.00 Ry     beta= 0.20
     Davidson diagonalization with overlap
     ethr =  1.21E-06,  avg # of iterations = 12.5

     negative rho (up, down):  4.716E-02 1.928E-01

     total cpu time spent up to now is    19405.5 secs

     total energy              =  -21096.31386184 Ry
     Harris-Foulkes estimate   =  -21096.31329259 Ry
     estimated scf accuracy    <       0.02886480 Ry

     total magnetization       =   161.55 Bohr mag/cell
     absolute magnetization    =   169.64 Bohr mag/cell

     iteration # 56     ecut=    60.00 Ry     beta= 0.20
     Davidson diagonalization with overlap
     ethr =  1.21E-06,  avg # of iterations = 14.2

     negative rho (up, down):  3.326E-02 2.026E-01

     total cpu time spent up to now is    19706.2 secs

     total energy              =  -21096.31653362 Ry
     Harris-Foulkes estimate   =  -21096.31499639 Ry
     estimated scf accuracy    <       0.00282087 Ry

     total magnetization       =   161.74 Bohr mag/cell
     absolute magnetization    =   169.34 Bohr mag/cell

     iteration # 57     ecut=    60.00 Ry     beta= 0.20
     Davidson diagonalization with overlap
     ethr =  2.73E-07,  avg # of iterations = 16.1

     negative rho (up, down):  3.653E-02 2.027E-01

     total cpu time spent up to now is    20013.0 secs

     total energy              =  -21096.32211250 Ry
     Harris-Foulkes estimate   =  -21096.31675324 Ry
     estimated scf accuracy    <       0.00287827 Ry

     total magnetization       =   161.64 Bohr mag/cell
     absolute magnetization    =   169.30 Bohr mag/cell

     iteration # 58     ecut=    60.00 Ry     beta= 0.20
     Davidson diagonalization with overlap
     ethr =  2.73E-07,  avg # of iterations = 16.2

     negative rho (up, down):  2.534E-02 1.782E-01

     total cpu time spent up to now is    20323.6 secs

     total energy              =  -21096.32171978 Ry
     Harris-Foulkes estimate   =  -21096.32259425 Ry
     estimated scf accuracy    <       0.00322914 Ry

     total magnetization       =   161.82 Bohr mag/cell
     absolute magnetization    =   169.29 Bohr mag/cell

     iteration # 59     ecut=    60.00 Ry     beta= 0.20
     Davidson diagonalization with overlap
     ethr =  2.73E-07,  avg # of iterations = 15.2

     negative rho (up, down):  2.993E-02 2.097E-01

     total cpu time spent up to now is    20666.4 secs

     total energy              =  -21096.32263314 Ry
     Harris-Foulkes estimate   =  -21096.32406240 Ry
     estimated scf accuracy    <       0.02523805 Ry

     total magnetization       =   161.45 Bohr mag/cell
     absolute magnetization    =   169.52 Bohr mag/cell

     iteration # 60     ecut=    60.00 Ry     beta= 0.20
     Davidson diagonalization with overlap
     ethr =  2.73E-07,  avg # of iterations = 16.1

     negative rho (up, down):  4.029E-02 1.941E-01

     total cpu time spent up to now is    20996.2 secs

     total energy              =  -21096.31234623 Ry
     Harris-Foulkes estimate   =  -21096.32397461 Ry
     estimated scf accuracy    <       0.03347287 Ry

     total magnetization       =   161.45 Bohr mag/cell
     absolute magnetization    =   169.61 Bohr mag/cell

     iteration # 61     ecut=    60.00 Ry     beta= 0.20
     Davidson diagonalization with overlap
     c_bands:  1 eigenvalues not converged
     ethr =  2.73E-07,  avg # of iterations = 15.1

     negative rho (up, down):  3.923E-02 1.905E-01

     total cpu time spent up to now is    21319.9 secs

     total energy              =  -21096.31250587 Ry
     Harris-Foulkes estimate   =  -21096.31469443 Ry
     estimated scf accuracy    <       0.00254870 Ry

     total magnetization       =   161.82 Bohr mag/cell
     absolute magnetization    =   169.36 Bohr mag/cell

     iteration # 62     ecut=    60.00 Ry     beta= 0.20
     Davidson diagonalization with overlap
     ethr =  2.47E-07,  avg # of iterations = 12.0

     negative rho (up, down):  3.859E-02 1.781E-01

     total cpu time spent up to now is    21583.5 secs

     total energy              =  -21096.31155696 Ry
     Harris-Foulkes estimate   =  -21096.31255624 Ry
     estimated scf accuracy    <       0.00262891 Ry

     total magnetization       =   161.80 Bohr mag/cell
     absolute magnetization    =   169.37 Bohr mag/cell

     iteration # 63     ecut=    60.00 Ry     beta= 0.20
     Davidson diagonalization with overlap
     ethr =  2.47E-07,  avg # of iterations = 16.2

     negative rho (up, down):  3.314E-02 1.626E-01

     total cpu time spent up to now is    21900.4 secs

     total energy              =  -21096.31527895 Ry
     Harris-Foulkes estimate   =  -21096.31181300 Ry
     estimated scf accuracy    <       0.00311124 Ry

     total magnetization       =   161.78 Bohr mag/cell
     absolute magnetization    =   169.31 Bohr mag/cell

     iteration # 64     ecut=    60.00 Ry     beta= 0.20
     Davidson diagonalization with overlap
     c_bands:  1 eigenvalues not converged
     ethr =  2.47E-07,  avg # of iterations = 15.7

     negative rho (up, down):  3.151E-02 1.672E-01

     total cpu time spent up to now is    22234.8 secs

     total energy              =  -21096.31645212 Ry
     Harris-Foulkes estimate   =  -21096.31624032 Ry
     estimated scf accuracy    <       0.00227703 Ry

     total magnetization       =   161.71 Bohr mag/cell
     absolute magnetization    =   169.23 Bohr mag/cell

     iteration # 65     ecut=    60.00 Ry     beta= 0.20
     Davidson diagonalization with overlap
     ethr =  2.21E-07,  avg # of iterations = 14.3

     negative rho (up, down):  3.243E-02 1.752E-01

     total cpu time spent up to now is    22557.5 secs

     total energy              =  -21096.31770970 Ry
     Harris-Foulkes estimate   =  -21096.31716840 Ry
     estimated scf accuracy    <       0.00270092 Ry

     total magnetization       =   161.55 Bohr mag/cell
     absolute magnetization    =   169.25 Bohr mag/cell

     iteration # 66     ecut=    60.00 Ry     beta= 0.20
     Davidson diagonalization with overlap
     ethr =  2.21E-07,  avg # of iterations = 13.1

     negative rho (up, down):  3.186E-02 1.792E-01

     total cpu time spent up to now is    22853.6 secs

     total energy              =  -21096.31909945 Ry
     Harris-Foulkes estimate   =  -21096.31789510 Ry
     estimated scf accuracy    <       0.00686211 Ry

     total magnetization       =   161.53 Bohr mag/cell
     absolute magnetization    =   169.36 Bohr mag/cell

     iteration # 67     ecut=    60.00 Ry     beta= 0.20
     Davidson diagonalization with overlap
     ethr =  2.21E-07,  avg # of iterations =  9.2

     negative rho (up, down):  2.425E-02 1.846E-01

     total cpu time spent up to now is    23127.5 secs

     total energy              =  -21096.31843533 Ry
     Harris-Foulkes estimate   =  -21096.31928226 Ry
     estimated scf accuracy    <       0.00135242 Ry

     total magnetization       =   161.61 Bohr mag/cell
     absolute magnetization    =   169.27 Bohr mag/cell

     iteration # 68     ecut=    60.00 Ry     beta= 0.20
     Davidson diagonalization with overlap
     c_bands:  3 eigenvalues not converged
     ethr =  1.31E-07,  avg # of iterations = 11.5

     negative rho (up, down):  2.040E-02 1.888E-01

     total cpu time spent up to now is    23624.0 secs

     total energy              =  -21096.32000352 Ry
     Harris-Foulkes estimate   =  -21096.31854405 Ry
     estimated scf accuracy    <       0.00089782 Ry

     total magnetization       =   161.60 Bohr mag/cell
     absolute magnetization    =   169.24 Bohr mag/cell

     iteration # 69     ecut=    60.00 Ry     beta= 0.20
     Davidson diagonalization with overlap
     c_bands:  1 eigenvalues not converged
     ethr =  8.70E-08,  avg # of iterations = 12.8

     negative rho (up, down):  2.324E-02 1.924E-01

     total cpu time spent up to now is    23937.5 secs

     total energy              =  -21096.31930438 Ry
     Harris-Foulkes estimate   =  -21096.32009408 Ry
     estimated scf accuracy    <       0.00247167 Ry

     total magnetization       =   161.54 Bohr mag/cell
     absolute magnetization    =   169.27 Bohr mag/cell

     iteration # 70     ecut=    60.00 Ry     beta= 0.20
     Davidson diagonalization with overlap
     c_bands:  1 eigenvalues not converged
     ethr =  8.70E-08,  avg # of iterations = 11.6

     negative rho (up, down):  2.651E-02 1.883E-01

     total cpu time spent up to now is    24209.2 secs

     total energy              =  -21096.31841935 Ry
     Harris-Foulkes estimate   =  -21096.31933680 Ry
     estimated scf accuracy    <       0.00374937 Ry

     total magnetization       =   161.52 Bohr mag/cell
     absolute magnetization    =   169.30 Bohr mag/cell

     iteration # 71     ecut=    60.00 Ry     beta= 0.20
     Davidson diagonalization with overlap
     ethr =  8.70E-08,  avg # of iterations = 14.3

     negative rho (up, down):  1.657E-02 1.902E-01

     total cpu time spent up to now is    24495.8 secs

     total energy              =  -21096.32274538 Ry
     Harris-Foulkes estimate   =  -21096.31858117 Ry
     estimated scf accuracy    <       0.00201514 Ry

     total magnetization       =   161.55 Bohr mag/cell
     absolute magnetization    =   169.27 Bohr mag/cell

     iteration # 72     ecut=    60.00 Ry     beta= 0.20
     Davidson diagonalization with overlap
     ethr =  8.70E-08,  avg # of iterations = 15.4

     negative rho (up, down):  1.588E-02 1.888E-01

     total cpu time spent up to now is    24817.3 secs

     total energy              =  -21096.32428673 Ry
     Harris-Foulkes estimate   =  -21096.32350254 Ry
     estimated scf accuracy    <       0.00305397 Ry

     total magnetization       =   161.46 Bohr mag/cell
     absolute magnetization    =   169.23 Bohr mag/cell

     iteration # 73     ecut=    60.00 Ry     beta= 0.20
     Davidson diagonalization with overlap
     ethr =  8.70E-08,  avg # of iterations =  6.5

     negative rho (up, down):  1.680E-02 1.869E-01

     total cpu time spent up to now is    25030.9 secs

     total energy              =  -21096.32435227 Ry
     Harris-Foulkes estimate   =  -21096.32430012 Ry
     estimated scf accuracy    <       0.00232441 Ry

     total magnetization       =   161.46 Bohr mag/cell
     absolute magnetization    =   169.20 Bohr mag/cell

     iteration # 74     ecut=    60.00 Ry     beta= 0.20
     Davidson diagonalization with overlap
     ethr =  8.70E-08,  avg # of iterations =  7.4

     negative rho (up, down):  1.630E-02 1.642E-01

     total cpu time spent up to now is    25263.8 secs

     total energy              =  -21096.32681904 Ry
     Harris-Foulkes estimate   =  -21096.32436682 Ry
     estimated scf accuracy    <       0.00194994 Ry

     total magnetization       =   161.44 Bohr mag/cell
     absolute magnetization    =   169.17 Bohr mag/cell

     iteration # 75     ecut=    60.00 Ry     beta= 0.20
     Davidson diagonalization with overlap
     ethr =  8.70E-08,  avg # of iterations = 13.9

     negative rho (up, down):  1.497E-02 1.769E-01

     total cpu time spent up to now is    25549.6 secs

     total energy              =  -21096.32782429 Ry
     Harris-Foulkes estimate   =  -21096.32701957 Ry
     estimated scf accuracy    <       0.00670670 Ry

     total magnetization       =   161.31 Bohr mag/cell
     absolute magnetization    =   169.18 Bohr mag/cell

     iteration # 76     ecut=    60.00 Ry     beta= 0.20
     Davidson diagonalization with overlap
     ethr =  8.70E-08,  avg # of iterations = 11.6

     negative rho (up, down):  1.759E-02 1.777E-01

     total cpu time spent up to now is    25829.4 secs

     total energy              =  -21096.32402438 Ry
     Harris-Foulkes estimate   =  -21096.32794754 Ry
     estimated scf accuracy    <       0.00453427 Ry

     total magnetization       =   161.31 Bohr mag/cell
     absolute magnetization    =   169.14 Bohr mag/cell

     iteration # 77     ecut=    60.00 Ry     beta= 0.20
     Davidson diagonalization with overlap
     ethr =  8.70E-08,  avg # of iterations =  9.4

     negative rho (up, down):  1.748E-02 1.833E-01

     total cpu time spent up to now is    26105.9 secs

     total energy              =  -21096.32327513 Ry
     Harris-Foulkes estimate   =  -21096.32411881 Ry
     estimated scf accuracy    <       0.00332334 Ry

     total magnetization       =   161.33 Bohr mag/cell
     absolute magnetization    =   169.12 Bohr mag/cell

     iteration # 78     ecut=    60.00 Ry     beta= 0.20
     Davidson diagonalization with overlap
     ethr =  8.70E-08,  avg # of iterations =  7.5

     negative rho (up, down):  1.619E-02 1.759E-01

     total cpu time spent up to now is    26351.0 secs

     total energy              =  -21096.32523120 Ry
     Harris-Foulkes estimate   =  -21096.32330093 Ry
     estimated scf accuracy    <       0.00386722 Ry

     total magnetization       =   161.31 Bohr mag/cell
     absolute magnetization    =   169.12 Bohr mag/cell

     iteration # 79     ecut=    60.00 Ry     beta= 0.20
     Davidson diagonalization with overlap
     ethr =  8.70E-08,  avg # of iterations =  9.4

     negative rho (up, down):  1.379E-02 1.649E-01

     total cpu time spent up to now is    26621.5 secs

     total energy              =  -21096.32528280 Ry
     Harris-Foulkes estimate   =  -21096.32532387 Ry
     estimated scf accuracy    <       0.00413533 Ry

     total magnetization       =   161.37 Bohr mag/cell
     absolute magnetization    =   169.19 Bohr mag/cell

     iteration # 80     ecut=    60.00 Ry     beta= 0.20
     Davidson diagonalization with overlap
     ethr =  8.70E-08,  avg # of iterations = 12.3

     negative rho (up, down):  1.305E-02 1.726E-01

     total cpu time spent up to now is    26914.0 secs

     total energy              =  -21096.32482722 Ry
     Harris-Foulkes estimate   =  -21096.32544233 Ry
     estimated scf accuracy    <       0.00857347 Ry

     total magnetization       =   161.32 Bohr mag/cell
     absolute magnetization    =   169.23 Bohr mag/cell

     iteration # 81     ecut=    60.00 Ry     beta= 0.20
     Davidson diagonalization with overlap
     ethr =  8.70E-08,  avg # of iterations =  6.8

     negative rho (up, down):  1.546E-02 1.801E-01

     total cpu time spent up to now is    27153.9 secs

     total energy              =  -21096.32293249 Ry
     Harris-Foulkes estimate   =  -21096.32484187 Ry
     estimated scf accuracy    <       0.00748569 Ry

     total magnetization       =   161.35 Bohr mag/cell
     absolute magnetization    =   169.24 Bohr mag/cell

     iteration # 82     ecut=    60.00 Ry     beta= 0.20
     Davidson diagonalization with overlap
     c_bands:  1 eigenvalues not converged
     ethr =  8.70E-08,  avg # of iterations = 16.1

     negative rho (up, down):  1.767E-02 1.820E-01

     total cpu time spent up to now is    27455.7 secs

     total energy              =  -21096.32294934 Ry
     Harris-Foulkes estimate   =  -21096.32315262 Ry
     estimated scf accuracy    <       0.00526025 Ry

     total magnetization       =   161.38 Bohr mag/cell
     absolute magnetization    =   169.22 Bohr mag/cell

     iteration # 83     ecut=    60.00 Ry     beta= 0.20
     Davidson diagonalization with overlap
     ethr =  8.70E-08,  avg # of iterations =  6.7

     negative rho (up, down):  1.750E-02 1.807E-01

     total cpu time spent up to now is    27681.3 secs

     total energy              =  -21096.32254519 Ry
     Harris-Foulkes estimate   =  -21096.32296596 Ry
     estimated scf accuracy    <       0.00715385 Ry

     total magnetization       =   161.37 Bohr mag/cell
     absolute magnetization    =   169.24 Bohr mag/cell

     iteration # 84     ecut=    60.00 Ry     beta= 0.20
     Davidson diagonalization with overlap
     ethr =  8.70E-08,  avg # of iterations =  3.8

     negative rho (up, down):  1.661E-02 1.730E-01

     total cpu time spent up to now is    27876.0 secs

     total energy              =  -21096.32276092 Ry
     Harris-Foulkes estimate   =  -21096.32255038 Ry
     estimated scf accuracy    <       0.00630200 Ry

     total magnetization       =   161.38 Bohr mag/cell
     absolute magnetization    =   169.24 Bohr mag/cell

     iteration # 85     ecut=    60.00 Ry     beta= 0.20
     Davidson diagonalization with overlap
     ethr =  8.70E-08,  avg # of iterations =  7.1

     negative rho (up, down):  1.680E-02 1.679E-01

     total cpu time spent up to now is    28115.2 secs

     total energy              =  -21096.32245533 Ry
     Harris-Foulkes estimate   =  -21096.32277783 Ry
     estimated scf accuracy    <       0.00486328 Ry

     total magnetization       =   161.42 Bohr mag/cell
     absolute magnetization    =   169.25 Bohr mag/cell

     iteration # 86     ecut=    60.00 Ry     beta= 0.20
     Davidson diagonalization with overlap
     ethr =  8.70E-08,  avg # of iterations =  7.5

     negative rho (up, down):  1.549E-02 1.645E-01

     total cpu time spent up to now is    28363.7 secs

     total energy              =  -21096.32221093 Ry
     Harris-Foulkes estimate   =  -21096.32247019 Ry
     estimated scf accuracy    <       0.00365247 Ry

     total magnetization       =   161.45 Bohr mag/cell
     absolute magnetization    =   169.25 Bohr mag/cell

     iteration # 87     ecut=    60.00 Ry     beta= 0.20
     Davidson diagonalization with overlap
     ethr =  8.70E-08,  avg # of iterations =  9.1

     negative rho (up, down):  1.571E-02 1.611E-01

     total cpu time spent up to now is    28609.0 secs

     total energy              =  -21096.32338560 Ry
     Harris-Foulkes estimate   =  -21096.32223130 Ry
     estimated scf accuracy    <       0.00288135 Ry

     total magnetization       =   161.45 Bohr mag/cell
     absolute magnetization    =   169.23 Bohr mag/cell

     iteration # 88     ecut=    60.00 Ry     beta= 0.20
     Davidson diagonalization with overlap
     ethr =  8.70E-08,  avg # of iterations =  8.4

     negative rho (up, down):  1.653E-02 1.562E-01

     total cpu time spent up to now is    28837.8 secs

     total energy              =  -21096.32242834 Ry
     Harris-Foulkes estimate   =  -21096.32340196 Ry
     estimated scf accuracy    <       0.00344957 Ry

     total magnetization       =   161.45 Bohr mag/cell
     absolute magnetization    =   169.24 Bohr mag/cell

     iteration # 89     ecut=    60.00 Ry     beta= 0.20
     Davidson diagonalization with overlap
     ethr =  8.70E-08,  avg # of iterations =  9.8

     negative rho (up, down):  1.627E-02 1.353E-01

     total cpu time spent up to now is    29095.5 secs

     total energy              =  -21096.32199486 Ry
     Harris-Foulkes estimate   =  -21096.32248999 Ry
     estimated scf accuracy    <       0.00243139 Ry

     total magnetization       =   161.43 Bohr mag/cell
     absolute magnetization    =   169.20 Bohr mag/cell

     iteration # 90     ecut=    60.00 Ry     beta= 0.20
     Davidson diagonalization with overlap
     ethr =  8.70E-08,  avg # of iterations = 13.4

     negative rho (up, down):  1.590E-02 8.093E-02

     total cpu time spent up to now is    29360.1 secs

     total energy              =  -21096.32084036 Ry
     Harris-Foulkes estimate   =  -21096.32209266 Ry
     estimated scf accuracy    <       0.00032401 Ry

     total magnetization       =   161.52 Bohr mag/cell
     absolute magnetization    =   169.16 Bohr mag/cell

     iteration # 91     ecut=    60.00 Ry     beta= 0.20
     Davidson diagonalization with overlap
     c_bands:  2 eigenvalues not converged
     c_bands:  2 eigenvalues not converged
     ethr =  3.14E-08,  avg # of iterations = 17.9

     negative rho (up, down):  1.672E-02 7.152E-02

     total cpu time spent up to now is    29709.1 secs

     total energy              =  -21096.32130587 Ry
     Harris-Foulkes estimate   =  -21096.32262091 Ry
     estimated scf accuracy    <       0.00063918 Ry

     total magnetization       =   161.51 Bohr mag/cell
     absolute magnetization    =   169.12 Bohr mag/cell

     iteration # 92     ecut=    60.00 Ry     beta= 0.20
     Davidson diagonalization with overlap
     ethr =  3.14E-08,  avg # of iterations = 11.7

     negative rho (up, down):  1.694E-02 1.360E-01

     total cpu time spent up to now is    29984.0 secs

     total energy              =  -21096.32332586 Ry
     Harris-Foulkes estimate   =  -21096.32137377 Ry
     estimated scf accuracy    <       0.00160697 Ry

     total magnetization       =   161.55 Bohr mag/cell
     absolute magnetization    =   169.05 Bohr mag/cell

     iteration # 93     ecut=    60.00 Ry     beta= 0.20
     Davidson diagonalization with overlap
     c_bands:  2 eigenvalues not converged
     ethr =  3.14E-08,  avg # of iterations = 16.7

     negative rho (up, down):  1.677E-02 1.130E-01

     total cpu time spent up to now is    30313.1 secs

     total energy              =  -21096.32349535 Ry
     Harris-Foulkes estimate   =  -21096.32501138 Ry
     estimated scf accuracy    <       0.00498728 Ry

     total magnetization       =   161.39 Bohr mag/cell
     absolute magnetization    =   169.23 Bohr mag/cell

     iteration # 94     ecut=    60.00 Ry     beta= 0.20
     Davidson diagonalization with overlap
     ethr =  3.14E-08,  avg # of iterations = 11.1

     negative rho (up, down):  1.646E-02 1.073E-01

     total cpu time spent up to now is    30580.1 secs

     total energy              =  -21096.32358654 Ry
     Harris-Foulkes estimate   =  -21096.32360723 Ry
     estimated scf accuracy    <       0.00127919 Ry

     total magnetization       =   161.46 Bohr mag/cell
     absolute magnetization    =   169.17 Bohr mag/cell

     iteration # 95     ecut=    60.00 Ry     beta= 0.20
     Davidson diagonalization with overlap
     ethr =  3.14E-08,  avg # of iterations =  9.5

     negative rho (up, down):  1.537E-02 1.015E-01

     total cpu time spent up to now is    30842.4 secs

     total energy              =  -21096.32327408 Ry
     Harris-Foulkes estimate   =  -21096.32361968 Ry
     estimated scf accuracy    <       0.00128503 Ry

     total magnetization       =   161.42 Bohr mag/cell
     absolute magnetization    =   169.14 Bohr mag/cell

     iteration # 96     ecut=    60.00 Ry     beta= 0.20
     Davidson diagonalization with overlap
     ethr =  3.14E-08,  avg # of iterations =  6.6

     negative rho (up, down):  1.473E-02 1.082E-01

     total cpu time spent up to now is    31069.1 secs

     total energy              =  -21096.32334474 Ry
     Harris-Foulkes estimate   =  -21096.32329561 Ry
     estimated scf accuracy    <       0.00040242 Ry

     total magnetization       =   161.44 Bohr mag/cell
     absolute magnetization    =   169.10 Bohr mag/cell

     iteration # 97     ecut=    60.00 Ry     beta= 0.20
     Davidson diagonalization with overlap
     ethr =  3.14E-08,  avg # of iterations =  9.2

     negative rho (up, down):  1.376E-02 1.199E-01

     total cpu time spent up to now is    31340.2 secs

     total energy              =  -21096.32495938 Ry
     Harris-Foulkes estimate   =  -21096.32338070 Ry
     estimated scf accuracy    <       0.00069281 Ry

     total magnetization       =   161.40 Bohr mag/cell
     absolute magnetization    =   169.08 Bohr mag/cell

     iteration # 98     ecut=    60.00 Ry     beta= 0.20
     Davidson diagonalization with overlap
     ethr =  3.14E-08,  avg # of iterations =  8.8

     negative rho (up, down):  1.250E-02 1.205E-01

     total cpu time spent up to now is    31595.9 secs

     total energy              =  -21096.32432535 Ry
     Harris-Foulkes estimate   =  -21096.32500505 Ry
     estimated scf accuracy    <       0.00179771 Ry

     total magnetization       =   161.36 Bohr mag/cell
     absolute magnetization    =   169.10 Bohr mag/cell

     iteration # 99     ecut=    60.00 Ry     beta= 0.20
     Davidson diagonalization with overlap
     ethr =  3.14E-08,  avg # of iterations =  8.0

     negative rho (up, down):  1.351E-02 1.144E-01

     total cpu time spent up to now is    31838.4 secs

     total energy              =  -21096.32353396 Ry
     Harris-Foulkes estimate   =  -21096.32434137 Ry
     estimated scf accuracy    <       0.00208228 Ry

     total magnetization       =   161.34 Bohr mag/cell
     absolute magnetization    =   169.09 Bohr mag/cell

     iteration #100     ecut=    60.00 Ry     beta= 0.20
     Davidson diagonalization with overlap
     ethr =  3.14E-08,  avg # of iterations =  6.8

     negative rho (up, down):  1.356E-02 1.161E-01

     Magnetic moment per site:
     atom:    1    charge:   13.4392    magn:    2.5412    constr:    0.0000
     atom:    2    charge:   13.4514    magn:    2.3146    constr:    0.0000
     atom:    3    charge:   13.4384    magn:    2.5353    constr:    0.0000
     atom:    4    charge:   13.4498    magn:    2.3401    constr:    0.0000
     atom:    5    charge:   13.4563    magn:    2.3123    constr:    0.0000
     atom:    6    charge:   13.4463    magn:    2.5369    constr:    0.0000
     atom:    7    charge:   13.4614    magn:    2.2803    constr:    0.0000
     atom:    8    charge:   13.4473    magn:    2.5322    constr:    0.0000
     atom:    9    charge:   13.4389    magn:    2.5349    constr:    0.0000
     atom:   10    charge:   13.4389    magn:    2.5348    constr:    0.0000
     atom:   11    charge:   13.4506    magn:    2.3316    constr:    0.0000
     atom:   12    charge:   13.4506    magn:    2.3316    constr:    0.0000
     atom:   13    charge:   13.4558    magn:    2.3284    constr:    0.0000
     atom:   14    charge:   13.4558    magn:    2.3284    constr:    0.0000
     atom:   15    charge:   13.4479    magn:    2.5294    constr:    0.0000
     atom:   16    charge:   13.4479    magn:    2.5298    constr:    0.0000
     atom:   17    charge:   13.4389    magn:    2.5319    constr:    0.0000
     atom:   18    charge:   13.4498    magn:    2.3453    constr:    0.0000
     atom:   19    charge:   13.4389    magn:    2.5320    constr:    0.0000
     atom:   20    charge:   13.4489    magn:    2.3505    constr:    0.0000
     atom:   21    charge:   13.4582    magn:    2.3048    constr:    0.0000
     atom:   22    charge:   13.4487    magn:    2.5224    constr:    0.0000
     atom:   23    charge:   13.4581    magn:    2.3057    constr:    0.0000
     atom:   24    charge:   13.4558    magn:    2.4807    constr:    0.0000
     atom:   25    charge:   13.4384    magn:    2.5331    constr:    0.0000
     atom:   26    charge:   13.4393    magn:    2.5396    constr:    0.0000
     atom:   27    charge:   13.4499    magn:    2.3462    constr:    0.0000
     atom:   28    charge:   13.4507    magn:    2.3307    constr:    0.0000
     atom:   29    charge:   13.4491    magn:    2.3133    constr:    0.0000
     atom:   30    charge:   13.4610    magn:    2.2700    constr:    0.0000
     atom:   31    charge:   13.4502    magn:    2.5287    constr:    0.0000
     atom:   32    charge:   13.4481    magn:    2.5297    constr:    0.0000
     atom:   33    charge:   13.4389    magn:    2.5319    constr:    0.0000
     atom:   34    charge:   13.4498    magn:    2.3453    constr:    0.0000
     atom:   35    charge:   13.4389    magn:    2.5319    constr:    0.0000
     atom:   36    charge:   13.4489    magn:    2.3504    constr:    0.0000
     atom:   37    charge:   13.4583    magn:    2.3045    constr:    0.0000
     atom:   38    charge:   13.4487    magn:    2.5225    constr:    0.0000
     atom:   39    charge:   13.4581    magn:    2.3055    constr:    0.0000
     atom:   40    charge:   13.4554    magn:    2.4829    constr:    0.0000
     atom:   41    charge:   13.4393    magn:    2.5395    constr:    0.0000
     atom:   42    charge:   13.4384    magn:    2.5331    constr:    0.0000
     atom:   43    charge:   13.4507    magn:    2.3307    constr:    0.0000
     atom:   44    charge:   13.4499    magn:    2.3462    constr:    0.0000
     atom:   45    charge:   13.4609    magn:    2.2702    constr:    0.0000
     atom:   46    charge:   13.4491    magn:    2.3126    constr:    0.0000
     atom:   47    charge:   13.4480    magn:    2.5300    constr:    0.0000
     atom:   48    charge:   13.4505    magn:    2.5270    constr:    0.0000
     atom:   49    charge:   13.4384    magn:    2.5353    constr:    0.0000
     atom:   50    charge:   13.4492    magn:    2.3343    constr:    0.0000
     atom:   51    charge:   13.4392    magn:    2.5410    constr:    0.0000
     atom:   52    charge:   13.4498    magn:    2.3395    constr:    0.0000
     atom:   53    charge:   13.4612    magn:    2.2825    constr:    0.0000
     atom:   54    charge:   13.4306    magn:    2.2458    constr:    0.0000
     atom:   55    charge:   13.4564    magn:    2.3109    constr:    0.0000
     atom:   56    charge:   13.4475    magn:    2.5326    constr:    0.0000
     atom:   57    charge:   13.4389    magn:    2.5348    constr:    0.0000
     atom:   58    charge:   13.4389    magn:    2.5348    constr:    0.0000
     atom:   59    charge:   13.4499    magn:    2.3469    constr:    0.0000
     atom:   60    charge:   13.4499    magn:    2.3468    constr:    0.0000
     atom:   61    charge:   13.4560    magn:    2.3269    constr:    0.0000
     atom:   62    charge:   13.4560    magn:    2.3269    constr:    0.0000
     atom:   63    charge:   13.4505    magn:    2.5276    constr:    0.0000
     atom:   64    charge:   13.4502    magn:    2.5294    constr:    0.0000
     atom:   65    charge:    1.3558    magn:   -0.0014    constr:    0.0000
     atom:   66    charge:    0.4339    magn:    0.0013    constr:    0.0000
     atom:   67    charge:    0.4339    magn:    0.0022    constr:    0.0000
     atom:   68    charge:    0.4342    magn:    0.0012    constr:    0.0000

     total cpu time spent up to now is    32073.4 secs

     total energy              =  -21096.32368554 Ry
     Harris-Foulkes estimate   =  -21096.32355538 Ry
     estimated scf accuracy    <       0.00126137 Ry

     total magnetization       =   161.35 Bohr mag/cell
     absolute magnetization    =   169.07 Bohr mag/cell

     iteration #101     ecut=    60.00 Ry     beta= 0.20
     Davidson diagonalization with overlap
     ethr =  3.14E-08,  avg # of iterations =  3.7

     negative rho (up, down):  1.378E-02 1.165E-01

     total cpu time spent up to now is    32250.8 secs

     total energy              =  -21096.32357941 Ry
     Harris-Foulkes estimate   =  -21096.32368801 Ry
     estimated scf accuracy    <       0.00153303 Ry

     total magnetization       =   161.34 Bohr mag/cell
     absolute magnetization    =   169.07 Bohr mag/cell

     iteration #102     ecut=    60.00 Ry     beta= 0.20
     Davidson diagonalization with overlap
     ethr =  3.14E-08,  avg # of iterations =  3.0

     negative rho (up, down):  1.406E-02 1.204E-01

     total cpu time spent up to now is    32415.6 secs

     total energy              =  -21096.32384546 Ry
     Harris-Foulkes estimate   =  -21096.32358324 Ry
     estimated scf accuracy    <       0.00103790 Ry

     total magnetization       =   161.36 Bohr mag/cell
     absolute magnetization    =   169.07 Bohr mag/cell

     iteration #103     ecut=    60.00 Ry     beta= 0.20
     Davidson diagonalization with overlap
     ethr =  3.14E-08,  avg # of iterations =  5.0

     negative rho (up, down):  1.400E-02 1.150E-01

     total cpu time spent up to now is    32609.3 secs

     total energy              =  -21096.32373208 Ry
     Harris-Foulkes estimate   =  -21096.32385411 Ry
     estimated scf accuracy    <       0.00193361 Ry

     total magnetization       =   161.34 Bohr mag/cell
     absolute magnetization    =   169.09 Bohr mag/cell

     iteration #104     ecut=    60.00 Ry     beta= 0.20
     Davidson diagonalization with overlap
     ethr =  3.14E-08,  avg # of iterations =  8.4

     negative rho (up, down):  1.386E-02 1.070E-01

     total cpu time spent up to now is    32863.9 secs

     total energy              =  -21096.32396203 Ry
     Harris-Foulkes estimate   =  -21096.32378921 Ry
     estimated scf accuracy    <       0.00022096 Ry

     total magnetization       =   161.41 Bohr mag/cell
     absolute magnetization    =   169.06 Bohr mag/cell

     iteration #105     ecut=    60.00 Ry     beta= 0.20
     Davidson diagonalization with overlap
     ethr =  2.14E-08,  avg # of iterations = 10.3

     negative rho (up, down):  1.318E-02 1.073E-01

     total cpu time spent up to now is    33125.6 secs

     total energy              =  -21096.32373102 Ry
     Harris-Foulkes estimate   =  -21096.32401746 Ry
     estimated scf accuracy    <       0.00017345 Ry

     total magnetization       =   161.44 Bohr mag/cell
     absolute magnetization    =   169.03 Bohr mag/cell

     iteration #106     ecut=    60.00 Ry     beta= 0.20
     Davidson diagonalization with overlap
     c_bands:  2 eigenvalues not converged
     ethr =  1.68E-08,  avg # of iterations =  7.8

     negative rho (up, down):  1.294E-02 1.173E-01

     total cpu time spent up to now is    33422.8 secs

     total energy              =  -21096.32374045 Ry
     Harris-Foulkes estimate   =  -21096.32373594 Ry
     estimated scf accuracy    <       0.00014551 Ry

     total magnetization       =   161.42 Bohr mag/cell
     absolute magnetization    =   169.03 Bohr mag/cell

     iteration #107     ecut=    60.00 Ry     beta= 0.20
     Davidson diagonalization with overlap
     ethr =  1.41E-08,  avg # of iterations = 12.8

     negative rho (up, down):  1.313E-02 1.050E-01

     total cpu time spent up to now is    33702.0 secs

     total energy              =  -21096.32389046 Ry
     Harris-Foulkes estimate   =  -21096.32382427 Ry
     estimated scf accuracy    <       0.00012320 Ry

     total magnetization       =   161.41 Bohr mag/cell
     absolute magnetization    =   169.03 Bohr mag/cell

     iteration #108     ecut=    60.00 Ry     beta= 0.20
     Davidson diagonalization with overlap
     ethr =  1.19E-08,  avg # of iterations = 12.3

     negative rho (up, down):  1.360E-02 9.898E-02

     total cpu time spent up to now is    34065.6 secs

     total energy              =  -21096.32340746 Ry
     Harris-Foulkes estimate   =  -21096.32393708 Ry
     estimated scf accuracy    <       0.00012413 Ry

     total magnetization       =   161.39 Bohr mag/cell
     absolute magnetization    =   169.01 Bohr mag/cell

     iteration #109     ecut=    60.00 Ry     beta= 0.20
     Davidson diagonalization with overlap
     ethr =  1.19E-08,  avg # of iterations = 10.3

     negative rho (up, down):  1.438E-02 9.755E-02

     total cpu time spent up to now is    34336.8 secs

     total energy              =  -21096.32316260 Ry
     Harris-Foulkes estimate   =  -21096.32342673 Ry
     estimated scf accuracy    <       0.00015878 Ry

     total magnetization       =   161.39 Bohr mag/cell
     absolute magnetization    =   169.03 Bohr mag/cell

     iteration #110     ecut=    60.00 Ry     beta= 0.20
     Davidson diagonalization with overlap
     ethr =  1.19E-08,  avg # of iterations =  6.7

     negative rho (up, down):  1.336E-02 9.991E-02

     total cpu time spent up to now is    34558.2 secs

     total energy              =  -21096.32366585 Ry
     Harris-Foulkes estimate   =  -21096.32316522 Ry
     estimated scf accuracy    <       0.00021234 Ry

     total magnetization       =   161.40 Bohr mag/cell
     absolute magnetization    =   169.05 Bohr mag/cell

     iteration #111     ecut=    60.00 Ry     beta= 0.20
     Davidson diagonalization with overlap
     ethr =  1.19E-08,  avg # of iterations =  6.7

     negative rho (up, down):  1.375E-02 9.828E-02

     total cpu time spent up to now is    34788.0 secs

     total energy              =  -21096.32315567 Ry
     Harris-Foulkes estimate   =  -21096.32366922 Ry
     estimated scf accuracy    <       0.00014566 Ry

     total magnetization       =   161.39 Bohr mag/cell
     absolute magnetization    =   169.03 Bohr mag/cell

     iteration #112     ecut=    60.00 Ry     beta= 0.20
     Davidson diagonalization with overlap
     ethr =  1.19E-08,  avg # of iterations =  5.5

     negative rho (up, down):  1.300E-02 8.106E-02

     total cpu time spent up to now is    34998.1 secs

     total energy              =  -21096.32102682 Ry
     Harris-Foulkes estimate   =  -21096.32315906 Ry
     estimated scf accuracy    <       0.00024067 Ry

     total magnetization       =   161.38 Bohr mag/cell
     absolute magnetization    =   169.04 Bohr mag/cell

     iteration #113     ecut=    60.00 Ry     beta= 0.20
     Davidson diagonalization with overlap
     ethr =  1.19E-08,  avg # of iterations = 14.4

     negative rho (up, down):  1.328E-02 8.401E-02

     total cpu time spent up to now is    35275.1 secs

     total energy              =  -21096.32082165 Ry
     Harris-Foulkes estimate   =  -21096.32108262 Ry
     estimated scf accuracy    <       0.00024180 Ry

     total magnetization       =   161.36 Bohr mag/cell
     absolute magnetization    =   169.01 Bohr mag/cell

     iteration #114     ecut=    60.00 Ry     beta= 0.20
     Davidson diagonalization with overlap
     ethr =  1.19E-08,  avg # of iterations = 10.1

     negative rho (up, down):  1.332E-02 8.624E-02

[...]
     atom   31 type  1   force =     0.00043093    0.00068731    0.00041505
     atom   32 type  1   force =     0.00026621    0.00015390   -0.00025047
     atom   33 type  1   force =    -0.00028287   -0.00033065    0.00974903
     atom   34 type  1   force =    -0.00001601    0.00003737   -0.00913746
     atom   35 type  1   force =     0.00039695    0.00015539    0.00976785
     atom   36 type  1   force =     0.00135165   -0.00194999   -0.00604364
     atom   37 type  1   force =     0.00002355   -0.00031109    0.00015793
     atom   38 type  1   force =     0.00003240   -0.00000772   -0.00043219
     atom   39 type  1   force =     0.00027975   -0.00012354    0.00019105
     atom   40 type  1   force =    -0.00014592    0.00012135    0.00051379
     atom   41 type  1   force =     0.00026057   -0.00036753    0.00962530
     atom   42 type  1   force =     0.00007500   -0.00008757    0.00928694
     atom   43 type  1   force =    -0.00015920    0.00026869   -0.00867532
     atom   44 type  1   force =     0.00092146   -0.00022551   -0.00883944
     atom   45 type  1   force =     0.00017162   -0.00025079    0.00007504
     atom   46 type  1   force =     0.00010066   -0.00013914    0.00067777
     atom   47 type  1   force =     0.00023395    0.00020364   -0.00026535
     atom   48 type  1   force =     0.00082912    0.00018657    0.00041368
     atom   49 type  1   force =    -0.00076770   -0.00053569    0.00962779
     atom   50 type  1   force =     0.00000544    0.00001250   -0.00428313
     atom   51 type  1   force =     0.00012207    0.00010314    0.00922486
     atom   52 type  1   force =    -0.00037358   -0.00026489   -0.00760904
     atom   53 type  1   force =    -0.00026231   -0.00019643    0.00016113
     atom   54 type  1   force =    -0.00001805   -0.00001309   -0.00110056
     atom   55 type  1   force =     0.00014636    0.00010968   -0.00016603
     atom   56 type  1   force =    -0.00005803   -0.00004907   -0.00008791
     atom   57 type  1   force =    -0.00000154   -0.00017214    0.00959236
     atom   58 type  1   force =    -0.00017428    0.00006068    0.00960321
     atom   59 type  1   force =    -0.00010575   -0.00098079   -0.00889416
     atom   60 type  1   force =    -0.00095824    0.00021267   -0.00888575
     atom   61 type  1   force =     0.00003353   -0.00018821    0.00002190
     atom   62 type  1   force =    -0.00016452    0.00009836    0.00001467
     atom   63 type  1   force =    -0.00034755   -0.00070819    0.00040467
     atom   64 type  1   force =    -0.00075140   -0.00007821    0.00040800
     atom   65 type  2   force =     0.00013943   -0.00078309   -0.00015313
     atom   66 type  3   force =    -0.00009024    0.00177002    0.00059623
     atom   67 type  3   force =    -0.00085670   -0.00046352    0.00020451
     atom   68 type  3   force =     0.00086362   -0.00044126    0.00023784

     Total force =     0.003793     Total SCF correction =     0.000051

     number of scf cycles    =  17
     number of bfgs steps    =  16

     energy   old            =  -21096.3301679988 Ry
     energy   new            =  -21096.3302561555 Ry

     CASE: energy  _new < energy  _old

     new trust radius        =       0.0120378575 bohr
     new conv_thr            =       0.0000000005 Ry


ATOMIC_POSITIONS (angstrom)
Fe       1.654912953   1.170200133   0.000000000    0   0   0
Fe       0.000000000   0.000000000   2.026984232    0   0   0
Fe       4.964738858   3.510600399   0.000000000    0   0   0
Fe       3.309825906   2.340400266   2.026984232    0   0   0
Fe       1.654821796   1.170070388   4.032584647
Fe       3.310103768   9.361819088   6.014673493
Fe       4.971860277   3.515544158   4.031266229
Fe       3.306271003   2.337965570   5.998779551
Fe       2.482363858   3.510600399   0.000000000    0   0   0
Fe       4.137287953   1.170200133   0.000000000    0   0   0
Fe       0.827450906   2.340400266   2.026984232    0   0   0
Fe       2.482375000   0.000000000   2.026984232    0   0   0
Fe       2.481915367   3.513153107   4.031860097
Fe       4.139575551   1.168958666   4.032004510
Fe       0.821220857   2.346752712   6.017809111
Fe       2.486350865  -0.008047009   6.018052864
Fe       6.619662953   1.170200133   0.000000000    0   0   0
Fe       4.964750000   0.000000000   2.026984232    0   0   0
Fe       9.929488858   3.510600399   0.000000000    0   0   0
Fe       8.274575906   2.340400266   2.026984232    0   0   0
Fe       6.622226473   1.169779473   4.021852249
Fe       4.964276000  -0.001370547   6.034650865
Fe       9.928370472   3.508010060   4.021489392
Fe       8.274166031   2.340581685   5.964829076
Fe       7.447113858   3.510600399   0.000000000    0   0   0
Fe       9.102037953   1.170200133   0.000000000    0   0   0
Fe       5.792200906   2.340400266   2.026984232    0   0   0
Fe       7.447125000   0.000000000   2.026984232    0   0   0
Fe       7.429631901   3.534528219   4.060557630
Fe       9.103898389   1.167389931   4.022105641
Fe       5.793661705   2.335166689   5.985545588
Fe      10.752810026   9.368624605   6.018742389
Fe       3.309814764   5.851000664   0.000000000    0   0   0
Fe       1.654901811   4.680800531   2.026984232    0   0   0
Fe       6.619640670   8.191400930   0.000000000    0   0   0
Fe       4.964727717   7.021200797   2.026984232    0   0   0
Fe       3.310214415   5.853753046   4.021729459
Fe      11.583250100   4.680508217   6.034659794
Fe       6.616727427   8.191359003   4.021393002
Fe       4.965053639   7.020466076   5.965867581
Fe       4.137265670   8.191400930   0.000000000    0   0   0
Fe       5.792189764   5.851000664   0.000000000    0   0   0
Fe       2.482352717   7.021200797   2.026984232    0   0   0
Fe       4.137276811   4.680800531   2.026984232    0   0   0
Fe       4.135293267   8.194077720   4.022287721
Fe       5.808881593   5.826655609   4.060507469
Fe      12.417253487   7.014870199   6.018934223
Fe       4.132763600   4.683915519   5.984562929
Fe       8.274564764   5.851000664   0.000000000    0   0   0
Fe       6.619651811   4.680800531   2.026984232    0   0   0
Fe      11.584390670   8.191400930   0.000000000    0   0   0
Fe       9.929477717   7.021200797   2.026984232    0   0   0
Fe       8.267175828   5.845648551   4.031486012
Fe       6.618498206   4.680655972   6.353953300
Fe      11.584389788   8.191303903   4.032977146
Fe       9.932379685   7.023290414   5.999395059
Fe       9.102015670   8.191400930   0.000000000    0   0   0
Fe      10.756939764   5.851000664   0.000000000    0   0   0
Fe       7.447102717   7.021200797   2.026984232    0   0   0
Fe       9.102026811   4.680800531   2.026984232    0   0   0
Fe       9.099585290   8.192004329   4.031977532
Fe      10.756668560   5.848440403   4.032115599
Fe       7.444913676   7.024748560   5.984982361
Fe       9.104622351   4.677396090   5.985978364
N        6.622575424   4.680492678   8.429122040
H        6.602281473   5.620224751   8.842409786
H        5.816439109   4.194359832   8.838204652
H        7.444294709   4.224000286   8.840377290



     Writing output data file Fe_NH3_paper_480c_ESM_pn5.save/
     NEW-OLD atomic charge density approx. for the potential

     Check: negative core charge=   -0.000039

     negative rho (up, down):  9.969E-03 1.066E-01

     total cpu time spent up to now is   252569.6 secs

     Self-consistent Calculation

     iteration #  1     ecut=    60.00 Ry     beta= 0.20
     Davidson diagonalization with overlap
     ethr =  1.00E-06,  avg # of iterations =  9.0

     Threshold (ethr) on eigenvalues was too large:
     Diagonalizing with lowered threshold

     Davidson diagonalization with overlap
     ethr =  2.09E-08,  avg # of iterations = 10.5

     negative rho (up, down):  1.000E-02 1.225E-01

     total cpu time spent up to now is   253644.1 secs

     total energy              =  -21096.33019529 Ry
     Harris-Foulkes estimate   =  -21096.32996885 Ry
     estimated scf accuracy    <       0.00025265 Ry

     total magnetization       =   162.30 Bohr mag/cell
     absolute magnetization    =   170.03 Bohr mag/cell

     iteration #  2     ecut=    60.00 Ry     beta= 0.20
     Davidson diagonalization with overlap
     ethr =  2.45E-08,  avg # of iterations =  1.4

     negative rho (up, down):  1.000E-02 1.233E-01

     total cpu time spent up to now is   253784.4 secs

     total energy              =  -21096.33028112 Ry
     Harris-Foulkes estimate   =  -21096.33020150 Ry
     estimated scf accuracy    <       0.00009374 Ry

     total magnetization       =   162.31 Bohr mag/cell
     absolute magnetization    =   170.04 Bohr mag/cell

     iteration #  3     ecut=    60.00 Ry     beta= 0.20
     Davidson diagonalization with overlap
     ethr =  9.08E-09,  avg # of iterations =  2.6

     negative rho (up, down):  1.003E-02 1.279E-01

     total cpu time spent up to now is   253935.4 secs

     total energy              =  -21096.33035307 Ry
     Harris-Foulkes estimate   =  -21096.33028352 Ry
     estimated scf accuracy    <       0.00004673 Ry

     total magnetization       =   162.32 Bohr mag/cell
     absolute magnetization    =   170.04 Bohr mag/cell

     iteration #  4     ecut=    60.00 Ry     beta= 0.20
     Davidson diagonalization with overlap
     ethr =  4.53E-09,  avg # of iterations =  7.0

     negative rho (up, down):  1.004E-02 1.276E-01

     total cpu time spent up to now is   254129.3 secs

     total energy              =  -21096.33039046 Ry
     Harris-Foulkes estimate   =  -21096.33035673 Ry
     estimated scf accuracy    <       0.00000480 Ry

     total magnetization       =   162.32 Bohr mag/cell
     absolute magnetization    =   170.05 Bohr mag/cell

     iteration #  5     ecut=    60.00 Ry     beta= 0.20
     Davidson diagonalization with overlap
     ethr =  4.65E-10,  avg # of iterations = 11.4

     negative rho (up, down):  1.005E-02 1.268E-01

     total cpu time spent up to now is   254789.1 secs

     total energy              =  -21096.33041552 Ry
     Harris-Foulkes estimate   =  -21096.33040073 Ry
     estimated scf accuracy    <       0.00000312 Ry

     total magnetization       =   162.32 Bohr mag/cell
     absolute magnetization    =   170.05 Bohr mag/cell

     iteration #  6     ecut=    60.00 Ry     beta= 0.20
     Davidson diagonalization with overlap
     ethr =  3.03E-10,  avg # of iterations =  2.9

     negative rho (up, down):  1.003E-02 1.261E-01

     total cpu time spent up to now is   254969.3 secs

     total energy              =  -21096.33041674 Ry
     Harris-Foulkes estimate   =  -21096.33041567 Ry
     estimated scf accuracy    <       0.00000189 Ry

     total magnetization       =   162.33 Bohr mag/cell
     absolute magnetization    =   170.05 Bohr mag/cell

     iteration #  7     ecut=    60.00 Ry     beta= 0.20
     Davidson diagonalization with overlap
     ethr =  1.83E-10,  avg # of iterations =  3.6

     negative rho (up, down):  1.002E-02 1.256E-01

     total cpu time spent up to now is   255140.9 secs

     total energy              =  -21096.33041927 Ry
     Harris-Foulkes estimate   =  -21096.33041680 Ry
     estimated scf accuracy    <       0.00000265 Ry

     total magnetization       =   162.33 Bohr mag/cell
     absolute magnetization    =   170.05 Bohr mag/cell

     iteration #  8     ecut=    60.00 Ry     beta= 0.20
     Davidson diagonalization with overlap
     ethr =  1.83E-10,  avg # of iterations =  2.4

     negative rho (up, down):  1.015E-02 1.256E-01

     total cpu time spent up to now is   255300.1 secs

     total energy              =  -21096.33043966 Ry
     Harris-Foulkes estimate   =  -21096.33041932 Ry
     estimated scf accuracy    <       0.00000329 Ry

     total magnetization       =   162.33 Bohr mag/cell
     absolute magnetization    =   170.05 Bohr mag/cell

     iteration #  9     ecut=    60.00 Ry     beta= 0.20
     Davidson diagonalization with overlap
     ethr =  1.83E-10,  avg # of iterations =  8.1

     negative rho (up, down):  1.021E-02 1.265E-01

     total cpu time spent up to now is   255514.0 secs

     total energy              =  -21096.33047828 Ry
     Harris-Foulkes estimate   =  -21096.33044043 Ry
     estimated scf accuracy    <       0.00002277 Ry

     total magnetization       =   162.34 Bohr mag/cell
     absolute magnetization    =   170.04 Bohr mag/cell

     iteration # 10     ecut=    60.00 Ry     beta= 0.20
     Davidson diagonalization with overlap
     ethr =  1.83E-10,  avg # of iterations =  4.0

     negative rho (up, down):  1.009E-02 1.250E-01

     total cpu time spent up to now is   255700.8 secs

     total energy              =  -21096.33043253 Ry
     Harris-Foulkes estimate   =  -21096.33047834 Ry
     estimated scf accuracy    <       0.00002422 Ry

     total magnetization       =   162.34 Bohr mag/cell
     absolute magnetization    =   170.04 Bohr mag/cell

     iteration # 11     ecut=    60.00 Ry     beta= 0.20
     Davidson diagonalization with overlap
     ethr =  1.83E-10,  avg # of iterations =  3.7

     negative rho (up, down):  9.966E-03 1.240E-01

     total cpu time spent up to now is   255877.4 secs

     total energy              =  -21096.33039410 Ry
     Harris-Foulkes estimate   =  -21096.33043261 Ry
     estimated scf accuracy    <       0.00001542 Ry

     total magnetization       =   162.34 Bohr mag/cell
     absolute magnetization    =   170.05 Bohr mag/cell

     iteration # 12     ecut=    60.00 Ry     beta= 0.20
     Davidson diagonalization with overlap
     ethr =  1.83E-10,  avg # of iterations =  3.8

     negative rho (up, down):  9.953E-03 1.241E-01

     total cpu time spent up to now is   256061.0 secs

     total energy              =  -21096.33038508 Ry
     Harris-Foulkes estimate   =  -21096.33039444 Ry
     estimated scf accuracy    <       0.00000139 Ry

     total magnetization       =   162.33 Bohr mag/cell
     absolute magnetization    =   170.05 Bohr mag/cell

     iteration # 13     ecut=    60.00 Ry     beta= 0.20
     Davidson diagonalization with overlap
     ethr =  1.35E-10,  avg # of iterations =  3.1

     negative rho (up, down):  9.992E-03 1.244E-01

     total cpu time spent up to now is   256244.3 secs

     total energy              =  -21096.33037027 Ry
     Harris-Foulkes estimate   =  -21096.33038526 Ry
     estimated scf accuracy    <       0.00000074 Ry

     total magnetization       =   162.33 Bohr mag/cell
     absolute magnetization    =   170.05 Bohr mag/cell

     iteration # 14     ecut=    60.00 Ry     beta= 0.20
     Davidson diagonalization with overlap
     ethr =  7.13E-11,  avg # of iterations =  9.3

     negative rho (up, down):  1.000E-02 1.244E-01

     total cpu time spent up to now is   256477.1 secs

     total energy              =  -21096.33036918 Ry
     Harris-Foulkes estimate   =  -21096.33037036 Ry
     estimated scf accuracy    <       0.00000257 Ry

     total magnetization       =   162.33 Bohr mag/cell
     absolute magnetization    =   170.06 Bohr mag/cell

     iteration # 15     ecut=    60.00 Ry     beta= 0.20
     Davidson diagonalization with overlap
     ethr =  7.13E-11,  avg # of iterations =  2.2

     negative rho (up, down):  1.002E-02 1.244E-01

     total cpu time spent up to now is   256632.0 secs

     total energy              =  -21096.33036291 Ry
     Harris-Foulkes estimate   =  -21096.33036922 Ry
     estimated scf accuracy    <       0.00000073 Ry

     total magnetization       =   162.33 Bohr mag/cell
     absolute magnetization    =   170.06 Bohr mag/cell

     iteration # 16     ecut=    60.00 Ry     beta= 0.20
     Davidson diagonalization with overlap
     ethr =  7.11E-11,  avg # of iterations =  1.6

     negative rho (up, down):  1.003E-02 1.242E-01

     total cpu time spent up to now is   256774.0 secs

     total energy              =  -21096.33033627 Ry
     Harris-Foulkes estimate   =  -21096.33036295 Ry
     estimated scf accuracy    <       0.00000003 Ry

     total magnetization       =   162.33 Bohr mag/cell
     absolute magnetization    =   170.06 Bohr mag/cell

     iteration # 17     ecut=    60.00 Ry     beta= 0.20
     Davidson diagonalization with overlap
     c_bands:  1 eigenvalues not converged
     ethr =  3.14E-12,  avg # of iterations = 19.5

     negative rho (up, down):  1.002E-02 1.242E-01

     total cpu time spent up to now is   257701.0 secs

     total energy              =  -21096.33033613 Ry
     Harris-Foulkes estimate   =  -21096.33033647 Ry
     estimated scf accuracy    <       0.00000006 Ry

     total magnetization       =   162.33 Bohr mag/cell
     absolute magnetization    =   170.06 Bohr mag/cell

     iteration # 18     ecut=    60.00 Ry     beta= 0.20
     Davidson diagonalization with overlap
     ethr =  3.14E-12,  avg # of iterations =  3.5

     negative rho (up, down):  1.003E-02 1.243E-01

     total cpu time spent up to now is   257873.9 secs

     total energy              =  -21096.33033718 Ry
     Harris-Foulkes estimate   =  -21096.33033613 Ry
     estimated scf accuracy    <       0.00000006 Ry

     total magnetization       =   162.33 Bohr mag/cell
     absolute magnetization    =   170.06 Bohr mag/cell

     iteration # 19     ecut=    60.00 Ry     beta= 0.20
     Davidson diagonalization with overlap
     ethr =  3.14E-12,  avg # of iterations =  6.2

     negative rho (up, down):  1.003E-02 1.243E-01

     total cpu time spent up to now is   258071.8 secs

     total energy              =  -21096.33034699 Ry
     Harris-Foulkes estimate   =  -21096.33033718 Ry
     estimated scf accuracy    <       0.00000008 Ry

     total magnetization       =   162.33 Bohr mag/cell
     absolute magnetization    =   170.06 Bohr mag/cell

     iteration # 20     ecut=    60.00 Ry     beta= 0.20
     Davidson diagonalization with overlap
     ethr =  3.14E-12,  avg # of iterations =  7.3

     negative rho (up, down):  1.002E-02 1.242E-01

     total cpu time spent up to now is   258289.8 secs

     total energy              =  -21096.33032882 Ry
     Harris-Foulkes estimate   =  -21096.33034698 Ry
     estimated scf accuracy    <       0.00000006 Ry

     total magnetization       =   162.33 Bohr mag/cell
     absolute magnetization    =   170.06 Bohr mag/cell

     iteration # 21     ecut=    60.00 Ry     beta= 0.20
     Davidson diagonalization with overlap
     ethr =  3.14E-12,  avg # of iterations =  6.8

     negative rho (up, down):  1.002E-02 1.241E-01

     total cpu time spent up to now is   258529.2 secs

     total energy              =  -21096.33032845 Ry
     Harris-Foulkes estimate   =  -21096.33032881 Ry
     estimated scf accuracy    <       0.00000010 Ry

     total magnetization       =   162.33 Bohr mag/cell
     absolute magnetization    =   170.06 Bohr mag/cell

     iteration # 22     ecut=    60.00 Ry     beta= 0.20
     Davidson diagonalization with overlap
     ethr =  3.14E-12,  avg # of iterations =  4.9

     negative rho (up, down):  1.001E-02 1.241E-01

     total cpu time spent up to now is   258740.7 secs

     total energy              =  -21096.33032654 Ry
     Harris-Foulkes estimate   =  -21096.33032845 Ry
     estimated scf accuracy    <       0.00000005 Ry

     total magnetization       =   162.33 Bohr mag/cell
     absolute magnetization    =   170.06 Bohr mag/cell

     iteration # 23     ecut=    60.00 Ry     beta= 0.20
     Davidson diagonalization with overlap
     ethr =  3.14E-12,  avg # of iterations = 10.6

     negative rho (up, down):  1.001E-02 1.241E-01

     total cpu time spent up to now is   259007.1 secs

     total energy              =  -21096.33032727 Ry
     Harris-Foulkes estimate   =  -21096.33032654 Ry
     estimated scf accuracy    <       0.00000002 Ry

     total magnetization       =   162.33 Bohr mag/cell
     absolute magnetization    =   170.06 Bohr mag/cell

     iteration # 24     ecut=    60.00 Ry     beta= 0.20
     Davidson diagonalization with overlap
