
     Program PWSCF v.6.4.1 starts on 18Jun2022 at 16:34: 7 

     This program is part of the open-source Quantum ESPRESSO suite
     for quantum simulation of materials; please cite
         "P. Giannozzi et al., J. Phys.:Condens. Matter 21 395502 (2009);
         "P. Giannozzi et al., J. Phys.:Condens. Matter 29 465901 (2017);
          URL http://www.quantum-espresso.org", 
     in publications or presentations arising from this work. More details at
     http://www.quantum-espresso.org/quote

     Parallel version (MPI), running on   160 processors

     MPI processes distributed on     8 nodes
     K-points division:     npool     =       8
     R & G space division:  proc/nbgrp/npool/nimage =      20
     Waiting for input...
     Reading input from standard input
Warning: card &CELL ignored
Warning: card / ignored

     Current dimensions of program PWSCF are:
     Max number of different atomic species (ntypx) = 10
     Max number of k-points (npk) =  40000
     Max angular momentum in pseudopotentials (lmaxx) =  3

     Atomic positions and unit cell read from directory:
     ./Fe_NH3_paper_480c_ESM_pn5.save/

     Message from routine readpp:
     file ./Fe_NH3_paper_480c_ESM_pn5.save/Fe.pbe-spn-kjpaw_psl.0.2.1.UPF not found
     Message from routine readpp:
     file ./Fe_NH3_paper_480c_ESM_pn5.save/N.pbe-n-radius_5.UPF not found
     Message from routine readpp:
     file ./Fe_NH3_paper_480c_ESM_pn5.save/H.pbe-rrkjus_psl.1.0.0.UPF not found

     IMPORTANT: XC functional enforced from input :
     Exchange-correlation      = PBE ( 1  4  3  4 0 0)
     Any further DFT definition will be discarded
     Please, verify this is what you really want

               file Fe.pbe-spn-kjpaw_psl.0.2.1.UPF: wavefunction(s)  3D renormalized

     -------------------------------------------------
     Parameters for Dispersion (Grimme-D2) Correction:
     -------------------------------------------------
       atom      VdW radius       C_6     

        Fe         2.952        374.666
        N          2.640         42.670
        H          1.892          4.857

     Subspace diagonalization in iterative solution of the eigenvalue problem:
     one sub-group per band group will be used
     scalapack distributed-memory algorithm (size of sub-group:  3*  3 procs)


     Parallelization info
     --------------------
     sticks:   dense  smooth     PW     G-vecs:    dense   smooth      PW
     Min         634     317     83               145278    51361    6989
     Max         635     318     84               145287    51370    7000
     Sum       12685    6351   1677              2905599  1027285  139897



     bravais-lattice index     =            0
     lattice parameter (alat)  =      18.7640  a.u.
     unit-cell volume          =   16360.3163 (a.u.)^3
     number of atoms/cell      =           68
     number of atomic types    =            3
     number of electrons       =      1032.00
     number of Kohn-Sham states=          619
     kinetic-energy cutoff     =      60.0000  Ry
     charge density cutoff     =     480.0000  Ry
     convergence threshold     =      1.0E-08
     mixing beta               =       0.2000
     number of iterations used =           10  local-TF  mixing
     Exchange-correlation      = PBE ( 1  4  3  4 0 0)
     nstep                     =           50


     Effective Screening Medium Method
     =================================
     Boundary Conditions: Metal-Slab-Metal
     field strength                   =    -0.02 Ry/a.u.
     grid points for fit at edges     =        4 


     celldm(1)=  18.764036  celldm(2)=   0.000000  celldm(3)=   0.000000
     celldm(4)=   0.000000  celldm(5)=   0.000000  celldm(6)=   0.000000

     crystal axes: (cart. coord. in units of alat)
               a(1) = (   1.000000   0.000000   0.000000 )  
               a(2) = (   0.333330   0.942807   0.000000 )  
               a(3) = (   0.000000   0.000000   2.626577 )  

     reciprocal axes: (cart. coord. in units 2 pi/alat)
               b(1) = (  1.000000 -0.353551  0.000000 )  
               b(2) = (  0.000000  1.060663  0.000000 )  
               b(3) = (  0.000000  0.000000  0.380724 )  


     PseudoPot. # 1 for Fe read from file:
     ../../SSSP/Fe.pbe-spn-kjpaw_psl.0.2.1.UPF
     MD5 check sum: e86618425769142926afa95317d90200
     Pseudo is Projector augmented-wave + core cor, Zval = 16.0
     Generated using "atomic" code by A. Dal Corso v.5.0.99 svn rev. 10869
     Shape of augmentation charge: PSQ
     Using radial grid of 1191 points,  6 beta functions with: 
                l(1) =   0
                l(2) =   0
                l(3) =   1
                l(4) =   1
                l(5) =   2
                l(6) =   2
     Q(r) pseudized with 0 coefficients 


     PseudoPot. # 2 for N  read from file:
     ../../SSSP/N.pbe-n-radius_5.UPF
     MD5 check sum: 16739722b17309cd8fe442a2ace49922
     Pseudo is Ultrasoft + core correction, Zval =  5.0
     Generated using "atomic" code by A. Dal Corso v.5.1
     Using radial grid of 1085 points,  4 beta functions with: 
                l(1) =   0
                l(2) =   0
                l(3) =   1
                l(4) =   1
     Q(r) pseudized with 0 coefficients 


     PseudoPot. # 3 for H  read from file:
     ../../SSSP/H.pbe-rrkjus_psl.1.0.0.UPF
     MD5 check sum: f52b6d4d1c606e5624b1dc7b2218f220
     Pseudo is Ultrasoft, Zval =  1.0
     Generated using "atomic" code by A. Dal Corso v.5.1
     Using radial grid of  929 points,  2 beta functions with: 
                l(1) =   0
                l(2) =   0
     Q(r) pseudized with 0 coefficients 


     atomic species   valence    mass     pseudopotential
        Fe            16.00    55.84500     Fe( 1.00)
        N              5.00    14.00700     N ( 1.00)
        H              1.00     1.00800     H ( 1.00)

     Starting magnetic structure 
     atomic species   magnetization
        Fe           0.100
        N            0.100
        H            0.100

     No symmetry found



   Cartesian axes

     site n.     atom                  positions (alat units)
         1           Fe  tau(   1) = (   0.1666663   0.1178509   0.0000000  )
         2           Fe  tau(   2) = (   0.0000000   0.0000000   0.2041376  )
         3           Fe  tau(   3) = (   0.4999989   0.3535526   0.0000000  )
         4           Fe  tau(   4) = (   0.3333326   0.2357017   0.2041376  )
         5           Fe  tau(   5) = (   0.1666571   0.1178378   0.4061216  )
         6           Fe  tau(   6) = (   0.3333606   0.9428289   0.6057378  )
         7           Fe  tau(   7) = (   0.5007161   0.3540505   0.4059888  )
         8           Fe  tau(   8) = (   0.3329746   0.2354565   0.6041371  )
         9           Fe  tau(   9) = (   0.2499989   0.3535526   0.0000000  )
        10           Fe  tau(  10) = (   0.4166663   0.1178509   0.0000000  )
        11           Fe  tau(  11) = (   0.0833326   0.2357017   0.2041376  )
        12           Fe  tau(  12) = (   0.2500000   0.0000000   0.2041376  )
        13           Fe  tau(  13) = (   0.2499537   0.3538097   0.4060487  )
        14           Fe  tau(  14) = (   0.4168967   0.1177258   0.4060632  )
        15           Fe  tau(  15) = (   0.0827052   0.2363415   0.6060536  )
        16           Fe  tau(  16) = (   0.2504004  -0.0008104   0.6060781  )
        17           Fe  tau(  17) = (   0.6666663   0.1178509   0.0000000  )
        18           Fe  tau(  18) = (   0.5000000   0.0000000   0.2041376  )
        19           Fe  tau(  19) = (   0.9999989   0.3535526   0.0000000  )
        20           Fe  tau(  20) = (   0.8333326   0.2357017   0.2041376  )
        21           Fe  tau(  21) = (   0.6669245   0.1178085   0.4050408  )
        22           Fe  tau(  22) = (   0.4999523  -0.0001380   0.6077497  )
        23           Fe  tau(  23) = (   0.9998862   0.3532917   0.4050042  )
        24           Fe  tau(  24) = (   0.8332913   0.2357200   0.6007180  )
        25           Fe  tau(  25) = (   0.7499989   0.3535526   0.0000000  )
        26           Fe  tau(  26) = (   0.9166663   0.1178509   0.0000000  )
        27           Fe  tau(  27) = (   0.5833326   0.2357017   0.2041376  )
        28           Fe  tau(  28) = (   0.7500000   0.0000000   0.2041376  )
        29           Fe  tau(  29) = (   0.7482383   0.3559624   0.4089388  )
        30           Fe  tau(  30) = (   0.9168537   0.1175678   0.4050663  )
        31           Fe  tau(  31) = (   0.5834797   0.2351747   0.6028043  )
        32           Fe  tau(  32) = (   1.0829156   0.9435142   0.6061476  )
        33           Fe  tau(  33) = (   0.3333315   0.5892543   0.0000000  )
        34           Fe  tau(  34) = (   0.1666652   0.4714034   0.2041376  )
        35           Fe  tau(  35) = (   0.6666640   0.8249560   0.0000000  )
        36           Fe  tau(  36) = (   0.4999978   0.7071052   0.2041376  )
        37           Fe  tau(  37) = (   0.3333717   0.5895315   0.4050284  )
        38           Fe  tau(  38) = (   1.1665492   0.4713740   0.6077506  )
        39           Fe  tau(  39) = (   0.6663707   0.8249518   0.4049945  )
        40           Fe  tau(  40) = (   0.5000306   0.7070312   0.6008226  )
        41           Fe  tau(  41) = (   0.4166640   0.8249560   0.0000000  )
        42           Fe  tau(  42) = (   0.5833315   0.5892543   0.0000000  )
        43           Fe  tau(  43) = (   0.2499978   0.7071052   0.2041376  )
        44           Fe  tau(  44) = (   0.4166652   0.4714034   0.2041376  )
        45           Fe  tau(  45) = (   0.4164654   0.8252256   0.4050846  )
        46           Fe  tau(  46) = (   0.5850125   0.5868025   0.4089337  )
        47           Fe  tau(  47) = (   1.2505417   0.7064676   0.6061669  )
        48           Fe  tau(  48) = (   0.4162106   0.4717172   0.6027054  )
        49           Fe  tau(  49) = (   0.8333315   0.5892543   0.0000000  )
        50           Fe  tau(  50) = (   0.6666652   0.4714034   0.2041376  )
        51           Fe  tau(  51) = (   1.1666640   0.8249560   0.0000000  )
        52           Fe  tau(  52) = (   0.9999978   0.7071052   0.2041376  )
        53           Fe  tau(  53) = (   0.8325873   0.5887153   0.4060110  )
        54           Fe  tau(  54) = (   0.6665490   0.4713889   0.6399067  )
        55           Fe  tau(  55) = (   1.1666640   0.8249463   0.4061612  )
        56           Fe  tau(  56) = (   1.0002900   0.7073156   0.6041991  )
        57           Fe  tau(  57) = (   0.9166640   0.8249560   0.0000000  )
        58           Fe  tau(  58) = (   1.0833315   0.5892543   0.0000000  )
        59           Fe  tau(  59) = (   0.7499978   0.7071052   0.2041376  )
        60           Fe  tau(  60) = (   0.9166652   0.4714034   0.2041376  )
        61           Fe  tau(  61) = (   0.9164193   0.8250168   0.4060605  )
        62           Fe  tau(  62) = (   1.0833042   0.5889965   0.4060744  )
        63           Fe  tau(  63) = (   0.7497773   0.7074625   0.6027476  )
        64           Fe  tau(  64) = (   0.9169266   0.4710606   0.6028479  )
        65           N   tau(  65) = (   0.6669596   0.4713724   0.8488969  )
        66           H   tau(  66) = (   0.6649158   0.5660129   0.8905191  )
        67           H   tau(  67) = (   0.5857736   0.4224140   0.8900956  )
        68           H   tau(  68) = (   0.7497150   0.4253991   0.8903144  )

     number of k points=    10  Methfessel-Paxton smearing, width (Ry)=  0.0100
                       cart. coord. in units 2pi/alat
        k(    1) = (   0.0000000   0.0000000   0.0000000), wk =   0.0625000
        k(    2) = (   0.0000000   0.2651656   0.0000000), wk =   0.1250000
        k(    3) = (   0.0000000  -0.5303313   0.0000000), wk =   0.0625000
        k(    4) = (   0.2500000  -0.0883878   0.0000000), wk =   0.1250000
        k(    5) = (   0.2500000   0.1767779   0.0000000), wk =   0.1250000
        k(    6) = (   0.2500000  -0.6187190   0.0000000), wk =   0.1250000
        k(    7) = (   0.2500000  -0.3535534   0.0000000), wk =   0.1250000
        k(    8) = (  -0.5000000   0.1767755   0.0000000), wk =   0.0625000
        k(    9) = (  -0.5000000   0.4419412   0.0000000), wk =   0.1250000
        k(   10) = (  -0.5000000  -0.3535558   0.0000000), wk =   0.0625000

     Dense  grid:  2905599 G-vectors     FFT dimensions: ( 135, 135, 360)

     Smooth grid:  1027285 G-vectors     FFT dimensions: (  96,  96, 243)

     Estimated max dynamical RAM per process >       1.01 GB

     Estimated total dynamical RAM >     162.10 GB
     Generating pointlists ...
     new r_m :   0.0862 (alat units)  1.6176 (a.u.) for type    1
     new r_m :   0.0426 (alat units)  0.7998 (a.u.) for type    2
     new r_m :   0.0426 (alat units)  0.7998 (a.u.) for type    3

     Check: negative core charge=   -0.000039

     The initial density is read from file :
     ./Fe_NH3_paper_480c_ESM_pn5.save/charge-density


     negative rho (up, down):  1.003E-02 1.242E-01
     Starting wfcs from file
     Checking if some PAW data can be deallocated... 

     total cpu time spent up to now is       24.8 secs

     Self-consistent Calculation

     iteration #  1     ecut=    60.00 Ry     beta= 0.20
     Davidson diagonalization with overlap
     ethr =  1.00E-04,  avg # of iterations = 10.9

     negative rho (up, down):  1.624E-02 1.780E-01

     total cpu time spent up to now is      710.9 secs

     total energy              =  -21096.32507500 Ry
     Harris-Foulkes estimate   =  -21096.44196669 Ry
     estimated scf accuracy    <       6.23222408 Ry

     total magnetization       =   158.86 Bohr mag/cell
     absolute magnetization    =   167.89 Bohr mag/cell

     iteration #  2     ecut=    60.00 Ry     beta= 0.20
     Davidson diagonalization with overlap
     ethr =  6.04E-04,  avg # of iterations =  1.0

     negative rho (up, down):  2.587E-02 2.066E-01

     total cpu time spent up to now is      848.0 secs

     total energy              =  -21096.35044839 Ry
     Harris-Foulkes estimate   =  -21096.37079441 Ry
     estimated scf accuracy    <       0.69441861 Ry

     total magnetization       =   161.24 Bohr mag/cell
     absolute magnetization    =   169.99 Bohr mag/cell

     iteration #  3     ecut=    60.00 Ry     beta= 0.20
     Davidson diagonalization with overlap
     ethr =  6.73E-05,  avg # of iterations =  1.0

     negative rho (up, down):  4.043E-02 2.185E-01

     total cpu time spent up to now is      978.2 secs

     total energy              =  -21096.33306492 Ry
     Harris-Foulkes estimate   =  -21096.35422036 Ry
     estimated scf accuracy    <       0.21404570 Ry

     total magnetization       =   161.56 Bohr mag/cell
     absolute magnetization    =   170.11 Bohr mag/cell

     iteration #  4     ecut=    60.00 Ry     beta= 0.20
     Davidson diagonalization with overlap
     ethr =  2.07E-05,  avg # of iterations =  1.9

     negative rho (up, down):  5.490E-02 2.212E-01

     total cpu time spent up to now is     1154.5 secs

     total energy              =  -21096.32087869 Ry
     Harris-Foulkes estimate   =  -21096.33558187 Ry
     estimated scf accuracy    <       0.09708701 Ry

     total magnetization       =   161.96 Bohr mag/cell
     absolute magnetization    =   170.04 Bohr mag/cell

     iteration #  5     ecut=    60.00 Ry     beta= 0.20
     Davidson diagonalization with overlap
     ethr =  9.41E-06,  avg # of iterations =  4.0

     negative rho (up, down):  4.157E-02 1.883E-01

     total cpu time spent up to now is     1350.3 secs

     total energy              =  -21096.32731638 Ry
     Harris-Foulkes estimate   =  -21096.32486980 Ry
     estimated scf accuracy    <       0.01333252 Ry

     total magnetization       =   162.40 Bohr mag/cell
     absolute magnetization    =   169.96 Bohr mag/cell

     iteration #  6     ecut=    60.00 Ry     beta= 0.20
     Davidson diagonalization with overlap
     c_bands:  1 eigenvalues not converged
     ethr =  1.29E-06,  avg # of iterations = 15.6

     negative rho (up, down):  4.115E-02 1.768E-01

     total cpu time spent up to now is     1853.7 secs

     total energy              =  -21096.32948055 Ry
     Harris-Foulkes estimate   =  -21096.33028377 Ry
     estimated scf accuracy    <       0.00553984 Ry

     total magnetization       =   162.30 Bohr mag/cell
     absolute magnetization    =   170.13 Bohr mag/cell

     iteration #  7     ecut=    60.00 Ry     beta= 0.20
     Davidson diagonalization with overlap
     ethr =  5.37E-07,  avg # of iterations =  4.4

     negative rho (up, down):  3.290E-02 1.367E-01

     total cpu time spent up to now is     2058.7 secs

     total energy              =  -21096.32879427 Ry
     Harris-Foulkes estimate   =  -21096.33018131 Ry
     estimated scf accuracy    <       0.00271368 Ry

     total magnetization       =   162.34 Bohr mag/cell
     absolute magnetization    =   170.03 Bohr mag/cell

     iteration #  8     ecut=    60.00 Ry     beta= 0.20
     Davidson diagonalization with overlap
     ethr =  2.63E-07,  avg # of iterations =  5.2

     negative rho (up, down):  2.411E-02 8.518E-02

     total cpu time spent up to now is     2257.3 secs

     total energy              =  -21096.32745906 Ry
     Harris-Foulkes estimate   =  -21096.32906765 Ry
     estimated scf accuracy    <       0.00425430 Ry

     total magnetization       =   162.40 Bohr mag/cell
     absolute magnetization    =   169.95 Bohr mag/cell

     iteration #  9     ecut=    60.00 Ry     beta= 0.20
     Davidson diagonalization with overlap
     ethr =  2.63E-07,  avg # of iterations =  5.0

     negative rho (up, down):  1.726E-02 5.334E-02

     total cpu time spent up to now is     2430.5 secs

     total energy              =  -21096.32609439 Ry
     Harris-Foulkes estimate   =  -21096.32769413 Ry
     estimated scf accuracy    <       0.00745463 Ry

     total magnetization       =   162.39 Bohr mag/cell
     absolute magnetization    =   169.82 Bohr mag/cell

     iteration # 10     ecut=    60.00 Ry     beta= 0.20
     Davidson diagonalization with overlap
     ethr =  2.63E-07,  avg # of iterations =  1.8

     negative rho (up, down):  9.455E-03 3.716E-02

     total cpu time spent up to now is     2580.6 secs

     total energy              =  -21096.32537639 Ry
     Harris-Foulkes estimate   =  -21096.32627982 Ry
     estimated scf accuracy    <       0.00262898 Ry

     total magnetization       =   162.28 Bohr mag/cell
     absolute magnetization    =   169.85 Bohr mag/cell

     iteration # 11     ecut=    60.00 Ry     beta= 0.20
     Davidson diagonalization with overlap
     c_bands:  1 eigenvalues not converged
     ethr =  2.55E-07,  avg # of iterations =  6.3

     negative rho (up, down):  8.491E-03 4.853E-02

     total cpu time spent up to now is     2797.1 secs

     total energy              =  -21096.32693002 Ry
     Harris-Foulkes estimate   =  -21096.32701676 Ry
     estimated scf accuracy    <       0.02682044 Ry

     total magnetization       =   161.97 Bohr mag/cell
     absolute magnetization    =   170.22 Bohr mag/cell

     iteration # 12     ecut=    60.00 Ry     beta= 0.20
     Davidson diagonalization with overlap
     ethr =  2.55E-07,  avg # of iterations =  6.5

     negative rho (up, down):  1.048E-02 9.169E-02

     total cpu time spent up to now is     2988.2 secs

     total energy              =  -21096.32874476 Ry
     Harris-Foulkes estimate   =  -21096.32735259 Ry
     estimated scf accuracy    <       0.00505557 Ry

     total magnetization       =   162.18 Bohr mag/cell
     absolute magnetization    =   170.11 Bohr mag/cell

     iteration # 13     ecut=    60.00 Ry     beta= 0.20
     Davidson diagonalization with overlap
     ethr =  2.55E-07,  avg # of iterations =  2.0

     negative rho (up, down):  9.704E-03 1.022E-01

     total cpu time spent up to now is     3160.6 secs

     total energy              =  -21096.32911171 Ry
     Harris-Foulkes estimate   =  -21096.32880272 Ry
     estimated scf accuracy    <       0.00390900 Ry

     total magnetization       =   162.25 Bohr mag/cell
     absolute magnetization    =   170.16 Bohr mag/cell

     iteration # 14     ecut=    60.00 Ry     beta= 0.20
     Davidson diagonalization with overlap
     ethr =  2.55E-07,  avg # of iterations =  1.0

     negative rho (up, down):  9.140E-03 8.368E-02

     total cpu time spent up to now is     3290.9 secs

     total energy              =  -21096.32716028 Ry
     Harris-Foulkes estimate   =  -21096.32917200 Ry
     estimated scf accuracy    <       0.00784187 Ry

     total magnetization       =   162.22 Bohr mag/cell
     absolute magnetization    =   170.22 Bohr mag/cell

     iteration # 15     ecut=    60.00 Ry     beta= 0.20
     Davidson diagonalization with overlap
     ethr =  2.55E-07,  avg # of iterations =  1.0

     negative rho (up, down):  8.998E-03 9.795E-02

     total cpu time spent up to now is     3419.5 secs

     total energy              =  -21096.32773454 Ry
     Harris-Foulkes estimate   =  -21096.32747395 Ry
     estimated scf accuracy    <       0.00009690 Ry

     total magnetization       =   162.34 Bohr mag/cell
     absolute magnetization    =   170.06 Bohr mag/cell

     iteration # 16     ecut=    60.00 Ry     beta= 0.20
     Davidson diagonalization with overlap
     ethr =  9.39E-09,  avg # of iterations = 16.9

     negative rho (up, down):  9.257E-03 1.009E-01

     total cpu time spent up to now is     4457.8 secs

     total energy              =  -21096.32795616 Ry
     Harris-Foulkes estimate   =  -21096.32793306 Ry
     estimated scf accuracy    <       0.00040828 Ry

     total magnetization       =   162.34 Bohr mag/cell
     absolute magnetization    =   170.11 Bohr mag/cell

     iteration # 17     ecut=    60.00 Ry     beta= 0.20
     Davidson diagonalization with overlap
     ethr =  9.39E-09,  avg # of iterations =  1.4

     negative rho (up, down):  9.008E-03 1.034E-01

     total cpu time spent up to now is     4592.3 secs

     total energy              =  -21096.32813340 Ry
     Harris-Foulkes estimate   =  -21096.32796145 Ry
     estimated scf accuracy    <       0.00019334 Ry

     total magnetization       =   162.36 Bohr mag/cell
     absolute magnetization    =   170.10 Bohr mag/cell

     iteration # 18     ecut=    60.00 Ry     beta= 0.20
     Davidson diagonalization with overlap
     ethr =  9.39E-09,  avg # of iterations =  2.0

     negative rho (up, down):  8.950E-03 1.095E-01

     total cpu time spent up to now is     4746.1 secs

     total energy              =  -21096.32887522 Ry
     Harris-Foulkes estimate   =  -21096.32814506 Ry
     estimated scf accuracy    <       0.00064592 Ry

     total magnetization       =   162.33 Bohr mag/cell
     absolute magnetization    =   170.13 Bohr mag/cell

     iteration # 19     ecut=    60.00 Ry     beta= 0.20
     Davidson diagonalization with overlap
     ethr =  9.39E-09,  avg # of iterations =  7.0

     negative rho (up, down):  9.567E-03 1.127E-01

     total cpu time spent up to now is     4926.8 secs

     total energy              =  -21096.32902422 Ry
     Harris-Foulkes estimate   =  -21096.32893451 Ry
     estimated scf accuracy    <       0.00373563 Ry

     total magnetization       =   162.25 Bohr mag/cell
     absolute magnetization    =   170.17 Bohr mag/cell

     iteration # 20     ecut=    60.00 Ry     beta= 0.20
     Davidson diagonalization with overlap
     ethr =  9.39E-09,  avg # of iterations =  1.4

     negative rho (up, down):  9.907E-03 1.181E-01

     total cpu time spent up to now is     5065.6 secs

     total energy              =  -21096.32927645 Ry
     Harris-Foulkes estimate   =  -21096.32903227 Ry
     estimated scf accuracy    <       0.00248954 Ry

     total magnetization       =   162.26 Bohr mag/cell
     absolute magnetization    =   170.14 Bohr mag/cell

     iteration # 21     ecut=    60.00 Ry     beta= 0.20
     Davidson diagonalization with overlap
     ethr =  9.39E-09,  avg # of iterations =  2.8

     negative rho (up, down):  1.074E-02 1.215E-01

     total cpu time spent up to now is     5220.6 secs

     total energy              =  -21096.32928818 Ry
     Harris-Foulkes estimate   =  -21096.32927870 Ry
     estimated scf accuracy    <       0.00209177 Ry

     total magnetization       =   162.27 Bohr mag/cell
     absolute magnetization    =   170.14 Bohr mag/cell

     iteration # 22     ecut=    60.00 Ry     beta= 0.20
     Davidson diagonalization with overlap
     ethr =  9.39E-09,  avg # of iterations =  1.8

     negative rho (up, down):  1.026E-02 1.205E-01

     total cpu time spent up to now is     5373.7 secs

     total energy              =  -21096.32961278 Ry
     Harris-Foulkes estimate   =  -21096.32935408 Ry
     estimated scf accuracy    <       0.00002270 Ry

     total magnetization       =   162.34 Bohr mag/cell
     absolute magnetization    =   170.08 Bohr mag/cell

     iteration # 23     ecut=    60.00 Ry     beta= 0.20
     Davidson diagonalization with overlap
     ethr =  2.20E-09,  avg # of iterations =  8.7

     negative rho (up, down):  1.022E-02 1.207E-01

     total cpu time spent up to now is     5726.0 secs

     total energy              =  -21096.32962584 Ry
     Harris-Foulkes estimate   =  -21096.32961937 Ry
     estimated scf accuracy    <       0.00000647 Ry

     total magnetization       =   162.35 Bohr mag/cell
     absolute magnetization    =   170.06 Bohr mag/cell

     iteration # 24     ecut=    60.00 Ry     beta= 0.20
     Davidson diagonalization with overlap
     ethr =  6.27E-10,  avg # of iterations =  8.7

     negative rho (up, down):  1.026E-02 1.203E-01

     total cpu time spent up to now is     6485.6 secs

     total energy              =  -21096.32960688 Ry
     Harris-Foulkes estimate   =  -21096.32962927 Ry
     estimated scf accuracy    <       0.00002073 Ry

     total magnetization       =   162.34 Bohr mag/cell
     absolute magnetization    =   170.07 Bohr mag/cell

     iteration # 25     ecut=    60.00 Ry     beta= 0.20
     Davidson diagonalization with overlap
     ethr =  6.27E-10,  avg # of iterations =  1.4

     negative rho (up, down):  1.013E-02 1.194E-01

     total cpu time spent up to now is     6626.4 secs

     total energy              =  -21096.32952136 Ry
     Harris-Foulkes estimate   =  -21096.32960705 Ry
     estimated scf accuracy    <       0.00001641 Ry

     total magnetization       =   162.34 Bohr mag/cell
     absolute magnetization    =   170.07 Bohr mag/cell

     iteration # 26     ecut=    60.00 Ry     beta= 0.20
     Davidson diagonalization with overlap
     ethr =  6.27E-10,  avg # of iterations =  4.2

     negative rho (up, down):  1.034E-02 1.217E-01

     total cpu time spent up to now is     6788.4 secs

     total energy              =  -21096.32970143 Ry
     Harris-Foulkes estimate   =  -21096.32952156 Ry
     estimated scf accuracy    <       0.00001170 Ry

     total magnetization       =   162.34 Bohr mag/cell
     absolute magnetization    =   170.07 Bohr mag/cell

     iteration # 27     ecut=    60.00 Ry     beta= 0.20
     Davidson diagonalization with overlap
     ethr =  6.27E-10,  avg # of iterations =  6.0

     negative rho (up, down):  1.042E-02 1.225E-01

     total cpu time spent up to now is     6986.9 secs

     total energy              =  -21096.32972569 Ry
     Harris-Foulkes estimate   =  -21096.32970161 Ry
     estimated scf accuracy    <       0.00000967 Ry

     total magnetization       =   162.34 Bohr mag/cell
     absolute magnetization    =   170.07 Bohr mag/cell

     iteration # 28     ecut=    60.00 Ry     beta= 0.20
     Davidson diagonalization with overlap
     ethr =  6.27E-10,  avg # of iterations =  2.2

     negative rho (up, down):  1.025E-02 1.218E-01

     total cpu time spent up to now is     7145.5 secs

     total energy              =  -21096.32971786 Ry
     Harris-Foulkes estimate   =  -21096.32972577 Ry
     estimated scf accuracy    <       0.00000773 Ry

     total magnetization       =   162.34 Bohr mag/cell
     absolute magnetization    =   170.07 Bohr mag/cell

     iteration # 29     ecut=    60.00 Ry     beta= 0.20
     Davidson diagonalization with overlap
     ethr =  6.27E-10,  avg # of iterations =  1.9

     negative rho (up, down):  1.034E-02 1.232E-01

     total cpu time spent up to now is     7289.2 secs

     total energy              =  -21096.32985950 Ry
     Harris-Foulkes estimate   =  -21096.32971802 Ry
     estimated scf accuracy    <       0.00000973 Ry

     total magnetization       =   162.34 Bohr mag/cell
     absolute magnetization    =   170.07 Bohr mag/cell

     iteration # 30     ecut=    60.00 Ry     beta= 0.20
     Davidson diagonalization with overlap
     ethr =  6.27E-10,  avg # of iterations =  5.0

     negative rho (up, down):  1.027E-02 1.237E-01

     total cpu time spent up to now is     7490.8 secs

     total energy              =  -21096.32999458 Ry
     Harris-Foulkes estimate   =  -21096.32985977 Ry
     estimated scf accuracy    <       0.00000287 Ry

     total magnetization       =   162.34 Bohr mag/cell
     absolute magnetization    =   170.07 Bohr mag/cell

     iteration # 31     ecut=    60.00 Ry     beta= 0.20
     Davidson diagonalization with overlap
     ethr =  2.78E-10,  avg # of iterations =  8.1

     negative rho (up, down):  1.017E-02 1.236E-01

     total cpu time spent up to now is     7762.2 secs

     total energy              =  -21096.33004907 Ry
     Harris-Foulkes estimate   =  -21096.32999505 Ry
     estimated scf accuracy    <       0.00000084 Ry

     total magnetization       =   162.34 Bohr mag/cell
     absolute magnetization    =   170.06 Bohr mag/cell

     iteration # 32     ecut=    60.00 Ry     beta= 0.20
     Davidson diagonalization with overlap
     ethr =  8.16E-11,  avg # of iterations = 10.7

     negative rho (up, down):  1.006E-02 1.232E-01

     total cpu time spent up to now is     8389.7 secs

     total energy              =  -21096.33006655 Ry
     Harris-Foulkes estimate   =  -21096.33004950 Ry
     estimated scf accuracy    <       0.00000083 Ry

     total magnetization       =   162.34 Bohr mag/cell
     absolute magnetization    =   170.06 Bohr mag/cell

     iteration # 33     ecut=    60.00 Ry     beta= 0.20
     Davidson diagonalization with overlap
     ethr =  8.02E-11,  avg # of iterations =  9.2

     negative rho (up, down):  1.003E-02 1.239E-01

     total cpu time spent up to now is     8649.1 secs

     total energy              =  -21096.33018494 Ry
     Harris-Foulkes estimate   =  -21096.33006666 Ry
     estimated scf accuracy    <       0.00000059 Ry

     total magnetization       =   162.34 Bohr mag/cell
     absolute magnetization    =   170.06 Bohr mag/cell

     iteration # 34     ecut=    60.00 Ry     beta= 0.20
     Davidson diagonalization with overlap
     ethr =  5.76E-11,  avg # of iterations =  9.8

     negative rho (up, down):  1.001E-02 1.245E-01

     total cpu time spent up to now is     8903.1 secs

     total energy              =  -21096.33027234 Ry
     Harris-Foulkes estimate   =  -21096.33018499 Ry
     estimated scf accuracy    <       0.00000014 Ry

     total magnetization       =   162.34 Bohr mag/cell
     absolute magnetization    =   170.06 Bohr mag/cell

     iteration # 35     ecut=    60.00 Ry     beta= 0.20
     Davidson diagonalization with overlap
     ethr =  1.36E-11,  avg # of iterations = 15.2

     negative rho (up, down):  1.003E-02 1.245E-01

     total cpu time spent up to now is     9979.1 secs

     total energy              =  -21096.33027628 Ry
     Harris-Foulkes estimate   =  -21096.33027243 Ry
     estimated scf accuracy    <       0.00000016 Ry

     total magnetization       =   162.34 Bohr mag/cell
     absolute magnetization    =   170.06 Bohr mag/cell

     iteration # 36     ecut=    60.00 Ry     beta= 0.20
     Davidson diagonalization with overlap
     ethr =  1.36E-11,  avg # of iterations =  4.5

     negative rho (up, down):  1.000E-02 1.244E-01

     total cpu time spent up to now is    10155.2 secs

     total energy              =  -21096.33030165 Ry
     Harris-Foulkes estimate   =  -21096.33027630 Ry
     estimated scf accuracy    <       0.00000010 Ry

     total magnetization       =   162.34 Bohr mag/cell
     absolute magnetization    =   170.06 Bohr mag/cell

     iteration # 37     ecut=    60.00 Ry     beta= 0.20
     Davidson diagonalization with overlap
     ethr =  9.63E-12,  avg # of iterations =  9.4

     negative rho (up, down):  9.981E-03 1.243E-01

     total cpu time spent up to now is    10414.2 secs

     total energy              =  -21096.33033004 Ry
     Harris-Foulkes estimate   =  -21096.33030165 Ry
     estimated scf accuracy    <       0.00000003 Ry

     total magnetization       =   162.34 Bohr mag/cell
     absolute magnetization    =   170.06 Bohr mag/cell

     iteration # 38     ecut=    60.00 Ry     beta= 0.20
     Davidson diagonalization with overlap
     ethr =  2.99E-12,  avg # of iterations = 14.1

     negative rho (up, down):  9.968E-03 1.242E-01

     total cpu time spent up to now is    11127.9 secs

     total energy              =  -21096.33033310 Ry
     Harris-Foulkes estimate   =  -21096.33033006 Ry
     estimated scf accuracy    <       0.00000003 Ry

     total magnetization       =   162.34 Bohr mag/cell
     absolute magnetization    =   170.06 Bohr mag/cell

     iteration # 39     ecut=    60.00 Ry     beta= 0.20
     Davidson diagonalization with overlap
     ethr =  2.99E-12,  avg # of iterations =  5.3

     negative rho (up, down):  9.964E-03 1.241E-01

     total cpu time spent up to now is    11348.6 secs

     total energy              =  -21096.33033080 Ry
     Harris-Foulkes estimate   =  -21096.33033311 Ry
     estimated scf accuracy    <       0.00000001 Ry

     total magnetization       =   162.34 Bohr mag/cell
     absolute magnetization    =   170.06 Bohr mag/cell

     iteration # 40     ecut=    60.00 Ry     beta= 0.20
     Davidson diagonalization with overlap
     ethr =  9.70E-13,  avg # of iterations = 11.1

     negative rho (up, down):  1.002E-02 1.242E-01

     Magnetic moment per site:
     atom:    1    charge:   13.4492    magn:    2.5488    constr:    0.0000
     atom:    2    charge:   13.4606    magn:    2.3396    constr:    0.0000
     atom:    3    charge:   13.4484    magn:    2.5414    constr:    0.0000
     atom:    4    charge:   13.4598    magn:    2.3460    constr:    0.0000
     atom:    5    charge:   13.4649    magn:    2.3343    constr:    0.0000
     atom:    6    charge:   13.4549    magn:    2.5532    constr:    0.0000
     atom:    7    charge:   13.4717    magn:    2.2942    constr:    0.0000
     atom:    8    charge:   13.4558    magn:    2.5417    constr:    0.0000
     atom:    9    charge:   13.4489    magn:    2.5418    constr:    0.0000
     atom:   10    charge:   13.4489    magn:    2.5418    constr:    0.0000
     atom:   11    charge:   13.4605    magn:    2.3427    constr:    0.0000
     atom:   12    charge:   13.4605    magn:    2.3427    constr:    0.0000
     atom:   13    charge:   13.4646    magn:    2.3451    constr:    0.0000
     atom:   14    charge:   13.4646    magn:    2.3451    constr:    0.0000
     atom:   15    charge:   13.4569    magn:    2.5405    constr:    0.0000
     atom:   16    charge:   13.4569    magn:    2.5409    constr:    0.0000
     atom:   17    charge:   13.4489    magn:    2.5407    constr:    0.0000
     atom:   18    charge:   13.4595    magn:    2.3540    constr:    0.0000
     atom:   19    charge:   13.4489    magn:    2.5406    constr:    0.0000
     atom:   20    charge:   13.4577    magn:    2.3646    constr:    0.0000
     atom:   21    charge:   13.4671    magn:    2.3233    constr:    0.0000
     atom:   22    charge:   13.4574    magn:    2.5371    constr:    0.0000
     atom:   23    charge:   13.4671    magn:    2.3229    constr:    0.0000
     atom:   24    charge:   13.4662    magn:    2.4920    constr:    0.0000
     atom:   25    charge:   13.4484    magn:    2.5398    constr:    0.0000
     atom:   26    charge:   13.4493    magn:    2.5455    constr:    0.0000
     atom:   27    charge:   13.4594    magn:    2.3610    constr:    0.0000
     atom:   28    charge:   13.4604    magn:    2.3430    constr:    0.0000
     atom:   29    charge:   13.4539    magn:    2.3606    constr:    0.0000
     atom:   30    charge:   13.4693    magn:    2.3057    constr:    0.0000
     atom:   31    charge:   13.4570    magn:    2.5509    constr:    0.0000
     atom:   32    charge:   13.4569    magn:    2.5415    constr:    0.0000
     atom:   33    charge:   13.4489    magn:    2.5406    constr:    0.0000
     atom:   34    charge:   13.4595    magn:    2.3539    constr:    0.0000
     atom:   35    charge:   13.4489    magn:    2.5406    constr:    0.0000
     atom:   36    charge:   13.4577    magn:    2.3646    constr:    0.0000
     atom:   37    charge:   13.4671    magn:    2.3230    constr:    0.0000
     atom:   38    charge:   13.4574    magn:    2.5371    constr:    0.0000
     atom:   39    charge:   13.4671    magn:    2.3227    constr:    0.0000
     atom:   40    charge:   13.4660    magn:    2.4934    constr:    0.0000
     atom:   41    charge:   13.4493    magn:    2.5454    constr:    0.0000
     atom:   42    charge:   13.4484    magn:    2.5398    constr:    0.0000
     atom:   43    charge:   13.4605    magn:    2.3429    constr:    0.0000
     atom:   44    charge:   13.4594    magn:    2.3611    constr:    0.0000
     atom:   45    charge:   13.4692    magn:    2.3059    constr:    0.0000
     atom:   46    charge:   13.4539    magn:    2.3607    constr:    0.0000
     atom:   47    charge:   13.4569    magn:    2.5419    constr:    0.0000
     atom:   48    charge:   13.4573    magn:    2.5496    constr:    0.0000
     atom:   49    charge:   13.4484    magn:    2.5412    constr:    0.0000
     atom:   50    charge:   13.4576    magn:    2.3578    constr:    0.0000
     atom:   51    charge:   13.4492    magn:    2.5488    constr:    0.0000
     atom:   52    charge:   13.4598    magn:    2.3457    constr:    0.0000
     atom:   53    charge:   13.4717    magn:    2.2942    constr:    0.0000
     atom:   54    charge:   13.4260    magn:    2.4074    constr:    0.0000
     atom:   55    charge:   13.4648    magn:    2.3343    constr:    0.0000
     atom:   56    charge:   13.4558    magn:    2.5425    constr:    0.0000
     atom:   57    charge:   13.4489    magn:    2.5418    constr:    0.0000
     atom:   58    charge:   13.4489    magn:    2.5418    constr:    0.0000
     atom:   59    charge:   13.4594    magn:    2.3609    constr:    0.0000
     atom:   60    charge:   13.4594    magn:    2.3608    constr:    0.0000
     atom:   61    charge:   13.4646    magn:    2.3445    constr:    0.0000
     atom:   62    charge:   13.4646    magn:    2.3445    constr:    0.0000
     atom:   63    charge:   13.4574    magn:    2.5491    constr:    0.0000
     atom:   64    charge:   13.4571    magn:    2.5504    constr:    0.0000
     atom:   65    charge:    1.3634    magn:   -0.0007    constr:    0.0000
     atom:   66    charge:    0.4340    magn:    0.0021    constr:    0.0000
     atom:   67    charge:    0.4343    magn:    0.0025    constr:    0.0000
     atom:   68    charge:    0.4347    magn:    0.0020    constr:    0.0000

     total cpu time spent up to now is    11679.2 secs

     End of self-consistent calculation

 ------ SPIN UP ------------


          k = 0.0000 0.0000 0.0000 (128403 PWs)   bands (ev):

  -100.1552-100.0735-100.0682-100.0668-100.0649-100.0639-100.0624-100.0512
  -100.0506-100.0468-100.0467-100.0462-100.0413-100.0391-100.0352-100.0346
  -100.0325-100.0323-100.0307-100.0288-100.0286-100.0269-100.0248-100.0196
  -100.0193-100.0169-100.0167-100.0069-100.0064-100.0061 -99.9654 -99.9641
   -99.9403 -99.9299 -99.9244 -99.9135 -99.9092 -99.9076 -99.9075 -99.9020
   -99.8999 -99.8929 -99.8903 -99.8889 -99.8880 -99.8836 -99.8830 -99.8827
   -99.8812 -99.8785 -99.8778 -99.8772 -99.8743 -99.8738 -99.8676 -99.8671
   -99.8641 -99.8579 -99.8569 -99.8547 -99.8476 -99.8381 -99.8224 -99.8193
   -66.4409 -66.2763 -66.2611 -66.2558 -66.2545 -66.2498 -66.2487 -66.2456
   -66.2445 -66.2373 -66.2353 -66.2338 -66.2333 -66.2291 -66.2290 -66.2277
   -66.2250 -66.2222 -66.2207 -66.2203 -66.2180 -66.2158 -66.2134 -66.2113
   -66.2090 -66.2077 -66.2035 -66.2030 -66.2020 -66.2004 -66.1901 -66.1889
   -66.1868 -66.1784 -66.1778 -66.1760 -66.1673 -66.1657 -66.1534 -66.1523
   -66.1508 -66.1503 -66.1499 -66.1465 -66.1434 -66.1378 -66.1213 -66.1154
   -66.1052 -66.0892 -66.0856 -66.0826 -66.0816 -66.0813 -66.0811 -66.0796
   -66.0749 -66.0738 -66.0708 -66.0696 -66.0669 -66.0666 -66.0659 -66.0644
   -66.0640 -66.0602 -66.0568 -66.0519 -66.0510 -66.0497 -66.0484 -66.0468
   -66.0437 -66.0375 -66.0365 -66.0340 -66.0318 -66.0255 -66.0250 -66.0201
   -66.0187 -66.0181 -66.0179 -66.0170 -66.0139 -66.0099 -66.0096 -66.0093
   -66.0076 -66.0051 -66.0048 -66.0035 -66.0007 -65.9975 -65.9920 -65.9915
   -65.9893 -65.9881 -65.9790 -65.9788 -65.9777 -65.9751 -65.9728 -65.9670
   -65.9652 -65.9622 -65.9584 -65.9539 -65.9512 -65.9507 -65.9478 -65.9466
   -65.9460 -65.9456 -65.9439 -65.9418 -65.9404 -65.9382 -65.9370 -65.9360
   -65.9346 -65.9345 -65.9342 -65.9290 -65.9272 -65.9256 -65.9230 -65.9208
   -65.9208 -65.9169 -65.9160 -65.9132 -65.9117 -65.9116 -65.9084 -65.9032
   -65.9028 -65.8992 -65.8983 -65.8980 -65.8959 -65.8917 -65.8914 -65.8901
   -65.8850 -65.8819 -65.8803 -65.8784 -65.8765 -65.8738 -65.8693 -65.8690
   -65.8616 -65.8605 -65.8545 -65.8528 -65.8523 -65.8505 -65.8485 -65.8417
   -65.8408 -65.8365 -65.8364 -65.8341 -65.8286 -65.8273 -65.8273 -65.8259
   -65.8250 -65.8217 -65.8175 -65.8154 -65.8148 -65.8146 -65.8069 -65.8045
   -65.8006 -65.7949 -65.7892 -65.7883 -65.7867 -65.7859 -65.7848 -65.7822
   -65.7787 -65.7774 -65.7761 -65.7751 -65.7749 -65.7741 -65.7716 -65.7687
   -29.9278 -19.8485 -19.8438 -19.8276 -18.6173 -18.1546 -18.1514 -18.1466
   -18.1440 -17.6833 -17.6752 -17.3961 -17.2011 -17.1749 -17.1696 -17.1661
   -16.9347 -16.7427 -16.7351 -16.6679 -16.5233 -16.5197 -16.4996 -16.4993
   -16.4816 -16.4373 -16.4099 -16.3402 -16.3298 -16.1011 -16.0980 -16.0969
   -16.0686 -16.0491 -16.0081 -15.9594 -15.9588 -15.9512 -15.9500 -15.9476
   -15.9469 -15.9462 -15.9311 -15.9295 -15.9243 -15.9190 -15.9152 -15.9088
   -15.8938 -15.8877 -15.8744 -15.8684 -15.8500 -15.8439 -15.8425 -15.8387
   -15.8263 -15.8049 -15.7445 -15.7421 -15.7380 -15.7337 -15.6708 -15.6641
   -15.6537 -15.6343 -15.3867 -15.3789 -15.3625 -15.3517 -15.3516 -15.3397
   -15.2517 -15.2488 -15.2184 -15.1937 -15.1853 -15.1789 -15.1775 -15.1736
   -15.1727 -15.1667 -15.1581 -15.1548 -15.1379 -15.1360 -15.1348 -15.1236
   -15.1190 -15.1091 -15.1043 -15.1010 -15.0896 -15.0842 -15.0817 -15.0779
   -15.0759 -15.0680 -15.0627 -15.0427 -15.0378 -15.0347 -15.0318 -15.0261
   -15.0117 -15.0063 -15.0059 -14.9945 -14.9867 -14.9799 -14.9764 -14.9314
   -14.8969 -14.8641 -14.8306 -14.8076 -14.7971 -14.7916 -14.7756 -14.7733
   -14.7190 -14.6724 -14.6471 -14.6111 -14.6037 -14.5969 -14.5903 -14.5784
   -14.5722 -14.5716 -14.5688 -14.5590 -14.5382 -14.5324 -14.5079 -14.5064
   -14.5006 -14.4783 -14.4731 -14.4679 -14.4641 -14.4618 -14.4555 -14.4499
   -14.4472 -14.4286 -14.3909 -14.3849 -14.3607 -14.3606 -14.3246 -14.3094
   -14.3056 -14.2984 -14.2974 -14.2763 -14.2732 -14.2377 -14.2338 -14.2274
   -14.2071 -14.1925 -14.1787 -14.1710 -14.1581 -14.1556 -14.1461 -14.1398
   -14.1314 -14.1045 -14.0895 -14.0852 -14.0780 -14.0675 -14.0645 -14.0597
   -14.0537 -14.0378 -14.0305 -14.0268 -14.0227 -14.0145 -14.0125 -14.0067
   -13.9955 -13.9945 -13.9787 -13.9564 -13.9284 -13.8831 -13.8359 -13.7807
   -13.7685 -13.6969 -13.6162 -13.5739 -13.5324 -13.5137 -13.4862 -13.4851
   -13.4826 -13.4818 -13.4801 -13.4724 -13.4718 -13.4388 -13.4265 -13.4153
   -13.4080 -13.4013 -13.3694 -13.3563 -13.3533 -13.3352 -13.3234 -13.3179
   -13.3066 -13.3005 -13.2968 -13.2904 -13.2843 -13.2779 -13.2682 -13.2542
   -13.2289 -13.2203 -13.2152 -13.2022 -13.1949 -13.1903 -13.1886 -13.1783
   -13.1720 -13.1655 -13.1612 -13.1609 -13.1467 -13.1383 -13.1284 -13.1269
   -13.1152 -13.1130 -13.1049 -13.0975 -13.0919 -13.0874 -13.0830 -13.0736
   -13.0709 -13.0674 -13.0630 -13.0629 -13.0588 -13.0567 -13.0553 -13.0485
   -13.0428 -13.0360 -13.0297 -13.0274 -13.0176 -13.0173 -13.0148 -13.0096
   -13.0044 -13.0001 -12.9998 -12.9932 -12.9894 -12.9881 -12.9543 -12.9526
   -12.9509 -12.9491 -12.9489 -12.9461 -12.9364 -12.9353 -12.9342 -12.9290
   -12.9227 -12.9029 -12.9011 -12.8946 -12.8898 -12.8532 -12.8386 -12.8362
   -12.8332 -12.8277 -12.8135 -12.8069 -12.8056 -12.7958 -12.7941 -12.6931
   -12.6869 -12.6811 -12.6786 -12.6679 -12.6644 -12.6640 -12.6485 -12.6479
   -12.6476 -12.6464 -12.6437 -12.6296 -12.6203 -12.6146 -12.6124 -12.6061
   -12.5937 -12.5860 -12.5772 -12.5771 -12.4939 -12.4858 -12.3549 -12.2157
   -12.1762 -12.1536 -12.1486 -12.1434 -12.1326 -12.0773 -12.0743 -12.0642
   -12.0639 -12.0208 -11.9811 -11.9350 -11.9286 -11.9207 -11.9186 -11.8696
   -11.8522 -11.8493 -11.8362 -11.8341 -11.8062 -11.7293 -11.7050 -11.6331
   -11.6283 -11.5992 -11.5315 -11.5092 -11.2308 -11.1963 -10.9081 -10.8980
   -10.8763 -10.8691 -10.8584 -10.8149 -10.6899 -10.0739 -10.0397 -10.0340
    -9.9626  -9.9625  -9.9404

          k = 0.0000 0.2652 0.0000 (128375 PWs)   bands (ev):

  -100.1552-100.0729-100.0689-100.0656-100.0655-100.0635-100.0621-100.0559
  -100.0495-100.0463-100.0460-100.0428-100.0416-100.0410-100.0366-100.0351
  -100.0331-100.0330-100.0294-100.0282-100.0267-100.0250-100.0243-100.0230
  -100.0198-100.0185-100.0133-100.0070-100.0068-100.0065 -99.9654 -99.9640
   -99.9398 -99.9304 -99.9235 -99.9165 -99.9102 -99.9061 -99.9055 -99.9022
   -99.8968 -99.8957 -99.8914 -99.8896 -99.8860 -99.8841 -99.8836 -99.8828
   -99.8811 -99.8800 -99.8768 -99.8761 -99.8751 -99.8729 -99.8674 -99.8665
   -99.8644 -99.8609 -99.8561 -99.8537 -99.8470 -99.8385 -99.8223 -99.8195
   -66.4409 -66.2750 -66.2619 -66.2587 -66.2527 -66.2491 -66.2486 -66.2450
   -66.2432 -66.2393 -66.2380 -66.2364 -66.2332 -66.2283 -66.2269 -66.2262
   -66.2237 -66.2230 -66.2211 -66.2167 -66.2166 -66.2156 -66.2145 -66.2111
   -66.2079 -66.2055 -66.2047 -66.2043 -66.2016 -66.1969 -66.1899 -66.1868
   -66.1804 -66.1752 -66.1731 -66.1685 -66.1676 -66.1601 -66.1585 -66.1551
   -66.1514 -66.1471 -66.1428 -66.1413 -66.1381 -66.1371 -66.1309 -66.1110
   -66.1098 -66.1066 -66.0985 -66.0937 -66.0921 -66.0853 -66.0804 -66.0779
   -66.0768 -66.0744 -66.0725 -66.0701 -66.0686 -66.0676 -66.0668 -66.0654
   -66.0630 -66.0610 -66.0578 -66.0561 -66.0554 -66.0541 -66.0488 -66.0460
   -66.0439 -66.0429 -66.0412 -66.0397 -66.0362 -66.0357 -66.0285 -66.0257
   -66.0218 -66.0203 -66.0189 -66.0166 -66.0159 -66.0118 -66.0100 -66.0085
   -66.0031 -65.9996 -65.9980 -65.9935 -65.9901 -65.9898 -65.9874 -65.9858
   -65.9850 -65.9843 -65.9788 -65.9772 -65.9764 -65.9755 -65.9724 -65.9697
   -65.9662 -65.9615 -65.9594 -65.9567 -65.9537 -65.9527 -65.9517 -65.9507
   -65.9498 -65.9482 -65.9475 -65.9451 -65.9423 -65.9397 -65.9384 -65.9372
   -65.9354 -65.9330 -65.9287 -65.9273 -65.9231 -65.9214 -65.9197 -65.9176
   -65.9161 -65.9152 -65.9130 -65.9110 -65.9075 -65.9053 -65.9042 -65.9040
   -65.8996 -65.8989 -65.8973 -65.8951 -65.8916 -65.8895 -65.8869 -65.8855
   -65.8833 -65.8811 -65.8793 -65.8762 -65.8750 -65.8724 -65.8682 -65.8673
   -65.8649 -65.8598 -65.8566 -65.8514 -65.8512 -65.8474 -65.8465 -65.8442
   -65.8418 -65.8404 -65.8366 -65.8317 -65.8303 -65.8289 -65.8234 -65.8194
   -65.8183 -65.8174 -65.8154 -65.8147 -65.8138 -65.8113 -65.8069 -65.8052
   -65.8007 -65.7978 -65.7941 -65.7911 -65.7907 -65.7892 -65.7873 -65.7856
   -65.7841 -65.7825 -65.7793 -65.7780 -65.7767 -65.7755 -65.7739 -65.7706
   -29.9278 -19.8486 -19.8446 -19.7106 -18.8308 -18.5074 -18.2941 -18.0368
   -17.8262 -17.7245 -17.4386 -17.3505 -17.2278 -17.1765 -17.0632 -16.9687
   -16.8645 -16.8065 -16.7267 -16.6547 -16.5617 -16.5148 -16.4635 -16.4420
   -16.4355 -16.4255 -16.3879 -16.3833 -16.3650 -16.2309 -16.1588 -16.1335
   -16.0953 -16.0857 -16.0800 -16.0551 -16.0505 -16.0434 -16.0324 -16.0242
   -16.0129 -15.9967 -15.9862 -15.9747 -15.9567 -15.9494 -15.9326 -15.9143
   -15.8996 -15.8872 -15.8684 -15.8619 -15.8405 -15.8258 -15.8059 -15.7959
   -15.7719 -15.7704 -15.7557 -15.7474 -15.7308 -15.6450 -15.6114 -15.6012
   -15.5888 -15.5741 -15.5384 -15.4622 -15.4313 -15.4141 -15.3646 -15.3390
   -15.3003 -15.2927 -15.2557 -15.2077 -15.1967 -15.1900 -15.1821 -15.1760
   -15.1647 -15.1528 -15.1448 -15.1394 -15.1286 -15.1224 -15.1218 -15.1204
   -15.1092 -15.0941 -15.0900 -15.0844 -15.0773 -15.0654 -15.0577 -15.0517
   -15.0480 -15.0404 -15.0322 -15.0280 -15.0259 -15.0209 -15.0143 -14.9949
   -14.9851 -14.9599 -14.9486 -14.9378 -14.9266 -14.9243 -14.9060 -14.8858
   -14.8850 -14.8739 -14.8677 -14.8558 -14.7882 -14.7844 -14.7693 -14.7484
   -14.7080 -14.6983 -14.6950 -14.6748 -14.6492 -14.6208 -14.5992 -14.5937
   -14.5812 -14.5768 -14.5683 -14.5558 -14.5550 -14.5480 -14.5415 -14.5224
   -14.5184 -14.5094 -14.4899 -14.4853 -14.4776 -14.4657 -14.4468 -14.4366
   -14.4222 -14.3975 -14.3868 -14.3754 -14.3566 -14.3489 -14.3300 -14.3242
   -14.3102 -14.3034 -14.2900 -14.2852 -14.2749 -14.2723 -14.2649 -14.2587
   -14.2465 -14.2418 -14.2379 -14.2188 -14.2124 -14.1852 -14.1683 -14.1663
   -14.1329 -14.1258 -14.1163 -14.1020 -14.0923 -14.0722 -14.0577 -14.0470
   -14.0406 -14.0228 -14.0156 -14.0023 -13.9886 -13.9677 -13.9398 -13.9329
   -13.9029 -13.8888 -13.8706 -13.8432 -13.8242 -13.8164 -13.7723 -13.7348
   -13.6869 -13.6200 -13.6112 -13.6005 -13.5843 -13.5634 -13.5480 -13.5149
   -13.5037 -13.4879 -13.4860 -13.4650 -13.4578 -13.4522 -13.4441 -13.4292
   -13.4264 -13.4137 -13.4077 -13.3965 -13.3809 -13.3659 -13.3406 -13.3219
   -13.3087 -13.3037 -13.2873 -13.2798 -13.2765 -13.2625 -13.2593 -13.2531
   -13.2485 -13.2457 -13.2335 -13.2266 -13.2238 -13.2167 -13.2011 -13.1908
   -13.1740 -13.1635 -13.1572 -13.1466 -13.1394 -13.1325 -13.1234 -13.1222
   -13.1143 -13.1099 -13.1069 -13.1021 -13.0921 -13.0850 -13.0824 -13.0742
   -13.0689 -13.0659 -13.0586 -13.0483 -13.0469 -13.0318 -13.0267 -13.0244
   -13.0173 -13.0109 -13.0092 -13.0057 -13.0020 -12.9975 -12.9958 -12.9907
   -12.9829 -12.9757 -12.9682 -12.9622 -12.9572 -12.9524 -12.9513 -12.9434
   -12.9401 -12.9357 -12.9294 -12.9275 -12.9157 -12.9092 -12.8945 -12.8864
   -12.8821 -12.8799 -12.8605 -12.8457 -12.8273 -12.8086 -12.7984 -12.7901
   -12.7872 -12.7836 -12.7724 -12.7672 -12.7551 -12.7520 -12.7497 -12.7417
   -12.7353 -12.7337 -12.7064 -12.6840 -12.6736 -12.6697 -12.6613 -12.6576
   -12.6534 -12.6426 -12.6353 -12.6179 -12.6160 -12.6117 -12.5933 -12.5809
   -12.5540 -12.4902 -12.4832 -12.4703 -12.4665 -12.2704 -12.2482 -12.2452
   -12.2252 -12.2036 -12.1893 -12.1775 -12.1702 -12.1547 -12.1385 -12.1028
   -12.0853 -12.0807 -12.0636 -12.0438 -12.0385 -12.0332 -12.0103 -11.9973
   -11.9885 -11.9523 -11.9486 -11.9301 -11.8662 -11.8630 -11.8345 -11.7547
   -11.7282 -11.6595 -11.4715 -11.3709 -11.2142 -11.0899 -11.0511 -11.0384
   -10.8771 -10.7778 -10.6976 -10.6232 -10.6114 -10.5121 -10.4689 -10.4228
   -10.2521 -10.2316 -10.2143

          k = 0.0000-0.5303 0.0000 (128388 PWs)   bands (ev):

  -100.1552-100.0718-100.0700-100.0663-100.0630-100.0626-100.0620-100.0606
  -100.0482-100.0458-100.0457-100.0426-100.0420-100.0413-100.0366-100.0352
  -100.0350-100.0334-100.0276-100.0265-100.0264-100.0240-100.0239-100.0237
  -100.0211-100.0199-100.0100-100.0091-100.0069-100.0066 -99.9654 -99.9640
   -99.9394 -99.9309 -99.9221 -99.9193 -99.9099 -99.9076 -99.9030 -99.9006
   -99.8978 -99.8948 -99.8926 -99.8901 -99.8853 -99.8849 -99.8831 -99.8829
   -99.8812 -99.8810 -99.8771 -99.8750 -99.8747 -99.8725 -99.8662 -99.8658
   -99.8652 -99.8635 -99.8556 -99.8533 -99.8462 -99.8389 -99.8222 -99.8197
   -66.4409 -66.2732 -66.2633 -66.2605 -66.2507 -66.2499 -66.2460 -66.2445
   -66.2439 -66.2422 -66.2391 -66.2372 -66.2324 -66.2302 -66.2252 -66.2250
   -66.2228 -66.2216 -66.2200 -66.2191 -66.2149 -66.2133 -66.2128 -66.2122
   -66.2083 -66.2081 -66.2033 -66.2023 -66.1994 -66.1930 -66.1925 -66.1787
   -66.1754 -66.1699 -66.1686 -66.1650 -66.1645 -66.1644 -66.1568 -66.1539
   -66.1446 -66.1433 -66.1418 -66.1386 -66.1329 -66.1324 -66.1263 -66.1246
   -66.1234 -66.1089 -66.1077 -66.1065 -66.1015 -66.1014 -66.0968 -66.0860
   -66.0813 -66.0771 -66.0737 -66.0680 -66.0669 -66.0660 -66.0645 -66.0619
   -66.0602 -66.0600 -66.0581 -66.0532 -66.0502 -66.0480 -66.0458 -66.0457
   -66.0436 -66.0419 -66.0405 -66.0400 -66.0360 -66.0345 -66.0341 -66.0282
   -66.0276 -66.0254 -66.0242 -66.0241 -66.0201 -66.0185 -66.0145 -66.0123
   -66.0120 -66.0077 -66.0027 -65.9995 -65.9936 -65.9920 -65.9862 -65.9842
   -65.9818 -65.9785 -65.9753 -65.9733 -65.9698 -65.9658 -65.9610 -65.9603
   -65.9598 -65.9574 -65.9553 -65.9540 -65.9507 -65.9501 -65.9496 -65.9496
   -65.9474 -65.9455 -65.9444 -65.9438 -65.9417 -65.9415 -65.9379 -65.9355
   -65.9348 -65.9329 -65.9326 -65.9325 -65.9270 -65.9257 -65.9213 -65.9181
   -65.9178 -65.9158 -65.9131 -65.9107 -65.9101 -65.9091 -65.9026 -65.8996
   -65.8974 -65.8956 -65.8945 -65.8885 -65.8881 -65.8853 -65.8839 -65.8808
   -65.8802 -65.8782 -65.8779 -65.8740 -65.8719 -65.8702 -65.8701 -65.8683
   -65.8673 -65.8647 -65.8587 -65.8533 -65.8481 -65.8471 -65.8450 -65.8426
   -65.8423 -65.8376 -65.8370 -65.8302 -65.8209 -65.8182 -65.8181 -65.8150
   -65.8145 -65.8131 -65.8122 -65.8105 -65.8090 -65.8067 -65.8058 -65.8050
   -65.8032 -65.8030 -65.8019 -65.8003 -65.7994 -65.7963 -65.7934 -65.7925
   -65.7904 -65.7869 -65.7837 -65.7836 -65.7775 -65.7759 -65.7726 -65.7724
   -29.9278 -19.8486 -19.8448 -19.3719 -19.3675 -18.2550 -18.2524 -18.2032
   -18.1773 -17.4046 -17.3503 -17.3041 -17.2092 -17.0655 -16.8444 -16.8369
   -16.8219 -16.7627 -16.7078 -16.6875 -16.5765 -16.5692 -16.5532 -16.4877
   -16.4260 -16.4150 -16.3056 -16.3031 -16.2890 -16.2881 -16.2748 -16.2659
   -16.2454 -16.2419 -16.2338 -16.2226 -16.1471 -16.1451 -16.0966 -16.0801
   -16.0702 -16.0389 -15.9284 -15.9204 -15.9179 -15.9129 -15.8565 -15.8497
   -15.8364 -15.8361 -15.8259 -15.8232 -15.8177 -15.8030 -15.7947 -15.7903
   -15.7863 -15.7613 -15.6915 -15.6782 -15.6768 -15.6645 -15.6592 -15.6561
   -15.6310 -15.6209 -15.5507 -15.5371 -15.4921 -15.4730 -15.4379 -15.4377
   -15.3732 -15.3549 -15.2441 -15.2187 -15.1848 -15.1837 -15.1712 -15.1608
   -15.1579 -15.1471 -15.1438 -15.1358 -15.1311 -15.1230 -15.1162 -15.1050
   -15.0909 -15.0845 -15.0831 -15.0762 -15.0734 -15.0684 -15.0561 -15.0533
   -15.0294 -15.0122 -14.9902 -14.9765 -14.9507 -14.9439 -14.9410 -14.9292
   -14.9129 -14.9057 -14.8906 -14.8892 -14.8853 -14.8822 -14.8804 -14.8771
   -14.8709 -14.8563 -14.8541 -14.8347 -14.8265 -14.8191 -14.8096 -14.8081
   -14.7995 -14.7864 -14.6923 -14.6588 -14.6361 -14.6044 -14.5785 -14.5646
   -14.5612 -14.5586 -14.5519 -14.5491 -14.5395 -14.5317 -14.5297 -14.5253
   -14.5228 -14.5139 -14.5066 -14.5042 -14.4991 -14.4925 -14.4698 -14.4693
   -14.4637 -14.4596 -14.4564 -14.4115 -14.4098 -14.3963 -14.3955 -14.3923
   -14.3738 -14.3560 -14.3436 -14.3338 -14.3273 -14.3262 -14.2953 -14.2918
   -14.2739 -14.2662 -14.2461 -14.2251 -14.2109 -14.2083 -14.1881 -14.1697
   -14.0999 -14.0903 -14.0745 -14.0577 -14.0508 -14.0470 -14.0374 -14.0319
   -14.0303 -14.0030 -14.0015 -13.9733 -13.8920 -13.8839 -13.7977 -13.7772
   -13.7653 -13.7522 -13.7419 -13.7371 -13.7166 -13.7038 -13.6750 -13.6486
   -13.6340 -13.6015 -13.6007 -13.5881 -13.5811 -13.5769 -13.5636 -13.5607
   -13.5567 -13.5550 -13.5409 -13.5332 -13.5246 -13.5230 -13.5051 -13.4826
   -13.4280 -13.4212 -13.4143 -13.4070 -13.3975 -13.3840 -13.3768 -13.3506
   -13.3480 -13.3285 -13.3017 -13.2950 -13.2915 -13.2603 -13.2559 -13.2480
   -13.2448 -13.2425 -13.2405 -13.2371 -13.2291 -13.2226 -13.2212 -13.2186
   -13.2133 -13.2079 -13.2008 -13.1976 -13.1962 -13.1897 -13.1819 -13.1439
   -13.1270 -13.1070 -13.0978 -13.0810 -13.0783 -13.0750 -13.0712 -13.0608
   -13.0588 -13.0518 -13.0460 -13.0373 -13.0293 -13.0265 -13.0261 -13.0250
   -13.0196 -13.0174 -13.0145 -13.0035 -12.9993 -12.9864 -12.9817 -12.9644
   -12.9536 -12.9463 -12.9442 -12.9413 -12.9359 -12.8979 -12.8938 -12.8815
   -12.8813 -12.8777 -12.8748 -12.8632 -12.8476 -12.8434 -12.8288 -12.8204
   -12.8036 -12.8017 -12.7980 -12.7936 -12.7935 -12.7890 -12.7858 -12.7784
   -12.7766 -12.7716 -12.7705 -12.7688 -12.7681 -12.7615 -12.7606 -12.7560
   -12.7515 -12.7455 -12.7361 -12.7037 -12.6954 -12.6724 -12.6540 -12.6154
   -12.5936 -12.5832 -12.5443 -12.5355 -12.5057 -12.5000 -12.4857 -12.4814
   -12.3934 -12.3784 -12.3723 -12.3658 -12.3466 -12.3441 -12.3028 -12.2965
   -12.2759 -12.2716 -12.2696 -12.2571 -12.2346 -12.2142 -12.2130 -12.2128
   -12.1988 -12.1509 -12.1274 -12.1028 -12.0857 -12.0835 -12.0484 -12.0403
   -12.0113 -12.0044 -11.9997 -11.9993 -11.9721 -11.9716 -11.9624 -11.9538
   -11.9430 -11.8272 -11.6161 -11.6124 -11.4643 -11.3097 -10.9699 -10.9539
   -10.9424 -10.8306 -10.7688 -10.7670 -10.3465 -10.3041 -10.2772 -10.1915
   -10.1668 -10.1540 -10.1115

          k = 0.2500-0.0884 0.0000 (128371 PWs)   bands (ev):

  -100.1552-100.0729-100.0689-100.0657-100.0655-100.0636-100.0620-100.0559
  -100.0495-100.0463-100.0460-100.0428-100.0416-100.0410-100.0366-100.0351
  -100.0331-100.0330-100.0294-100.0282-100.0267-100.0250-100.0243-100.0230
  -100.0198-100.0185-100.0133-100.0070-100.0068-100.0065 -99.9654 -99.9640
   -99.9398 -99.9304 -99.9235 -99.9165 -99.9102 -99.9061 -99.9055 -99.9022
   -99.8968 -99.8957 -99.8914 -99.8896 -99.8860 -99.8842 -99.8836 -99.8828
   -99.8811 -99.8800 -99.8768 -99.8761 -99.8751 -99.8729 -99.8674 -99.8665
   -99.8644 -99.8609 -99.8561 -99.8537 -99.8470 -99.8385 -99.8223 -99.8195
   -66.4409 -66.2750 -66.2618 -66.2587 -66.2526 -66.2492 -66.2484 -66.2451
   -66.2432 -66.2393 -66.2380 -66.2364 -66.2332 -66.2283 -66.2269 -66.2262
   -66.2237 -66.2230 -66.2211 -66.2167 -66.2166 -66.2156 -66.2145 -66.2111
   -66.2079 -66.2055 -66.2047 -66.2043 -66.2016 -66.1969 -66.1899 -66.1868
   -66.1804 -66.1752 -66.1731 -66.1685 -66.1676 -66.1601 -66.1585 -66.1550
   -66.1514 -66.1471 -66.1427 -66.1414 -66.1381 -66.1371 -66.1309 -66.1110
   -66.1098 -66.1066 -66.0985 -66.0937 -66.0921 -66.0853 -66.0804 -66.0779
   -66.0768 -66.0744 -66.0725 -66.0701 -66.0686 -66.0676 -66.0668 -66.0654
   -66.0630 -66.0610 -66.0578 -66.0561 -66.0554 -66.0541 -66.0488 -66.0460
   -66.0439 -66.0429 -66.0412 -66.0397 -66.0362 -66.0357 -66.0285 -66.0256
   -66.0218 -66.0203 -66.0189 -66.0166 -66.0159 -66.0118 -66.0101 -66.0085
   -66.0031 -65.9996 -65.9980 -65.9935 -65.9901 -65.9898 -65.9873 -65.9858
   -65.9850 -65.9842 -65.9788 -65.9772 -65.9764 -65.9755 -65.9724 -65.9697
   -65.9662 -65.9615 -65.9594 -65.9567 -65.9537 -65.9527 -65.9517 -65.9507
   -65.9498 -65.9482 -65.9475 -65.9451 -65.9423 -65.9397 -65.9384 -65.9372
   -65.9354 -65.9330 -65.9287 -65.9273 -65.9231 -65.9214 -65.9197 -65.9176
   -65.9161 -65.9152 -65.9130 -65.9110 -65.9075 -65.9053 -65.9042 -65.9040
   -65.8996 -65.8989 -65.8973 -65.8951 -65.8916 -65.8895 -65.8869 -65.8855
   -65.8833 -65.8811 -65.8793 -65.8762 -65.8750 -65.8724 -65.8682 -65.8673
   -65.8649 -65.8598 -65.8566 -65.8514 -65.8512 -65.8474 -65.8465 -65.8442
   -65.8418 -65.8404 -65.8366 -65.8317 -65.8303 -65.8289 -65.8234 -65.8194
   -65.8183 -65.8174 -65.8154 -65.8147 -65.8138 -65.8113 -65.8069 -65.8052
   -65.8007 -65.7978 -65.7941 -65.7911 -65.7907 -65.7892 -65.7873 -65.7856
   -65.7841 -65.7825 -65.7793 -65.7780 -65.7767 -65.7755 -65.7739 -65.7706
   -29.9278 -19.8493 -19.8439 -19.7106 -18.8308 -18.5074 -18.2941 -18.0368
   -17.8262 -17.7245 -17.4386 -17.3505 -17.2278 -17.1765 -17.0632 -16.9687
   -16.8645 -16.8065 -16.7267 -16.6547 -16.5617 -16.5148 -16.4635 -16.4420
   -16.4355 -16.4255 -16.3879 -16.3833 -16.3650 -16.2309 -16.1588 -16.1335
   -16.0953 -16.0857 -16.0800 -16.0551 -16.0505 -16.0434 -16.0324 -16.0242
   -16.0129 -15.9967 -15.9862 -15.9747 -15.9567 -15.9494 -15.9325 -15.9143
   -15.8996 -15.8872 -15.8684 -15.8619 -15.8405 -15.8258 -15.8059 -15.7959
   -15.7719 -15.7704 -15.7557 -15.7474 -15.7308 -15.6450 -15.6114 -15.6012
   -15.5888 -15.5741 -15.5384 -15.4622 -15.4313 -15.4141 -15.3646 -15.3390
   -15.3003 -15.2927 -15.2557 -15.2077 -15.1967 -15.1900 -15.1821 -15.1760
   -15.1647 -15.1528 -15.1448 -15.1394 -15.1286 -15.1224 -15.1217 -15.1204
   -15.1092 -15.0941 -15.0900 -15.0844 -15.0773 -15.0654 -15.0577 -15.0517
   -15.0480 -15.0404 -15.0322 -15.0280 -15.0259 -15.0209 -15.0143 -14.9949
   -14.9851 -14.9599 -14.9485 -14.9379 -14.9266 -14.9243 -14.9060 -14.8858
   -14.8850 -14.8739 -14.8677 -14.8558 -14.7882 -14.7844 -14.7693 -14.7484
   -14.7080 -14.6983 -14.6950 -14.6748 -14.6492 -14.6208 -14.5992 -14.5937
   -14.5812 -14.5768 -14.5683 -14.5559 -14.5550 -14.5479 -14.5415 -14.5224
   -14.5184 -14.5094 -14.4899 -14.4853 -14.4776 -14.4657 -14.4468 -14.4366
   -14.4222 -14.3974 -14.3868 -14.3754 -14.3566 -14.3489 -14.3300 -14.3242
   -14.3102 -14.3034 -14.2900 -14.2851 -14.2749 -14.2723 -14.2649 -14.2587
   -14.2465 -14.2418 -14.2379 -14.2188 -14.2124 -14.1852 -14.1683 -14.1664
   -14.1329 -14.1259 -14.1163 -14.1020 -14.0923 -14.0722 -14.0577 -14.0471
   -14.0406 -14.0228 -14.0156 -14.0023 -13.9886 -13.9677 -13.9398 -13.9329
   -13.9029 -13.8888 -13.8706 -13.8432 -13.8242 -13.8164 -13.7723 -13.7348
   -13.6869 -13.6200 -13.6112 -13.6005 -13.5843 -13.5634 -13.5480 -13.5149
   -13.5037 -13.4879 -13.4860 -13.4650 -13.4578 -13.4523 -13.4441 -13.4292
   -13.4264 -13.4138 -13.4077 -13.3965 -13.3809 -13.3659 -13.3406 -13.3219
   -13.3087 -13.3037 -13.2873 -13.2798 -13.2765 -13.2625 -13.2593 -13.2531
   -13.2485 -13.2457 -13.2335 -13.2266 -13.2238 -13.2167 -13.2011 -13.1908
   -13.1740 -13.1635 -13.1572 -13.1466 -13.1394 -13.1325 -13.1234 -13.1222
   -13.1143 -13.1099 -13.1069 -13.1021 -13.0921 -13.0850 -13.0824 -13.0742
   -13.0689 -13.0659 -13.0586 -13.0483 -13.0469 -13.0318 -13.0267 -13.0244
   -13.0173 -13.0109 -13.0092 -13.0057 -13.0020 -12.9975 -12.9958 -12.9907
   -12.9829 -12.9757 -12.9682 -12.9622 -12.9572 -12.9524 -12.9513 -12.9434
   -12.9401 -12.9357 -12.9294 -12.9275 -12.9157 -12.9092 -12.8945 -12.8864
   -12.8821 -12.8799 -12.8605 -12.8457 -12.8273 -12.8086 -12.7984 -12.7901
   -12.7872 -12.7836 -12.7724 -12.7672 -12.7551 -12.7520 -12.7497 -12.7417
   -12.7353 -12.7337 -12.7064 -12.6840 -12.6735 -12.6697 -12.6613 -12.6577
   -12.6534 -12.6426 -12.6353 -12.6180 -12.6160 -12.6116 -12.5933 -12.5809
   -12.5540 -12.4902 -12.4832 -12.4703 -12.4665 -12.2704 -12.2482 -12.2452
   -12.2252 -12.2036 -12.1893 -12.1775 -12.1702 -12.1547 -12.1385 -12.1028
   -12.0853 -12.0807 -12.0636 -12.0438 -12.0385 -12.0332 -12.0103 -11.9973
   -11.9885 -11.9522 -11.9486 -11.9301 -11.8662 -11.8630 -11.8345 -11.7547
   -11.7282 -11.6595 -11.4715 -11.3709 -11.2142 -11.0899 -11.0511 -11.0384
   -10.8771 -10.7778 -10.6976 -10.6232 -10.6114 -10.5121 -10.4688 -10.4228
   -10.2521 -10.2316 -10.2143

          k = 0.2500 0.1768 0.0000 (128340 PWs)   bands (ev):

  -100.1552-100.0729-100.0679-100.0660-100.0648-100.0646-100.0616-100.0553
  -100.0514-100.0486-100.0458-100.0438-100.0419-100.0398-100.0356-100.0324
  -100.0323-100.0317-100.0288-100.0286-100.0282-100.0259-100.0241-100.0236
  -100.0231-100.0150-100.0122-100.0084-100.0068-100.0067 -99.9655 -99.9640
   -99.9396 -99.9302 -99.9238 -99.9147 -99.9127 -99.9098 -99.9039 -99.9022
   -99.8936 -99.8930 -99.8922 -99.8887 -99.8871 -99.8850 -99.8839 -99.8827
   -99.8813 -99.8805 -99.8774 -99.8768 -99.8745 -99.8725 -99.8687 -99.8656
   -99.8648 -99.8601 -99.8573 -99.8525 -99.8463 -99.8390 -99.8222 -99.8196
   -66.4409 -66.2747 -66.2638 -66.2557 -66.2545 -66.2482 -66.2481 -66.2444
   -66.2429 -66.2382 -66.2373 -66.2363 -66.2332 -66.2330 -66.2274 -66.2270
   -66.2231 -66.2220 -66.2210 -66.2161 -66.2156 -66.2146 -66.2132 -66.2098
   -66.2090 -66.2083 -66.2076 -66.2003 -66.1974 -66.1949 -66.1915 -66.1828
   -66.1742 -66.1688 -66.1686 -66.1674 -66.1604 -66.1600 -66.1493 -66.1469
   -66.1446 -66.1439 -66.1436 -66.1433 -66.1428 -66.1367 -66.1355 -66.1220
   -66.1072 -66.1046 -66.1035 -66.1020 -66.0993 -66.0958 -66.0903 -66.0885
   -66.0884 -66.0862 -66.0829 -66.0723 -66.0691 -66.0675 -66.0663 -66.0643
   -66.0621 -66.0620 -66.0596 -66.0567 -66.0558 -66.0529 -66.0528 -66.0487
   -66.0476 -66.0449 -66.0410 -66.0385 -66.0361 -66.0307 -66.0298 -66.0291
   -66.0225 -66.0222 -66.0168 -66.0145 -66.0138 -66.0104 -66.0078 -66.0057
   -66.0046 -65.9990 -65.9969 -65.9964 -65.9947 -65.9896 -65.9882 -65.9829
   -65.9804 -65.9778 -65.9777 -65.9726 -65.9703 -65.9692 -65.9691 -65.9676
   -65.9661 -65.9641 -65.9629 -65.9620 -65.9595 -65.9588 -65.9573 -65.9518
   -65.9500 -65.9498 -65.9485 -65.9449 -65.9400 -65.9397 -65.9342 -65.9337
   -65.9319 -65.9302 -65.9284 -65.9256 -65.9253 -65.9212 -65.9189 -65.9160
   -65.9142 -65.9130 -65.9113 -65.9088 -65.9052 -65.9047 -65.9001 -65.8993
   -65.8984 -65.8970 -65.8952 -65.8881 -65.8875 -65.8845 -65.8840 -65.8836
   -65.8827 -65.8813 -65.8793 -65.8779 -65.8759 -65.8738 -65.8674 -65.8654
   -65.8637 -65.8600 -65.8584 -65.8521 -65.8504 -65.8454 -65.8423 -65.8414
   -65.8376 -65.8350 -65.8322 -65.8291 -65.8259 -65.8258 -65.8233 -65.8220
   -65.8209 -65.8178 -65.8145 -65.8142 -65.8132 -65.8091 -65.8075 -65.8064
   -65.8016 -65.7991 -65.7956 -65.7935 -65.7932 -65.7904 -65.7902 -65.7896
   -65.7861 -65.7851 -65.7835 -65.7832 -65.7813 -65.7792 -65.7781 -65.7729
   -29.9278 -19.8492 -19.8441 -19.6713 -18.5238 -18.5235 -18.5146 -18.4697
   -17.5929 -17.5701 -17.5116 -17.4235 -17.4108 -17.1706 -17.0005 -16.9181
   -16.8106 -16.7429 -16.6371 -16.4903 -16.4810 -16.4775 -16.4446 -16.4420
   -16.3757 -16.3555 -16.3536 -16.3438 -16.2660 -16.2544 -16.2449 -16.2339
   -16.1675 -16.1441 -16.1240 -16.1115 -16.0463 -16.0351 -16.0283 -16.0131
   -15.9957 -15.9825 -15.9824 -15.9729 -15.9716 -15.9668 -15.9622 -15.9542
   -15.9444 -15.9420 -15.9254 -15.8929 -15.8756 -15.8643 -15.8564 -15.8026
   -15.7974 -15.7851 -15.7725 -15.7376 -15.6215 -15.6120 -15.5898 -15.5837
   -15.5305 -15.5059 -15.4969 -15.4911 -15.4671 -15.4616 -15.4535 -15.3329
   -15.3191 -15.2872 -15.2851 -15.2298 -15.2200 -15.2125 -15.2011 -15.1924
   -15.1919 -15.1897 -15.1775 -15.1772 -15.1726 -15.1657 -15.1565 -15.1547
   -15.1448 -15.1311 -15.1105 -15.1056 -15.0616 -15.0482 -15.0420 -15.0357
   -15.0307 -14.9993 -14.9932 -14.9868 -14.9779 -14.9723 -14.9717 -14.9582
   -14.9419 -14.9378 -14.9345 -14.9098 -14.8903 -14.8808 -14.8450 -14.8342
   -14.8271 -14.8131 -14.8117 -14.7949 -14.7854 -14.7786 -14.7737 -14.7642
   -14.7591 -14.7551 -14.7508 -14.7297 -14.7287 -14.6755 -14.6692 -14.6592
   -14.6523 -14.6002 -14.5877 -14.5680 -14.5678 -14.5622 -14.5576 -14.5529
   -14.5331 -14.5114 -14.5088 -14.4808 -14.4791 -14.4772 -14.4696 -14.4558
   -14.4490 -14.4335 -14.4286 -14.4138 -14.4007 -14.3890 -14.3720 -14.3375
   -14.3206 -14.3162 -14.3058 -14.2999 -14.2772 -14.2715 -14.2670 -14.2540
   -14.2114 -14.1977 -14.1974 -14.1875 -14.1773 -14.1741 -14.1620 -14.1546
   -14.1487 -14.1422 -14.1403 -14.1376 -14.1281 -14.1200 -14.1189 -14.1090
   -14.0763 -14.0699 -14.0521 -14.0397 -13.9977 -13.9965 -13.8736 -13.8685
   -13.8405 -13.8136 -13.8113 -13.8028 -13.7760 -13.7359 -13.7148 -13.6616
   -13.6596 -13.6178 -13.6007 -13.5938 -13.5775 -13.5592 -13.5501 -13.5461
   -13.5169 -13.5148 -13.4886 -13.4834 -13.4694 -13.4576 -13.4466 -13.4275
   -13.4148 -13.3989 -13.3882 -13.3736 -13.3677 -13.3541 -13.3486 -13.3415
   -13.3397 -13.3282 -13.3259 -13.3164 -13.3032 -13.2896 -13.2737 -13.2463
   -13.2387 -13.2179 -13.2141 -13.2139 -13.2106 -13.2069 -13.1994 -13.1985
   -13.1892 -13.1828 -13.1728 -13.1442 -13.1327 -13.1323 -13.1152 -13.1143
   -13.1094 -13.1052 -13.0984 -13.0975 -13.0894 -13.0754 -13.0680 -13.0530
   -13.0472 -13.0439 -13.0381 -13.0315 -13.0253 -13.0230 -13.0169 -12.9983
   -12.9868 -12.9865 -12.9806 -12.9719 -12.9653 -12.9577 -12.9518 -12.9425
   -12.9406 -12.9328 -12.9225 -12.9095 -12.9022 -12.9009 -12.8976 -12.8933
   -12.8914 -12.8879 -12.8852 -12.8822 -12.8736 -12.8662 -12.8539 -12.8510
   -12.8462 -12.8376 -12.8286 -12.8247 -12.8144 -12.8089 -12.8029 -12.7962
   -12.7927 -12.7871 -12.7847 -12.7798 -12.7661 -12.7582 -12.7533 -12.7529
   -12.7327 -12.7301 -12.7178 -12.6971 -12.6968 -12.6637 -12.6530 -12.6457
   -12.6322 -12.6232 -12.6025 -12.5943 -12.5776 -12.5713 -12.5664 -12.5410
   -12.5106 -12.4760 -12.4728 -12.4534 -12.4391 -12.3076 -12.3076 -12.2816
   -12.2266 -12.2137 -12.1994 -12.1371 -12.1313 -12.1189 -12.0756 -12.0749
   -12.0591 -12.0306 -12.0302 -12.0273 -12.0206 -12.0165 -12.0155 -11.9920
   -11.9364 -11.9343 -11.9263 -11.8484 -11.8337 -11.7930 -11.7201 -11.6167
   -11.6140 -11.6139 -11.5058 -11.3511 -11.1933 -11.1770 -11.0542 -11.0507
   -11.0434 -10.9603 -10.9447 -10.9336 -10.9215 -10.8792 -10.8633 -10.8428
   -10.6008 -10.5029 -10.3604

          k = 0.2500-0.6187 0.0000 (128424 PWs)   bands (ev):

  -100.1552-100.0719-100.0692-100.0667-100.0640-100.0616-100.0614-100.0592
  -100.0530-100.0485-100.0455-100.0423-100.0415-100.0359-100.0356-100.0353
  -100.0339-100.0323-100.0297-100.0277-100.0277-100.0269-100.0254-100.0227
  -100.0194-100.0160-100.0114-100.0095-100.0070-100.0067 -99.9655 -99.9640
   -99.9391 -99.9307 -99.9222 -99.9185 -99.9133 -99.9088 -99.9022 -99.8976
   -99.8960 -99.8954 -99.8929 -99.8891 -99.8865 -99.8852 -99.8833 -99.8826
   -99.8818 -99.8811 -99.8772 -99.8761 -99.8734 -99.8726 -99.8685 -99.8659
   -99.8641 -99.8619 -99.8582 -99.8508 -99.8459 -99.8395 -99.8221 -99.8198
   -66.4409 -66.2727 -66.2656 -66.2585 -66.2519 -66.2485 -66.2454 -66.2444
   -66.2424 -66.2414 -66.2390 -66.2378 -66.2363 -66.2288 -66.2264 -66.2258
   -66.2231 -66.2197 -66.2189 -66.2173 -66.2149 -66.2137 -66.2133 -66.2128
   -66.2113 -66.2086 -66.2033 -66.1976 -66.1950 -66.1930 -66.1919 -66.1730
   -66.1714 -66.1638 -66.1604 -66.1579 -66.1573 -66.1549 -66.1532 -66.1501
   -66.1472 -66.1428 -66.1407 -66.1391 -66.1364 -66.1339 -66.1327 -66.1280
   -66.1208 -66.1175 -66.1146 -66.1140 -66.1098 -66.1065 -66.0972 -66.0945
   -66.0890 -66.0859 -66.0806 -66.0769 -66.0744 -66.0687 -66.0665 -66.0646
   -66.0615 -66.0598 -66.0572 -66.0555 -66.0539 -66.0500 -66.0470 -66.0457
   -66.0428 -66.0406 -66.0401 -66.0388 -66.0372 -66.0356 -66.0343 -66.0322
   -66.0282 -66.0267 -66.0241 -66.0206 -66.0190 -66.0143 -66.0093 -66.0086
   -66.0067 -66.0056 -66.0038 -66.0007 -65.9993 -65.9976 -65.9877 -65.9860
   -65.9784 -65.9767 -65.9761 -65.9723 -65.9671 -65.9657 -65.9610 -65.9598
   -65.9592 -65.9585 -65.9560 -65.9542 -65.9527 -65.9512 -65.9491 -65.9485
   -65.9470 -65.9458 -65.9443 -65.9431 -65.9393 -65.9383 -65.9352 -65.9341
   -65.9325 -65.9317 -65.9300 -65.9264 -65.9253 -65.9243 -65.9223 -65.9194
   -65.9182 -65.9168 -65.9134 -65.9111 -65.9068 -65.9016 -65.8997 -65.8955
   -65.8942 -65.8925 -65.8906 -65.8894 -65.8883 -65.8867 -65.8854 -65.8825
   -65.8816 -65.8797 -65.8773 -65.8757 -65.8735 -65.8684 -65.8656 -65.8630
   -65.8607 -65.8583 -65.8542 -65.8523 -65.8483 -65.8476 -65.8472 -65.8382
   -65.8369 -65.8335 -65.8276 -65.8250 -65.8194 -65.8185 -65.8182 -65.8172
   -65.8149 -65.8133 -65.8126 -65.8102 -65.8096 -65.8084 -65.8065 -65.8061
   -65.8048 -65.8040 -65.8022 -65.8007 -65.7999 -65.7986 -65.7954 -65.7949
   -65.7929 -65.7907 -65.7868 -65.7852 -65.7851 -65.7822 -65.7799 -65.7755
   -29.9278 -19.8490 -19.8445 -19.4052 -19.1121 -18.8225 -18.2259 -18.0367
   -17.9531 -17.7039 -17.5695 -17.2162 -16.9620 -16.9050 -16.8380 -16.7842
   -16.7541 -16.7131 -16.6555 -16.6360 -16.5719 -16.5367 -16.4723 -16.4673
   -16.4523 -16.4146 -16.3994 -16.3261 -16.3114 -16.3036 -16.2730 -16.2670
   -16.2595 -16.2431 -16.2293 -16.1575 -16.1457 -16.1357 -16.1257 -16.1022
   -16.0727 -16.0556 -16.0324 -16.0222 -16.0171 -15.9876 -15.9818 -15.9033
   -15.8822 -15.8627 -15.8536 -15.8266 -15.7944 -15.7742 -15.7551 -15.7466
   -15.7028 -15.6984 -15.6774 -15.6645 -15.6565 -15.6310 -15.6193 -15.6051
   -15.5896 -15.5657 -15.5307 -15.5152 -15.4988 -15.4897 -15.4793 -15.4564
   -15.3983 -15.3761 -15.3668 -15.3020 -15.2288 -15.2167 -15.2072 -15.1993
   -15.1886 -15.1821 -15.1737 -15.1648 -15.1612 -15.1366 -15.0994 -15.0911
   -15.0644 -15.0563 -15.0512 -15.0320 -15.0233 -15.0145 -14.9999 -14.9891
   -14.9849 -14.9724 -14.9684 -14.9644 -14.9629 -14.9574 -14.9459 -14.9401
   -14.9325 -14.9217 -14.8985 -14.8954 -14.8855 -14.8743 -14.8519 -14.8473
   -14.8365 -14.8311 -14.8291 -14.8122 -14.8038 -14.7857 -14.7684 -14.7513
   -14.7374 -14.7339 -14.7269 -14.7185 -14.7090 -14.6999 -14.6992 -14.6859
   -14.6772 -14.6657 -14.6595 -14.6486 -14.6409 -14.6389 -14.6150 -14.5989
   -14.5860 -14.5826 -14.5633 -14.5446 -14.5371 -14.4483 -14.4326 -14.4236
   -14.4135 -14.4043 -14.3998 -14.3877 -14.3769 -14.3730 -14.3680 -14.3597
   -14.3534 -14.3482 -14.3392 -14.3302 -14.3258 -14.3210 -14.3005 -14.2788
   -14.2710 -14.2586 -14.2518 -14.2506 -14.2407 -14.1969 -14.1849 -14.1549
   -14.1258 -14.1118 -14.0909 -14.0690 -14.0684 -14.0216 -14.0081 -13.9963
   -13.9756 -13.9496 -13.9119 -13.8829 -13.8758 -13.8476 -13.8373 -13.8205
   -13.7870 -13.7568 -13.7379 -13.7325 -13.7154 -13.6937 -13.6885 -13.6743
   -13.6518 -13.6428 -13.6348 -13.6259 -13.6148 -13.5941 -13.5914 -13.5788
   -13.5407 -13.5368 -13.5172 -13.5026 -13.4773 -13.4743 -13.4593 -13.4396
   -13.4347 -13.4295 -13.4053 -13.3951 -13.3915 -13.3773 -13.3703 -13.3559
   -13.3520 -13.3390 -13.3310 -13.3108 -13.3040 -13.2909 -13.2772 -13.2749
   -13.2537 -13.2462 -13.2381 -13.2291 -13.2263 -13.2236 -13.2177 -13.2118
   -13.1990 -13.1878 -13.1825 -13.1704 -13.1626 -13.1380 -13.1266 -13.1224
   -13.1109 -13.1091 -13.0954 -13.0906 -13.0801 -13.0775 -13.0693 -13.0629
   -13.0531 -13.0494 -13.0360 -13.0241 -13.0117 -13.0073 -13.0033 -13.0023
   -12.9960 -12.9814 -12.9752 -12.9602 -12.9561 -12.9519 -12.9462 -12.9410
   -12.9386 -12.9227 -12.9121 -12.9085 -12.9051 -12.9017 -12.8931 -12.8879
   -12.8748 -12.8729 -12.8639 -12.8592 -12.8511 -12.8432 -12.8362 -12.8316
   -12.8294 -12.8234 -12.8148 -12.8084 -12.8023 -12.7985 -12.7947 -12.7903
   -12.7814 -12.7655 -12.7441 -12.7372 -12.7324 -12.7244 -12.7080 -12.7037
   -12.6812 -12.6713 -12.6561 -12.6492 -12.6388 -12.5924 -12.5868 -12.5474
   -12.5402 -12.5316 -12.5202 -12.5020 -12.4779 -12.4549 -12.4475 -12.4220
   -12.3930 -12.3895 -12.3738 -12.3673 -12.3358 -12.3183 -12.3030 -12.2884
   -12.2810 -12.2559 -12.2281 -12.2164 -12.2085 -12.1942 -12.1675 -12.1611
   -12.1482 -12.1314 -12.1002 -12.0835 -12.0733 -12.0713 -12.0493 -12.0473
   -12.0342 -12.0309 -11.9945 -11.9811 -11.9600 -11.9590 -11.9360 -11.9176
   -11.7852 -11.7723 -11.5864 -11.5362 -11.4361 -11.4010 -11.2898 -11.1519
   -11.1076 -11.0940 -10.9781 -10.8136 -10.8037 -10.6479 -10.6286 -10.5176
   -10.4421 -10.3303 -10.2489

          k = 0.2500-0.3536 0.0000 (128397 PWs)   bands (ev):

  -100.1552-100.0717-100.0703-100.0662-100.0638-100.0630-100.0619-100.0557
  -100.0555-100.0457-100.0431-100.0420-100.0412-100.0393-100.0374-100.0350
  -100.0337-100.0335-100.0312-100.0295-100.0265-100.0238-100.0234-100.0229
  -100.0197-100.0155-100.0153-100.0074-100.0070-100.0065 -99.9654 -99.9640
   -99.9394 -99.9308 -99.9219 -99.9192 -99.9131 -99.9039 -99.9007 -99.9006
   -99.8991 -99.8976 -99.8919 -99.8910 -99.8849 -99.8843 -99.8840 -99.8824
   -99.8821 -99.8791 -99.8780 -99.8754 -99.8734 -99.8732 -99.8666 -99.8661
   -99.8653 -99.8621 -99.8582 -99.8511 -99.8468 -99.8389 -99.8222 -99.8196
   -66.4409 -66.2733 -66.2633 -66.2606 -66.2505 -66.2498 -66.2471 -66.2451
   -66.2412 -66.2404 -66.2393 -66.2392 -66.2366 -66.2255 -66.2253 -66.2249
   -66.2229 -66.2202 -66.2200 -66.2181 -66.2179 -66.2149 -66.2145 -66.2116
   -66.2085 -66.2073 -66.2010 -66.1999 -66.1994 -66.1984 -66.1900 -66.1831
   -66.1739 -66.1691 -66.1656 -66.1643 -66.1588 -66.1582 -66.1568 -66.1545
   -66.1523 -66.1490 -66.1419 -66.1418 -66.1401 -66.1391 -66.1335 -66.1212
   -66.1104 -66.1091 -66.1029 -66.0983 -66.0947 -66.0880 -66.0855 -66.0829
   -66.0814 -66.0800 -66.0757 -66.0728 -66.0720 -66.0706 -66.0681 -66.0672
   -66.0667 -66.0648 -66.0622 -66.0613 -66.0576 -66.0545 -66.0528 -66.0524
   -66.0485 -66.0446 -66.0419 -66.0384 -66.0353 -66.0315 -66.0252 -66.0236
   -66.0223 -66.0220 -66.0205 -66.0135 -66.0129 -66.0111 -66.0080 -66.0072
   -66.0055 -66.0046 -66.0015 -65.9978 -65.9903 -65.9894 -65.9864 -65.9844
   -65.9835 -65.9819 -65.9814 -65.9795 -65.9756 -65.9734 -65.9701 -65.9625
   -65.9571 -65.9570 -65.9567 -65.9564 -65.9527 -65.9523 -65.9507 -65.9495
   -65.9476 -65.9471 -65.9459 -65.9450 -65.9440 -65.9435 -65.9400 -65.9370
   -65.9367 -65.9309 -65.9295 -65.9264 -65.9252 -65.9236 -65.9223 -65.9183
   -65.9166 -65.9144 -65.9140 -65.9125 -65.9080 -65.9050 -65.8990 -65.8980
   -65.8953 -65.8937 -65.8919 -65.8892 -65.8881 -65.8832 -65.8828 -65.8822
   -65.8799 -65.8795 -65.8760 -65.8745 -65.8731 -65.8713 -65.8685 -65.8670
   -65.8645 -65.8591 -65.8568 -65.8558 -65.8534 -65.8519 -65.8478 -65.8451
   -65.8416 -65.8354 -65.8308 -65.8302 -65.8264 -65.8229 -65.8223 -65.8186
   -65.8169 -65.8162 -65.8151 -65.8122 -65.8112 -65.8093 -65.8067 -65.8056
   -65.8043 -65.7988 -65.7969 -65.7952 -65.7929 -65.7924 -65.7901 -65.7889
   -65.7855 -65.7851 -65.7829 -65.7816 -65.7802 -65.7800 -65.7772 -65.7759
   -29.9278 -19.8490 -19.8444 -19.5197 -18.9323 -18.9321 -18.3274 -17.8289
   -17.7853 -17.4603 -17.4356 -17.4259 -17.2111 -17.1417 -17.0931 -16.8930
   -16.5966 -16.5940 -16.5918 -16.5711 -16.5330 -16.5319 -16.5155 -16.5105
   -16.5099 -16.4783 -16.4676 -16.4078 -16.3502 -16.3323 -16.3040 -16.2949
   -16.2806 -16.1702 -16.1637 -16.1147 -16.1145 -16.0851 -16.0728 -16.0553
   -16.0543 -16.0395 -16.0272 -16.0077 -16.0022 -15.9559 -15.9510 -15.9291
   -15.9262 -15.8944 -15.8672 -15.8348 -15.8152 -15.8067 -15.7394 -15.6863
   -15.6775 -15.6624 -15.6621 -15.6357 -15.6343 -15.6321 -15.6257 -15.6174
   -15.6108 -15.5808 -15.5522 -15.5476 -15.4868 -15.4494 -15.4374 -15.3947
   -15.3403 -15.3181 -15.2969 -15.2499 -15.2180 -15.2103 -15.1894 -15.1700
   -15.1579 -15.1562 -15.1551 -15.1418 -15.1327 -15.1242 -15.1222 -15.1061
   -15.1045 -15.0951 -15.0844 -15.0784 -15.0713 -15.0693 -15.0501 -15.0431
   -15.0404 -14.9990 -14.9982 -14.9773 -14.9713 -14.9681 -14.9595 -14.9465
   -14.9448 -14.9398 -14.9241 -14.9141 -14.9006 -14.8789 -14.8783 -14.8319
   -14.8146 -14.8136 -14.8110 -14.8092 -14.7946 -14.7825 -14.7816 -14.7749
   -14.7679 -14.7567 -14.7565 -14.7454 -14.7083 -14.6982 -14.6930 -14.6509
   -14.6346 -14.6111 -14.6007 -14.5364 -14.5319 -14.5223 -14.5117 -14.5022
   -14.4974 -14.4817 -14.4676 -14.4573 -14.4564 -14.4526 -14.4494 -14.4488
   -14.4440 -14.4362 -14.4337 -14.4189 -14.4148 -14.4130 -14.4039 -14.3940
   -14.3908 -14.3840 -14.3741 -14.3487 -14.3463 -14.3340 -14.3048 -14.2767
   -14.2655 -14.2438 -14.2387 -14.2189 -14.2046 -14.1639 -14.1391 -14.1225
   -14.1167 -14.1106 -14.0647 -14.0634 -14.0614 -14.0425 -14.0246 -13.9995
   -13.9713 -13.9037 -13.8874 -13.8744 -13.8711 -13.8310 -13.8305 -13.8055
   -13.7971 -13.7734 -13.7607 -13.7333 -13.7315 -13.7155 -13.6973 -13.6870
   -13.6817 -13.6766 -13.6751 -13.6592 -13.6581 -13.6106 -13.6023 -13.5838
   -13.5577 -13.5542 -13.5284 -13.5158 -13.5138 -13.4637 -13.4472 -13.4404
   -13.4340 -13.4251 -13.4169 -13.4140 -13.4031 -13.3936 -13.3933 -13.3457
   -13.3329 -13.3185 -13.3021 -13.2951 -13.2882 -13.2857 -13.2683 -13.2664
   -13.2549 -13.2491 -13.2326 -13.2053 -13.2010 -13.1932 -13.1900 -13.1711
   -13.1697 -13.1592 -13.1538 -13.1335 -13.1314 -13.1244 -13.1235 -13.1097
   -13.0976 -13.0937 -13.0861 -13.0829 -13.0754 -13.0745 -13.0656 -13.0625
   -13.0533 -13.0515 -13.0452 -13.0432 -13.0279 -13.0275 -13.0203 -13.0084
   -13.0045 -13.0036 -13.0022 -12.9981 -12.9894 -12.9850 -12.9780 -12.9694
   -12.9669 -12.9642 -12.9576 -12.9545 -12.9519 -12.9436 -12.9407 -12.9353
   -12.9253 -12.9145 -12.9126 -12.9026 -12.8978 -12.8757 -12.8686 -12.8644
[...]
   -10.3284 -10.3097 -10.3020 -10.2922 -10.2863 -10.2685 -10.2628 -10.2501
   -10.2411 -10.2206 -10.2088 -10.1966 -10.1853 -10.1804 -10.1753 -10.1711
   -10.1663 -10.1475 -10.1458 -10.1386 -10.1331 -10.1177 -10.1103 -10.1040
   -10.1011 -10.0844 -10.0714 -10.0682 -10.0614 -10.0565 -10.0409 -10.0311
   -10.0259 -10.0169  -9.9913  -9.9865  -9.9810  -9.9630  -9.9568  -9.9519
    -9.9422  -9.9363  -9.9321  -9.9296  -9.9266  -9.9207  -9.9096  -9.9029
    -9.8986  -9.8892  -9.8779  -9.8757  -9.8667  -9.8558  -9.8427  -9.8342
    -9.8303  -9.8232  -9.8168  -9.8144  -9.8114  -9.8087  -9.8017  -9.7912
    -9.7795  -9.7719  -9.7689  -9.7549  -9.7409  -9.7333  -9.7300  -9.7266
    -9.7150  -9.6988  -9.6937  -9.6876  -9.6537  -9.6394  -9.6385  -9.6153
    -9.6057  -9.5976  -9.5914  -9.5832  -9.5800  -9.5751  -9.5690  -9.5564
    -9.5544  -9.5133  -9.5013  -9.4963  -9.4841  -9.4814  -9.4724  -9.4538
    -9.4325  -9.4137  -9.3212  -9.2810  -9.2460  -9.2214  -9.2080  -9.1496
    -9.0510  -9.0368  -8.9330

          k =-0.5000-0.3536 0.0000 (128560 PWs)   bands (ev):

   -97.2153 -97.0660 -97.0573 -97.0556 -97.0546 -97.0324 -97.0293 -97.0277
   -97.0270 -97.0262 -97.0235 -97.0207 -97.0191 -97.0168 -97.0161 -97.0124
   -97.0099 -97.0065 -97.0060 -97.0031 -97.0023 -97.0023 -97.0000 -96.9982
   -96.9976 -96.9969 -96.9955 -96.9950 -96.9919 -96.9777 -96.9742 -96.9740
   -96.9739 -96.9650 -96.9639 -96.9634 -96.9615 -96.9591 -96.9587 -96.9579
   -96.9576 -96.9553 -96.9449 -96.9434 -96.9426 -96.9384 -96.9372 -96.9371
   -96.9370 -96.9366 -96.9365 -96.9349 -96.9349 -96.9339 -96.9321 -96.9259
   -96.9236 -96.9155 -96.9149 -96.9136 -96.9134 -96.9127 -96.9118 -96.9090
   -63.4551 -63.3592 -63.3220 -63.3181 -63.3121 -63.3071 -63.3046 -63.3038
   -63.3036 -63.2981 -63.2960 -63.2958 -63.2950 -63.2944 -63.2942 -63.2919
   -63.2914 -63.2879 -63.2858 -63.2848 -63.2816 -63.2786 -63.2741 -63.2739
   -63.2686 -63.2637 -63.2573 -63.2566 -63.2549 -63.2549 -63.2534 -63.2497
   -63.2492 -63.2347 -63.2330 -63.2280 -63.2279 -63.2220 -63.2207 -63.2203
   -63.2184 -63.2173 -63.2170 -63.2170 -63.2157 -63.2123 -63.2120 -63.2105
   -63.2100 -63.2090 -63.2077 -63.2068 -63.2060 -63.2051 -63.1991 -63.1986
   -63.1983 -63.1975 -63.1962 -63.1959 -63.1958 -63.1948 -63.1926 -63.1677
   -63.1607 -63.1601 -63.1564 -63.1516 -63.1479 -63.1467 -63.1414 -63.1414
   -63.1383 -63.1371 -63.1359 -63.1216 -63.1215 -63.1149 -63.1144 -63.1040
   -63.1027 -63.1027 -63.1011 -63.0996 -63.0986 -63.0978 -63.0931 -63.0929
   -63.0914 -63.0910 -63.0896 -63.0889 -63.0842 -63.0808 -63.0762 -63.0749
   -63.0704 -63.0690 -63.0686 -63.0683 -63.0632 -63.0630 -63.0583 -63.0578
   -63.0570 -63.0560 -63.0544 -63.0522 -63.0502 -63.0476 -63.0450 -63.0421
   -63.0418 -63.0388 -63.0375 -63.0353 -63.0334 -63.0304 -63.0257 -63.0232
   -63.0216 -63.0215 -63.0198 -63.0196 -63.0172 -63.0160 -63.0135 -63.0083
   -63.0078 -63.0040 -63.0036 -63.0003 -62.9968 -62.9960 -62.9948 -62.9941
   -62.9931 -62.9921 -62.9915 -62.9906 -62.9898 -62.9895 -62.9891 -62.9853
   -62.9845 -62.9839 -62.9831 -62.9805 -62.9795 -62.9785 -62.9751 -62.9748
   -62.9746 -62.9727 -62.9713 -62.9709 -62.9701 -62.9688 -62.9685 -62.9676
   -62.9670 -62.9659 -62.9657 -62.9653 -62.9651 -62.9632 -62.9624 -62.9601
   -62.9594 -62.9565 -62.9558 -62.9555 -62.9548 -62.9537 -62.9531 -62.9530
   -62.9523 -62.9521 -62.9492 -62.9475 -62.9422 -62.9410 -62.9405 -62.9391
   -62.9389 -62.9375 -62.9371 -62.9350 -62.9341 -62.9338 -62.9321 -62.9289
   -29.8951 -19.8055 -19.8008 -19.0072 -19.0061 -18.4236 -18.4213 -17.7574
   -17.7176 -17.2491 -17.1772 -16.8089 -16.4265 -16.4139 -16.4112 -16.3847
   -16.0129 -15.9602 -15.5749 -15.5725 -15.5721 -15.5682 -15.5658 -15.5344
   -15.4816 -15.4479 -15.4385 -15.4303 -15.4257 -15.4042 -15.0120 -15.0112
   -15.0070 -15.0059 -15.0053 -14.9854 -14.7944 -14.7932 -14.5443 -14.5415
   -14.5178 -14.5093 -14.4999 -14.4902 -14.4455 -14.4444 -14.4095 -14.4072
   -14.3923 -14.3895 -14.2529 -14.2399 -14.2382 -14.2261 -14.2170 -14.1910
   -13.9702 -13.9645 -13.9583 -13.9579 -13.9531 -13.9368 -13.7356 -13.7350
   -13.6947 -13.6751 -13.6432 -13.6238 -13.5400 -13.5263 -13.4578 -13.4576
   -13.4497 -13.4467 -13.4289 -13.4284 -13.4199 -13.4148 -13.4043 -13.3988
   -13.3292 -13.3263 -13.3240 -13.3157 -13.3141 -13.3085 -13.3056 -13.3041
   -13.2924 -13.2916 -13.2905 -13.2862 -13.0973 -13.0949 -13.0709 -13.0666
   -12.9712 -12.9577 -12.9535 -12.9529 -12.9429 -12.9251 -12.9110 -12.9057
   -12.9029 -12.8932 -12.8778 -12.8762 -12.8761 -12.8734 -12.8695 -12.8691
   -12.8617 -12.8492 -12.8286 -12.8228 -12.8159 -12.8154 -12.8133 -12.8124
   -12.8053 -12.8022 -12.7947 -12.7822 -12.7734 -12.7699 -12.7673 -12.7373
   -12.7243 -12.7164 -12.7162 -12.7131 -12.7054 -12.7020 -12.6962 -12.6923
   -12.6882 -12.6797 -12.6765 -12.6438 -12.6318 -12.6220 -12.4994 -12.4928
   -12.4609 -12.4408 -12.4373 -12.4351 -12.4225 -12.4094 -12.3755 -12.3707
   -12.3668 -12.3566 -12.2974 -12.2634 -12.2537 -12.2511 -12.2470 -12.2405
   -12.2178 -12.2048 -12.1905 -12.1837 -12.1826 -12.1688 -12.1463 -12.1320
   -12.0108 -12.0038 -12.0038 -11.9909 -11.9511 -11.9355 -11.9241 -11.9209
   -11.9195 -11.9041 -11.9010 -11.8875 -11.8716 -11.8357 -11.8355 -11.8174
   -11.8019 -11.7778 -11.7731 -11.7667 -11.7002 -11.6984 -11.6876 -11.6769
   -11.5173 -11.5002 -11.4460 -11.4340 -11.4217 -11.3791 -11.3334 -11.3286
   -11.1636 -11.1514 -11.1392 -11.1299 -11.1282 -11.1261 -11.1043 -11.0781
   -11.0099 -11.0086 -10.9753 -10.9746 -10.9671 -10.9576 -10.9309 -10.8976
   -10.8891 -10.8804 -10.8588 -10.8469 -10.8410 -10.8374 -10.8288 -10.7733
   -10.7531 -10.7260 -10.7141 -10.6991 -10.6780 -10.6643 -10.6581 -10.6436
   -10.6355 -10.6349 -10.6325 -10.6287 -10.6117 -10.6084 -10.6034 -10.5984
   -10.5402 -10.5314 -10.5276 -10.5037 -10.4855 -10.4667 -10.4530 -10.4341
   -10.4255 -10.4131 -10.3949 -10.3684 -10.3614 -10.3328 -10.3148 -10.2886
   -10.2368 -10.2308 -10.2155 -10.2089 -10.1935 -10.1891 -10.1873 -10.1850
   -10.1809 -10.1645 -10.1639 -10.1619 -10.1468 -10.1358 -10.1349 -10.1338
   -10.1327 -10.1276 -10.1207 -10.1077 -10.1068 -10.0845 -10.0839 -10.0764
   -10.0685 -10.0576 -10.0509 -10.0420 -10.0334 -10.0333 -10.0326 -10.0310
   -10.0283 -10.0165 -10.0128  -9.9990  -9.9890  -9.9829  -9.9662  -9.9646
    -9.9612  -9.9599  -9.9533  -9.9476  -9.9473  -9.9464  -9.9354  -9.9077
    -9.9036  -9.9033  -9.8515  -9.8446  -9.8410  -9.8273  -9.8077  -9.8075
    -9.8073  -9.7832  -9.7829  -9.7727  -9.7664  -9.7644  -9.7639  -9.7614
    -9.7523  -9.7522  -9.7491  -9.7489  -9.7471  -9.7441  -9.7393  -9.7390
    -9.7276  -9.7262  -9.6948  -9.6921  -9.6882  -9.6834  -9.6808  -9.6695
    -9.6691  -9.6657  -9.6593  -9.6586  -9.6469  -9.6428  -9.5853  -9.5747
    -9.5712  -9.5678  -9.5603  -9.5510  -9.4024  -9.3757  -9.3744  -9.3551
    -9.3203  -9.2920  -9.1528  -9.1429  -9.1405  -9.1384  -9.1000  -9.0724
    -9.0591  -9.0552  -9.0429

     the Fermi energy is   -11.9055 ev

!    total energy              =  -21096.33037020 Ry
     Harris-Foulkes estimate   =  -21096.33037044 Ry
     estimated scf accuracy    <          5.9E-12 Ry

     The total energy is the sum of the following terms:

     one-electron contribution = -743380.80481815 Ry
     hartree contribution      =  371234.91572449 Ry
     xc contribution           =   -2235.63483556 Ry
     ewald contribution        =  358160.00861306 Ry
     Dispersion Correction     =      -1.39197852 Ry
     one-center paw contrib.   =   -4873.42338371 Ry
     smearing contrib. (-TS)   =       0.00030818 Ry

     total magnetization       =   162.36 Bohr mag/cell
     absolute magnetization    =   170.08 Bohr mag/cell

     convergence has been achieved in  31 iterations

     negative rho (up, down):  1.001E-02 1.242E-01

     Forces acting on atoms (cartesian axes, Ry/au):

     atom    1 type  1   force =    -0.00011801   -0.00007802    0.00925357
     atom    2 type  1   force =    -0.00001228   -0.00003358   -0.01046800
     atom    3 type  1   force =     0.00069999    0.00048889    0.00955622
     atom    4 type  1   force =     0.00040960    0.00029130   -0.00773044
     atom    5 type  1   force =     0.00001085    0.00000759   -0.00002173
     atom    6 type  1   force =    -0.00000071    0.00000049   -0.00000738
     atom    7 type  1   force =     0.00004479    0.00002975    0.00010280
     atom    8 type  1   force =     0.00002014    0.00001303   -0.00000497
     atom    9 type  1   force =     0.00017897   -0.00004666    0.00964468
     atom   10 type  1   force =     0.00003687    0.00017188    0.00964436
     atom   11 type  1   force =    -0.00004018   -0.00005074   -0.00857594
     atom   12 type  1   force =    -0.00006072   -0.00000952   -0.00860458
     atom   13 type  1   force =     0.00001077    0.00000368   -0.00001516
     atom   14 type  1   force =     0.00000651    0.00000521   -0.00001520
     atom   15 type  1   force =     0.00003229    0.00000891   -0.00000094
     atom   16 type  1   force =     0.00001706    0.00002633    0.00000061
     atom   17 type  1   force =    -0.00033409   -0.00010655    0.00972339
     atom   18 type  1   force =     0.00000405   -0.00000797   -0.00896487
     atom   19 type  1   force =     0.00023839    0.00028977    0.00974344
     atom   20 type  1   force =    -0.00151367    0.00211258   -0.00586905
     atom   21 type  1   force =    -0.00000783    0.00001043    0.00000860
     atom   22 type  1   force =    -0.00000183   -0.00000351   -0.00003593
     atom   23 type  1   force =     0.00000019    0.00001017    0.00000937
     atom   24 type  1   force =     0.00001750   -0.00003187    0.00002329
     atom   25 type  1   force =    -0.00005776    0.00010096    0.00919451
     atom   26 type  1   force =    -0.00022654    0.00032947    0.00961809
     atom   27 type  1   force =     0.00003194    0.00109043   -0.00856507
     atom   28 type  1   force =     0.00005410   -0.00004458   -0.00856991
     atom   29 type  1   force =     0.00000518   -0.00000328    0.00011665
     atom   30 type  1   force =    -0.00000557    0.00001233    0.00004391
     atom   31 type  1   force =     0.00004544    0.00003868    0.00005300
     atom   32 type  1   force =    -0.00001001   -0.00002456   -0.00001473
     atom   33 type  1   force =    -0.00021961   -0.00027753    0.00971149
     atom   34 type  1   force =    -0.00000818    0.00002419   -0.00896182
     atom   35 type  1   force =     0.00032927    0.00011286    0.00973022
     atom   36 type  1   force =     0.00148472   -0.00213103   -0.00583645
     atom   37 type  1   force =     0.00000793   -0.00001002    0.00000735
     atom   38 type  1   force =     0.00000177   -0.00000067   -0.00003487
     atom   39 type  1   force =     0.00000753   -0.00000596    0.00000890
     atom   40 type  1   force =    -0.00002408    0.00002690    0.00003454
     atom   41 type  1   force =     0.00024068   -0.00033556    0.00963701
     atom   42 type  1   force =     0.00007410   -0.00008837    0.00919697
     atom   43 type  1   force =    -0.00003363    0.00006852   -0.00859845
     atom   44 type  1   force =     0.00104107   -0.00034956   -0.00857865
     atom   45 type  1   force =     0.00001148   -0.00001024    0.00004703
     atom   46 type  1   force =    -0.00000119    0.00000621    0.00011961
     atom   47 type  1   force =    -0.00002390   -0.00000045   -0.00001610
     atom   48 type  1   force =     0.00005727    0.00002939    0.00004539
     atom   49 type  1   force =    -0.00071747   -0.00050058    0.00960335
     atom   50 type  1   force =     0.00000079    0.00001603   -0.00373002
     atom   51 type  1   force =     0.00010619    0.00009046    0.00921776
     atom   52 type  1   force =    -0.00038935   -0.00027643   -0.00772811
     atom   53 type  1   force =    -0.00003823   -0.00002945    0.00009990
     atom   54 type  1   force =     0.00000628    0.00000109   -0.00008899
     atom   55 type  1   force =    -0.00000587   -0.00000348   -0.00003601
     atom   56 type  1   force =    -0.00002077   -0.00001640   -0.00001738
     atom   57 type  1   force =    -0.00003954   -0.00015962    0.00965323
     atom   58 type  1   force =    -0.00017786    0.00001599    0.00965735
     atom   59 type  1   force =    -0.00004160   -0.00111870   -0.00863743
     atom   60 type  1   force =    -0.00106224    0.00031487   -0.00862868
     atom   61 type  1   force =    -0.00000748   -0.00000427   -0.00002238
     atom   62 type  1   force =    -0.00000376   -0.00000561   -0.00002051
     atom   63 type  1   force =    -0.00003292   -0.00003614    0.00004850
     atom   64 type  1   force =    -0.00004093   -0.00002027    0.00005267
     atom   65 type  2   force =     0.00003668   -0.00002914   -0.00001203
     atom   66 type  3   force =    -0.00001263    0.00006108   -0.00000358
     atom   67 type  3   force =     0.00001260    0.00000962   -0.00005546
     atom   68 type  3   force =     0.00000739    0.00003126   -0.00001814

     Total force =     0.000341     Total SCF correction =     0.000003
     Message from routine bfgs:
     history already reset at previous step: stopping

     bfgs converged in  31 scf cycles and  26 bfgs steps
     (criteria: energy <  7.3E-07 Ry, force <  3.9E-04 Ry/Bohr)

     End of BFGS Geometry Optimization

     Final energy   =  -21096.3303701959 Ry
Begin final coordinates

ATOMIC_POSITIONS (angstrom)
Fe       1.654912953   1.170200133   0.000000000    0   0   0
Fe       0.000000000   0.000000000   2.026984232    0   0   0
Fe       4.964738858   3.510600399   0.000000000    0   0   0
Fe       3.309825906   2.340400266   2.026984232    0   0   0
Fe       1.654112741   1.169578274   4.032149562
Fe       3.310145037   9.361840168   6.014262434
Fe       4.972665882   3.516081590   4.032352467
Fe       3.306740070   2.338283064   5.998867883
Fe       2.482363858   3.510600399   0.000000000    0   0   0
Fe       4.137287953   1.170200133   0.000000000    0   0   0
Fe       0.827450906   2.340400266   2.026984232    0   0   0
Fe       2.482375000   0.000000000   2.026984232    0   0   0
Fe       2.482515258   3.512644658   4.031861012
Fe       4.139274243   1.169652156   4.031990668
Fe       0.820800607   2.346378532   6.016471168
Fe       2.485831949  -0.008331103   6.016606919
Fe       6.619662953   1.170200133   0.000000000    0   0   0
Fe       4.964750000   0.000000000   2.026984232    0   0   0
Fe       9.929488858   3.510600399   0.000000000    0   0   0
Fe       8.274575906   2.340400266   2.026984232    0   0   0
Fe       6.621476387   1.170901858   4.022760656
Fe       4.964308880  -0.001246490   6.032148420
Fe       9.927609510   3.509070254   4.022502835
Fe       8.275038086   2.339317193   5.969356796
Fe       7.447113858   3.510600399   0.000000000    0   0   0
Fe       9.102037953   1.170200133   0.000000000    0   0   0
Fe       5.792200906   2.340400266   2.026984232    0   0   0
Fe       7.447125000   0.000000000   2.026984232    0   0   0
Fe       7.429823579   3.534275063   4.062109064
Fe       9.103217143   1.168370183   4.022106940
Fe       5.794568693   2.336303563   5.988979693
Fe      10.753338220   9.368770913   6.017068552
Fe       3.309814764   5.851000664   0.000000000    0   0   0
Fe       1.654901811   4.680800531   2.026984232    0   0   0
Fe       6.619640670   8.191400930   0.000000000    0   0   0
Fe       4.964727717   7.021200797   2.026984232    0   0   0
Fe       3.311062149   5.852661092   4.022620684
Fe      11.583483192   4.680527668   6.032167342
Fe       6.617466643   8.190262216   4.022400424
Fe       4.964153768   7.021735779   5.970592552
Fe       4.137265670   8.191400930   0.000000000    0   0   0
Fe       5.792189764   5.851000664   0.000000000    0   0   0
Fe       2.482352717   7.021200797   2.026984232    0   0   0
Fe       4.137276811   4.680800531   2.026984232    0   0   0
Fe       4.136015470   8.193062442   4.022347543
Fe       5.808712690   5.826931922   4.062087229
Fe      12.417577649   7.015340161   6.017162956
Fe       4.134266369   4.684411818   5.987941038
Fe       8.274564764   5.851000664   0.000000000    0   0   0
Fe       6.619651811   4.680800531   2.026984232    0   0   0
Fe      11.584390670   8.191400930   0.000000000    0   0   0
Fe       9.929477717   7.021200797   2.026984232    0   0   0
Fe       8.266426873   5.845082784   4.032436249
Fe       6.618636810   4.680645693   6.355070219
Fe      11.585102991   8.191826611   4.032363083
Fe       9.932011368   7.022997452   5.999126754
Fe       9.102015670   8.191400930   0.000000000    0   0   0
Fe      10.756939764   5.851000664   0.000000000    0   0   0
Fe       7.447102717   7.021200797   2.026984232    0   0   0
Fe       9.102026811   4.680800531   2.026984232    0   0   0
Fe       9.099836613   8.191407364   4.031910096
Fe      10.756235199   5.848884893   4.032031830
Fe       7.444114078   7.023492603   5.988311312
Fe       9.103307728   4.677074922   5.989344732
N        6.622767892   4.681080527   8.432174005
H        6.602192246   5.621694924   8.844583156
H        5.815380025   4.193668104   8.840045973
H        7.445820986   4.223626844   8.842789807
End final coordinates



     Writing output data file Fe_NH3_paper_480c_ESM_pn5.save/

     init_run     :     20.52s CPU     21.05s WALL (       1 calls)
     electrons    : 140459.12s CPU 141538.40s WALL (      14 calls)
     update_pot   :    240.31s CPU    240.45s WALL (      13 calls)
     forces       :    629.13s CPU    633.62s WALL (      14 calls)

     Called by init_run:
     wfcinit      :      0.46s CPU      0.46s WALL (       1 calls)
     potinit      :      2.66s CPU      3.02s WALL (       1 calls)
     hinit0       :     14.78s CPU     14.83s WALL (       1 calls)

     Called by electrons:
     c_bands      : 127603.02s CPU 128504.66s WALL (     469 calls)
     sum_band     :   7536.48s CPU   7656.94s WALL (     469 calls)
     v_of_rho     :    768.83s CPU    772.15s WALL (     470 calls)
     newd         :    136.12s CPU    142.84s WALL (     470 calls)
     PAW_pot      :    219.32s CPU    220.72s WALL (     483 calls)
     mix_rho      :   4017.65s CPU   4056.53s WALL (     469 calls)

     Called by c_bands:
     init_us_2    :    214.42s CPU    217.61s WALL (    2895 calls)
     cegterg      :  80094.20s CPU  80631.86s WALL (    1419 calls)

     Called by sum_band:
     sum_band:bec :     13.85s CPU     13.90s WALL (    1446 calls)
     addusdens    :    166.27s CPU    177.61s WALL (     469 calls)

     Called by *egterg:
     h_psi        :  29882.69s CPU  30137.77s WALL (    7594 calls)
     s_psi        :   6060.49s CPU   6069.88s WALL (    7594 calls)
     g_psi        :     74.98s CPU     75.32s WALL (    6175 calls)
     cdiaghg      :  23372.84s CPU  23466.76s WALL (    7513 calls)

     Called by h_psi:
     h_psi:pot    :  29733.87s CPU  29896.04s WALL (    7594 calls)
     h_psi:calbec :   6226.63s CPU   6238.31s WALL (    7594 calls)
     vloc_psi     :  17432.49s CPU  17571.77s WALL (    7594 calls)
     add_vuspsi   :   6074.63s CPU   6085.91s WALL (    7594 calls)

     General routines
     calbec       :   9163.76s CPU   9180.34s WALL (    9208 calls)
     fft          :    481.55s CPU    484.89s WALL (   11971 calls)
     ffts         :   2062.99s CPU   2076.21s WALL (  245368 calls)
     fftw         :  17129.70s CPU  17273.45s WALL ( 4937837 calls)
     interpolate  :     48.21s CPU     48.78s WALL (     940 calls)
     davcio       :      2.54s CPU    284.99s WALL (   13345 calls)

     Parallel routines
     fft_scatt_xy :   3410.72s CPU   3427.61s WALL ( 5195176 calls)
     fft_scatt_yz :   4878.70s CPU   4956.49s WALL ( 5195176 calls)

     PWSCF        :   1d15h18m CPU   1d15h36m WALL


   This run was terminated on:   8:10:47  20Jun2022            

=------------------------------------------------------------------------------=
   JOB DONE.
=------------------------------------------------------------------------------=
