     Message from routine get_command_line:
     unexpected argument # 4     :-in

     Program PWSCF v.6.7MaX starts on 28Sep2022 at 19:58:54 

     This program is part of the open-source Quantum ESPRESSO suite
     for quantum simulation of materials; please cite
         "P. Giannozzi et al., J. Phys.:Condens. Matter 21 395502 (2009);
         "P. Giannozzi et al., J. Phys.:Condens. Matter 29 465901 (2017);
          URL http://www.quantum-espresso.org", 
     in publications or presentations arising from this work. More details at
     http://www.quantum-espresso.org/quote

     Parallel version (MPI), running on   120 processors

     MPI processes distributed on     1 nodes
     K-points division:     npool     =       8
     R & G space division:  proc/nbgrp/npool/nimage =      15
     Waiting for input...
     Reading input from standard input
Warning: card &CELL ignored
Warning: card / ignored

     Current dimensions of program PWSCF are:
     Max number of different atomic species (ntypx) = 10
     Max number of k-points (npk) =  40000
     Max angular momentum in pseudopotentials (lmaxx) =  3

     IMPORTANT: XC functional enforced from input :
     Exchange-correlation= PBE
                           (   1   4   3   4   0   0   0)
     Any further DFT definition will be discarded
     Please, verify this is what you really want


     -------------------------------------------------
     Parameters for Dispersion (Grimme-D2) Correction:
     -------------------------------------------------
       atom      VdW radius       C_6     

        N          2.640         42.670
        H          1.892          4.857

     Subspace diagonalization in iterative solution of the eigenvalue problem:
     one sub-group per band group will be used
     scalapack distributed-memory algorithm (size of sub-group:  3*  3 procs)


     Parallelization info
     --------------------
     sticks:   dense  smooth     PW     G-vecs:    dense   smooth      PW
     Min        3636    1818    468               639190   225950   29545
     Max        3637    1819    470               639197   225953   29547
     Sum       54553   27281   7033              9587919  3389267  443191



     bravais-lattice index     =            0
     lattice parameter (alat)  =      37.7945  a.u.
     unit-cell volume          =   53986.6760 (a.u.)^3
     number of atoms/cell      =            4
     number of atomic types    =            2
     number of electrons       =         8.00
     number of Kohn-Sham states=            8
     kinetic-energy cutoff     =      60.0000  Ry
     charge density cutoff     =     480.0000  Ry
     scf convergence threshold =      1.0E-08
     mixing beta               =       0.7000
     number of iterations used =           10  plain     mixing
     energy convergence thresh.=      7.3E-07
     force convergence thresh. =      3.9E-04
     Exchange-correlation= PBE
                           (   1   4   3   4   0   0   0)
     nstep                     =           50


     celldm(1)=  37.794522  celldm(2)=   0.000000  celldm(3)=   0.000000
     celldm(4)=   0.000000  celldm(5)=   0.000000  celldm(6)=   0.000000

     crystal axes: (cart. coord. in units of alat)
               a(1) = (   1.000000   0.000000   0.000000 )  
               a(2) = (   0.000000   1.000000   0.000000 )  
               a(3) = (   0.000000   0.000000   1.000000 )  

     reciprocal axes: (cart. coord. in units 2 pi/alat)
               b(1) = (  1.000000  0.000000  0.000000 )  
               b(2) = (  0.000000  1.000000  0.000000 )  
               b(3) = (  0.000000  0.000000  1.000000 )  


     PseudoPot. # 1 for N  read from file:
     ../../SSSP/N.pbe-n-radius_5.UPF
     MD5 check sum: 16739722b17309cd8fe442a2ace49922
     Pseudo is Ultrasoft + core correction, Zval =  5.0
     Generated using "atomic" code by A. Dal Corso  v.5.1
     Using radial grid of 1085 points,  4 beta functions with: 
                l(1) =   0
                l(2) =   0
                l(3) =   1
                l(4) =   1
     Q(r) pseudized with 0 coefficients 


     PseudoPot. # 2 for H  read from file:
     ../../SSSP/H.pbe-rrkjus_psl.1.0.0.UPF
     MD5 check sum: f52b6d4d1c606e5624b1dc7b2218f220
     Pseudo is Ultrasoft, Zval =  1.0
     Generated using "atomic" code by A. Dal Corso  v.5.1
     Using radial grid of  929 points,  2 beta functions with: 
                l(1) =   0
                l(2) =   0
     Q(r) pseudized with 0 coefficients 


     atomic species   valence    mass     pseudopotential
        N              5.00    14.00700     N ( 1.00)
        H              1.00     1.00800     H ( 1.00)

     Starting magnetic structure 
     atomic species   magnetization
        N            0.100
        H            0.100

     No symmetry found



   Cartesian axes

     site n.     atom                  positions (alat units)
         1           N   tau(   1) = (   0.5000000   0.5000000   0.0000000  )
         2           H   tau(   2) = (   0.5000000   0.5478613  -0.0174102  )
         3           H   tau(   3) = (   0.5414491   0.4760695  -0.0174105  )
         4           H   tau(   4) = (   0.4585510   0.4760695  -0.0174106  )

     number of k points=    10  Methfessel-Paxton smearing, width (Ry)=  0.0100
                       cart. coord. in units 2pi/alat
        k(    1) = (   0.0000000   0.0000000   0.0000000), wk =   0.0625000
        k(    2) = (   0.0000000   0.2500000   0.0000000), wk =   0.1250000
        k(    3) = (   0.0000000  -0.5000000   0.0000000), wk =   0.0625000
        k(    4) = (   0.2500000   0.0000000   0.0000000), wk =   0.1250000
        k(    5) = (   0.2500000   0.2500000   0.0000000), wk =   0.1250000
        k(    6) = (   0.2500000  -0.5000000   0.0000000), wk =   0.1250000
        k(    7) = (   0.2500000  -0.2500000   0.0000000), wk =   0.1250000
        k(    8) = (  -0.5000000   0.0000000   0.0000000), wk =   0.0625000
        k(    9) = (  -0.5000000   0.2500000   0.0000000), wk =   0.1250000
        k(   10) = (  -0.5000000  -0.5000000   0.0000000), wk =   0.0625000

     Dense  grid:  9587919 G-vectors     FFT dimensions: ( 270, 270, 270)

     Smooth grid:  3389267 G-vectors     FFT dimensions: ( 192, 192, 192)

     Estimated max dynamical RAM per process >     390.11 MB

     Estimated total dynamical RAM >      45.72 GB

     Adding external electric field
        E field amplitude [Ha a.u.]: -3.1525E-02
        Potential amp.       -2.1446 Ry
        Total length         34.0151 bohr

     Generating pointlists ...
     new r_m :   0.0210 (alat units)  0.7940 (a.u.) for type    1
     new r_m :   0.0210 (alat units)  0.7940 (a.u.) for type    2

     Initial potential from superposition of free atoms

     starting charge    7.99996, renormalised to    8.00000

     negative rho (up, down):  9.690E-05 7.928E-05
     Starting wfcs are    7 randomized atomic wfcs +    1 random wfcs

     total cpu time spent up to now is       21.9 secs

     Self-consistent Calculation

     iteration #  1     ecut=    60.00 Ry     beta= 0.70
     CG style diagonalization
     c_bands:  1 eigenvalues not converged
     c_bands:  1 eigenvalues not converged
     c_bands:  1 eigenvalues not converged
     ethr =  1.00E-04,  avg # of iterations = 12.2

     negative rho (up, down):  2.144E-04 2.069E-04

     total cpu time spent up to now is       58.3 secs

     total energy              =     -23.53241162 Ry
     estimated scf accuracy    <       0.72728771 Ry

     total magnetization       =    -0.00 Bohr mag/cell
     absolute magnetization    =     0.06 Bohr mag/cell

     iteration #  2     ecut=    60.00 Ry     beta= 0.70
     CG style diagonalization
     ethr =  9.09E-03,  avg # of iterations =  3.5

     negative rho (up, down):  2.064E-04 2.127E-04

     total cpu time spent up to now is       76.9 secs

     total energy              =     -23.65677944 Ry
     estimated scf accuracy    <       0.43932150 Ry

     total magnetization       =     0.00 Bohr mag/cell
     absolute magnetization    =     0.03 Bohr mag/cell

     iteration #  3     ecut=    60.00 Ry     beta= 0.70
     CG style diagonalization
     ethr =  5.49E-03,  avg # of iterations =  3.4

     negative rho (up, down):  2.279E-04 2.301E-04

     total cpu time spent up to now is       95.5 secs

     total energy              =     -23.80597938 Ry
     estimated scf accuracy    <       0.00836896 Ry

     total magnetization       =    -0.00 Bohr mag/cell
     absolute magnetization    =     0.03 Bohr mag/cell

     iteration #  4     ecut=    60.00 Ry     beta= 0.70
     CG style diagonalization
     ethr =  1.05E-04,  avg # of iterations =  4.3

     negative rho (up, down):  2.064E-04 2.085E-04

     total cpu time spent up to now is      116.0 secs

     total energy              =     -23.81009870 Ry
     estimated scf accuracy    <       0.00403243 Ry

     total magnetization       =    -0.00 Bohr mag/cell
     absolute magnetization    =     0.01 Bohr mag/cell

     iteration #  5     ecut=    60.00 Ry     beta= 0.70
     CG style diagonalization
     ethr =  5.04E-05,  avg # of iterations =  5.6

     negative rho (up, down):  2.112E-04 2.119E-04

     total cpu time spent up to now is      139.2 secs

     total energy              =     -23.81171679 Ry
     estimated scf accuracy    <       0.00040612 Ry

     total magnetization       =     0.00 Bohr mag/cell
     absolute magnetization    =     0.01 Bohr mag/cell

     iteration #  6     ecut=    60.00 Ry     beta= 0.70
     CG style diagonalization
     ethr =  5.08E-06,  avg # of iterations =  6.6

     negative rho (up, down):  2.197E-04 2.196E-04

     total cpu time spent up to now is      164.7 secs

     total energy              =     -23.81175837 Ry
     estimated scf accuracy    <       0.00002925 Ry

     total magnetization       =    -0.00 Bohr mag/cell
     absolute magnetization    =     0.00 Bohr mag/cell

     iteration #  7     ecut=    60.00 Ry     beta= 0.70
     CG style diagonalization
     ethr =  3.66E-07,  avg # of iterations =  5.5

     negative rho (up, down):  2.173E-04 2.175E-04

     total cpu time spent up to now is      187.9 secs

     total energy              =     -23.81178936 Ry
     estimated scf accuracy    <       0.00001724 Ry

     total magnetization       =    -0.00 Bohr mag/cell
     absolute magnetization    =     0.00 Bohr mag/cell

     iteration #  8     ecut=    60.00 Ry     beta= 0.70
     CG style diagonalization
     ethr =  2.15E-07,  avg # of iterations =  3.5

     negative rho (up, down):  2.177E-04 2.176E-04

     total cpu time spent up to now is      207.3 secs

     total energy              =     -23.81178650 Ry
     estimated scf accuracy    <       0.00001365 Ry

     total magnetization       =    -0.00 Bohr mag/cell
     absolute magnetization    =     0.00 Bohr mag/cell

     iteration #  9     ecut=    60.00 Ry     beta= 0.70
     CG style diagonalization
     ethr =  1.71E-07,  avg # of iterations =  3.5

     negative rho (up, down):  2.175E-04 2.175E-04

     total cpu time spent up to now is      226.9 secs

     total energy              =     -23.81178870 Ry
     estimated scf accuracy    <       0.00000009 Ry

     total magnetization       =    -0.00 Bohr mag/cell
     absolute magnetization    =     0.00 Bohr mag/cell

     iteration # 10     ecut=    60.00 Ry     beta= 0.70
     CG style diagonalization
     ethr =  1.17E-09,  avg # of iterations =  4.7

     negative rho (up, down):  2.177E-04 2.177E-04

     total cpu time spent up to now is      248.7 secs

     total energy              =     -23.81178930 Ry
     estimated scf accuracy    <       0.00000032 Ry

     total magnetization       =    -0.00 Bohr mag/cell
     absolute magnetization    =     0.00 Bohr mag/cell

     iteration # 11     ecut=    60.00 Ry     beta= 0.70
     CG style diagonalization
     ethr =  1.17E-09,  avg # of iterations =  3.6

     negative rho (up, down):  2.177E-04 2.177E-04

     total cpu time spent up to now is      268.5 secs

     total energy              =     -23.81178931 Ry
     estimated scf accuracy    <       0.00000004 Ry

     total magnetization       =     0.00 Bohr mag/cell
     absolute magnetization    =     0.00 Bohr mag/cell

     iteration # 12     ecut=    60.00 Ry     beta= 0.70
     CG style diagonalization
     ethr =  5.05E-10,  avg # of iterations =  3.8

     negative rho (up, down):  2.176E-04 2.176E-04

     Magnetic moment per site:
     atom:    1    charge:    1.3389    magn:   -0.0000    constr:    0.0000
     atom:    2    charge:    0.4401    magn:    0.0000    constr:    0.0000
     atom:    3    charge:    0.4402    magn:    0.0000    constr:    0.0000
     atom:    4    charge:    0.4402    magn:    0.0000    constr:    0.0000

     total cpu time spent up to now is      286.3 secs

     End of self-consistent calculation

 ------ SPIN UP ------------


          k = 0.0000 0.0000 0.0000 (423701 PWs)   bands (ev):

   -32.0881 -22.4103 -22.4103 -17.3475 -11.7108 -11.0326 -10.9400 -10.9400

          k = 0.0000 0.2500 0.0000 (423725 PWs)   bands (ev):

   -32.0881 -22.4103 -22.4103 -17.3475 -11.7093 -11.0757 -10.9284 -10.9164

          k = 0.0000-0.5000 0.0000 (423542 PWs)   bands (ev):

   -32.0881 -22.4103 -22.4102 -17.3475 -11.7078 -11.1056 -10.9150 -10.8845

          k = 0.2500 0.0000 0.0000 (423725 PWs)   bands (ev):

   -32.0881 -22.4103 -22.4103 -17.3475 -11.7093 -11.0760 -10.9286 -10.9149

          k = 0.2500 0.2500 0.0000 (423766 PWs)   bands (ev):

   -32.0881 -22.4103 -22.4103 -17.3475 -11.7079 -11.0731 -11.0127 -10.8261

          k = 0.2500-0.5000 0.0000 (423782 PWs)   bands (ev):

   -32.0881 -22.4103 -22.4103 -17.3475 -11.7064 -11.0864 -11.0126 -10.8827

          k = 0.2500-0.2500 0.0000 (423766 PWs)   bands (ev):

   -32.0881 -22.4103 -22.4103 -17.3475 -11.7079 -11.0730 -11.0117 -10.8203

          k =-0.5000 0.0000 0.0000 (423542 PWs)   bands (ev):

   -32.0881 -22.4103 -22.4102 -17.3475 -11.7079 -11.1059 -10.9154 -10.7649

          k =-0.5000 0.2500 0.0000 (423782 PWs)   bands (ev):

   -32.0881 -22.4103 -22.4103 -17.3475 -11.7066 -11.0861 -11.0132 -10.8786

          k =-0.5000-0.5000 0.0000 (423708 PWs)   bands (ev):

   -32.0881 -22.4103 -22.4103 -17.3475 -11.7052 -11.0525 -11.0521 -10.9599

 ------ SPIN DOWN ----------


          k = 0.0000 0.0000 0.0000 (423701 PWs)   bands (ev):

   -32.0882 -22.4103 -22.4103 -17.3475 -11.7107 -11.0327 -10.9399 -10.9396

          k = 0.0000 0.2500 0.0000 (423725 PWs)   bands (ev):

   -32.0882 -22.4103 -22.4103 -17.3475 -11.7093 -11.0766 -10.9289 -10.9163

          k = 0.0000-0.5000 0.0000 (423542 PWs)   bands (ev):

   -32.0882 -22.4103 -22.4103 -17.3475 -11.7078 -11.1061 -10.9152 -10.7724

          k = 0.2500 0.0000 0.0000 (423725 PWs)   bands (ev):

   -32.0882 -22.4103 -22.4103 -17.3475 -11.7093 -11.0762 -10.9291 -10.9156

          k = 0.2500 0.2500 0.0000 (423766 PWs)   bands (ev):

   -32.0882 -22.4103 -22.4103 -17.3475 -11.7079 -11.0729 -11.0129 -10.8215

          k = 0.2500-0.5000 0.0000 (423782 PWs)   bands (ev):

   -32.0882 -22.4103 -22.4103 -17.3475 -11.7065 -11.0863 -11.0132 -10.8821

          k = 0.2500-0.2500 0.0000 (423766 PWs)   bands (ev):

   -32.0882 -22.4103 -22.4103 -17.3475 -11.7079 -11.0730 -11.0129 -10.8211

          k =-0.5000 0.0000 0.0000 (423542 PWs)   bands (ev):

   -32.0882 -22.4103 -22.4103 -17.3475 -11.7078 -11.1056 -10.9155 -10.7655

          k =-0.5000 0.2500 0.0000 (423782 PWs)   bands (ev):

   -32.0882 -22.4103 -22.4103 -17.3475 -11.7065 -11.0858 -11.0134 -10.8828

          k =-0.5000-0.5000 0.0000 (423708 PWs)   bands (ev):

   -32.0882 -22.4103 -22.4103 -17.3475 -11.7052 -11.0525 -11.0524 -10.9595

     the Fermi energy is   -15.9597 ev

!    total energy              =     -23.81178933 Ry
     estimated scf accuracy    <          2.1E-09 Ry
     smearing contrib. (-TS)   =       0.00000000 Ry
     internal energy E=F+TS    =     -23.81178933 Ry

     The total energy is F=E-TS. E is the sum of the following terms:
     one-electron contribution =     -66.54091433 Ry
     hartree contribution      =      31.06927252 Ry
     xc contribution           =      -7.59014171 Ry
     ewald contribution        =      12.70262662 Ry
     Dispersion Correction     =      -0.00036544 Ry
     electric field correction =       6.54773300 Ry

     total magnetization       =    -0.00 Bohr mag/cell
     absolute magnetization    =     0.00 Bohr mag/cell

     convergence has been achieved in  12 iterations

     negative rho (up, down):  2.176E-04 2.176E-04

     Forces acting on atoms (cartesian axes, Ry/au):

     atom    1 type  1   force =     0.00000026   -0.00000020    0.04473160
     atom    2 type  2   force =    -0.00000005   -0.00735538   -0.01491029
     atom    3 type  2   force =    -0.00636988    0.00367783   -0.01491061
     atom    4 type  2   force =     0.00636967    0.00367775   -0.01491070

     Total force =     0.028797     Total SCF correction =     0.000009

     BFGS Geometry Optimization
     Energy error            =      0.0E+00
     Gradient error          =      1.5E-02

     number of scf cycles    =   1
     number of bfgs steps    =   0

     energy   new            =     -23.8117893261 Ry

     new trust radius        =       0.0166261276 bohr
     new conv_thr            =       0.0000000100 Ry


ATOMIC_POSITIONS (angstrom)
N            10.0000000000       10.0000000000        0.0000000000    0   0   0
H            10.0000007922       10.9533336579       -0.3560946299
H            10.8256103941        9.5233366547       -0.3561009020
H             9.1743904607        9.5233364523       -0.3561025804



     Writing output data file ./NH3_ESM_VA16.save/
     NEW-OLD atomic charge density approx. for the potential

     negative rho (up, down):  2.173E-04 2.173E-04

     Adding external electric field
        E field amplitude [Ha a.u.]: -3.1525E-02
        Potential amp.       -2.1446 Ry
        Total length         34.0151 bohr

     Generating pointlists ...

     total cpu time spent up to now is      308.1 secs

     Self-consistent Calculation

     iteration #  1     ecut=    60.00 Ry     beta= 0.70
     CG style diagonalization
     ethr =  1.00E-06,  avg # of iterations =  3.3

     negative rho (up, down):  2.174E-04 2.174E-04

     total cpu time spent up to now is      326.8 secs

     total energy              =     -23.81266103 Ry
     estimated scf accuracy    <       0.00001532 Ry

     total magnetization       =     0.00 Bohr mag/cell
     absolute magnetization    =     0.00 Bohr mag/cell

     iteration #  2     ecut=    60.00 Ry     beta= 0.70
     CG style diagonalization
     ethr =  1.91E-07,  avg # of iterations =  3.5

     negative rho (up, down):  2.177E-04 2.177E-04

     total cpu time spent up to now is      345.4 secs

     total energy              =     -23.81266592 Ry
     estimated scf accuracy    <       0.00000133 Ry

     total magnetization       =     0.00 Bohr mag/cell
     absolute magnetization    =     0.00 Bohr mag/cell

     iteration #  3     ecut=    60.00 Ry     beta= 0.70
     CG style diagonalization
     ethr =  1.66E-08,  avg # of iterations =  3.5

     negative rho (up, down):  2.176E-04 2.176E-04

     total cpu time spent up to now is      364.3 secs

     total energy              =     -23.81266642 Ry
     estimated scf accuracy    <       0.00000072 Ry

     total magnetization       =    -0.00 Bohr mag/cell
     absolute magnetization    =     0.00 Bohr mag/cell

     iteration #  4     ecut=    60.00 Ry     beta= 0.70
     CG style diagonalization
     ethr =  8.94E-09,  avg # of iterations =  3.1

     negative rho (up, down):  2.176E-04 2.176E-04

     total cpu time spent up to now is      382.3 secs

     total energy              =     -23.81266653 Ry
     estimated scf accuracy    <       0.00000007 Ry

     total magnetization       =     0.00 Bohr mag/cell
     absolute magnetization    =     0.00 Bohr mag/cell

     iteration #  5     ecut=    60.00 Ry     beta= 0.70
     CG style diagonalization
     ethr =  8.96E-10,  avg # of iterations =  3.6

     negative rho (up, down):  2.176E-04 2.176E-04

     total cpu time spent up to now is      401.4 secs

     total energy              =     -23.81266656 Ry
     estimated scf accuracy    <       0.00000005 Ry

     total magnetization       =     0.00 Bohr mag/cell
     absolute magnetization    =     0.00 Bohr mag/cell

     iteration #  6     ecut=    60.00 Ry     beta= 0.70
     CG style diagonalization
     ethr =  5.72E-10,  avg # of iterations =  3.5

     negative rho (up, down):  2.176E-04 2.176E-04

     Magnetic moment per site:
     atom:    1    charge:    1.3393    magn:   -0.0000    constr:    0.0000
     atom:    2    charge:    0.4413    magn:    0.0000    constr:    0.0000
     atom:    3    charge:    0.4411    magn:    0.0000    constr:    0.0000
     atom:    4    charge:    0.4411    magn:    0.0000    constr:    0.0000

     total cpu time spent up to now is      418.4 secs

     End of self-consistent calculation

 ------ SPIN UP ------------


          k = 0.0000 0.0000 0.0000 (423701 PWs)   bands (ev):

   -32.1135 -22.3945 -22.3945 -17.3799 -11.7014 -11.0316 -10.9371 -10.9370

          k = 0.0000 0.2500 0.0000 (423725 PWs)   bands (ev):

   -32.1135 -22.3945 -22.3945 -17.3799 -11.6999 -11.0745 -10.9254 -10.9147

          k = 0.0000-0.5000 0.0000 (423542 PWs)   bands (ev):

   -32.1135 -22.3945 -22.3945 -17.3799 -11.6984 -11.1044 -10.9117 -10.8835

          k = 0.2500 0.0000 0.0000 (423725 PWs)   bands (ev):

   -32.1135 -22.3945 -22.3945 -17.3799 -11.6999 -11.0748 -10.9257 -10.9132

          k = 0.2500 0.2500 0.0000 (423766 PWs)   bands (ev):

   -32.1135 -22.3945 -22.3945 -17.3799 -11.6985 -11.0718 -11.0107 -10.8240

          k = 0.2500-0.5000 0.0000 (423782 PWs)   bands (ev):

   -32.1135 -22.3945 -22.3945 -17.3799 -11.6970 -11.0850 -11.0106 -10.8818

          k = 0.2500-0.2500 0.0000 (423766 PWs)   bands (ev):

   -32.1135 -22.3945 -22.3945 -17.3799 -11.6985 -11.0717 -11.0101 -10.8179

          k =-0.5000 0.0000 0.0000 (423542 PWs)   bands (ev):

   -32.1135 -22.3945 -22.3945 -17.3799 -11.6984 -11.1046 -10.9121 -10.7630

          k =-0.5000 0.2500 0.0000 (423782 PWs)   bands (ev):

   -32.1135 -22.3945 -22.3945 -17.3799 -11.6971 -11.0849 -11.0112 -10.8816

          k =-0.5000-0.5000 0.0000 (423708 PWs)   bands (ev):

   -32.1135 -22.3945 -22.3945 -17.3799 -11.6957 -11.0506 -11.0504 -10.9596

 ------ SPIN DOWN ----------


          k = 0.0000 0.0000 0.0000 (423701 PWs)   bands (ev):

   -32.1135 -22.3945 -22.3945 -17.3799 -11.7014 -11.0317 -10.9370 -10.9367

          k = 0.0000 0.2500 0.0000 (423725 PWs)   bands (ev):

   -32.1135 -22.3945 -22.3945 -17.3799 -11.6999 -11.0752 -10.9258 -10.9147

          k = 0.0000-0.5000 0.0000 (423542 PWs)   bands (ev):

   -32.1135 -22.3945 -22.3945 -17.3799 -11.6984 -11.1048 -10.9119 -10.8846

          k = 0.2500 0.0000 0.0000 (423725 PWs)   bands (ev):

   -32.1135 -22.3945 -22.3945 -17.3799 -11.6999 -11.0749 -10.9261 -10.9140

          k = 0.2500 0.2500 0.0000 (423766 PWs)   bands (ev):

   -32.1135 -22.3945 -22.3945 -17.3799 -11.6985 -11.0716 -11.0108 -10.8191

          k = 0.2500-0.5000 0.0000 (423782 PWs)   bands (ev):

   -32.1135 -22.3945 -22.3945 -17.3799 -11.6970 -11.0850 -11.0112 -10.8813

          k = 0.2500-0.2500 0.0000 (423766 PWs)   bands (ev):

   -32.1135 -22.3945 -22.3945 -17.3799 -11.6985 -11.0716 -11.0108 -10.8188

          k =-0.5000 0.0000 0.0000 (423542 PWs)   bands (ev):

   -32.1135 -22.3945 -22.3945 -17.3799 -11.6984 -11.1045 -10.9121 -10.7636

          k =-0.5000 0.2500 0.0000 (423782 PWs)   bands (ev):

   -32.1135 -22.3945 -22.3945 -17.3799 -11.6970 -11.0846 -11.0113 -10.8819

          k =-0.5000-0.5000 0.0000 (423708 PWs)   bands (ev):

   -32.1135 -22.3945 -22.3945 -17.3799 -11.6957 -11.0506 -11.0505 -10.9594

     the Fermi energy is   -15.9646 ev

!    total energy              =     -23.81266658 Ry
     estimated scf accuracy    <          2.8E-09 Ry
     smearing contrib. (-TS)   =       0.00000000 Ry
     internal energy E=F+TS    =     -23.81266658 Ry

     The total energy is F=E-TS. E is the sum of the following terms:
     one-electron contribution =     -66.57542575 Ry
     hartree contribution      =      31.08668062 Ry
     xc contribution           =      -7.59303521 Ry
     ewald contribution        =      12.72455213 Ry
     Dispersion Correction     =      -0.00035106 Ry
     electric field correction =       6.54491269 Ry

     total magnetization       =     0.00 Bohr mag/cell
     absolute magnetization    =     0.00 Bohr mag/cell

     convergence has been achieved in   6 iterations

     negative rho (up, down):  2.176E-04 2.176E-04

     Forces acting on atoms (cartesian axes, Ry/au):

     atom    1 type  1   force =    -0.00000023   -0.00000183    0.04385643
     atom    2 type  2   force =     0.00000004   -0.00469667   -0.01461837
     atom    3 type  2   force =    -0.00406798    0.00234922   -0.01461893
     atom    4 type  2   force =     0.00406817    0.00234928   -0.01461913

     Total force =     0.026596     Total SCF correction =     0.000027
     Energy error            =      8.8E-04
     Gradient error          =      1.5E-02

     number of scf cycles    =   2
     number of bfgs steps    =   1

     energy   old            =     -23.8117893261 Ry
     energy   new            =     -23.8126665792 Ry

     CASE: energy  _new < energy  _old


     WARNING: bfgs curvature condition failed, Theta= 0.876
     new trust radius        =       0.0182887403 bohr
     new conv_thr            =       0.0000000038 Ry


ATOMIC_POSITIONS (angstrom)
N            10.0000000000       10.0000000000        0.0000000000    0   0   0
H            10.0000007986       10.9499279680       -0.3651530235
H            10.8226607619        9.5250398992       -0.3651595960
H             9.1773401315        9.5250397093       -0.3651613741



     Writing output data file ./NH3_ESM_VA16.save/
     NEW-OLD atomic charge density approx. for the potential

     negative rho (up, down):  2.170E-04 2.170E-04

     Adding external electric field
        E field amplitude [Ha a.u.]: -3.1525E-02
        Potential amp.       -2.1446 Ry
        Total length         34.0151 bohr

     Generating pointlists ...

     total cpu time spent up to now is      439.6 secs

     Self-consistent Calculation

     iteration #  1     ecut=    60.00 Ry     beta= 0.70
     CG style diagonalization
     ethr =  1.00E-06,  avg # of iterations =  3.1

     negative rho (up, down):  2.171E-04 2.171E-04

     total cpu time spent up to now is      457.9 secs

     total energy              =     -23.81356075 Ry
     estimated scf accuracy    <       0.00001747 Ry

     total magnetization       =     0.00 Bohr mag/cell
     absolute magnetization    =     0.00 Bohr mag/cell

     iteration #  2     ecut=    60.00 Ry     beta= 0.70
     CG style diagonalization
     ethr =  2.18E-07,  avg # of iterations =  3.5

     negative rho (up, down):  2.174E-04 2.175E-04

     total cpu time spent up to now is      476.6 secs

     total energy              =     -23.81356801 Ry
     estimated scf accuracy    <       0.00000175 Ry

     total magnetization       =    -0.00 Bohr mag/cell
     absolute magnetization    =     0.00 Bohr mag/cell

     iteration #  3     ecut=    60.00 Ry     beta= 0.70
     CG style diagonalization
     ethr =  2.18E-08,  avg # of iterations =  3.4

     negative rho (up, down):  2.174E-04 2.174E-04

     total cpu time spent up to now is      495.1 secs

     total energy              =     -23.81356836 Ry
     estimated scf accuracy    <       0.00000058 Ry

     total magnetization       =    -0.00 Bohr mag/cell
     absolute magnetization    =     0.00 Bohr mag/cell

     iteration #  4     ecut=    60.00 Ry     beta= 0.70
     CG style diagonalization
     ethr =  7.26E-09,  avg # of iterations =  3.4

     negative rho (up, down):  2.174E-04 2.174E-04

     total cpu time spent up to now is      513.6 secs

     total energy              =     -23.81356850 Ry
     estimated scf accuracy    <          4.5E-09 Ry

     total magnetization       =    -0.00 Bohr mag/cell
     absolute magnetization    =     0.00 Bohr mag/cell

     iteration #  5     ecut=    60.00 Ry     beta= 0.70
     CG style diagonalization
     ethr =  5.61E-11,  avg # of iterations =  4.6

     negative rho (up, down):  2.174E-04 2.174E-04

     total cpu time spent up to now is      534.7 secs

     total energy              =     -23.81356852 Ry
     estimated scf accuracy    <          6.6E-09 Ry

     total magnetization       =    -0.00 Bohr mag/cell
     absolute magnetization    =     0.00 Bohr mag/cell

     iteration #  6     ecut=    60.00 Ry     beta= 0.70
     CG style diagonalization
     ethr =  5.61E-11,  avg # of iterations =  3.4

     negative rho (up, down):  2.174E-04 2.174E-04

     Magnetic moment per site:
     atom:    1    charge:    1.3391    magn:   -0.0000    constr:    0.0000
     atom:    2    charge:    0.4417    magn:    0.0000    constr:    0.0000
     atom:    3    charge:    0.4413    magn:    0.0000    constr:    0.0000
     atom:    4    charge:    0.4413    magn:    0.0000    constr:    0.0000

     total cpu time spent up to now is      551.6 secs

     End of self-consistent calculation

 ------ SPIN UP ------------


          k = 0.0000 0.0000 0.0000 (423701 PWs)   bands (ev):

   -32.1301 -22.3680 -22.3680 -17.4142 -11.6931 -11.0307 -10.9339 -10.9338

          k = 0.0000 0.2500 0.0000 (423725 PWs)   bands (ev):

   -32.1301 -22.3680 -22.3680 -17.4142 -11.6916 -11.0732 -10.9221 -10.9129

          k = 0.0000-0.5000 0.0000 (423542 PWs)   bands (ev):

   -32.1301 -22.3680 -22.3680 -17.4142 -11.6900 -11.1030 -10.9081 -10.8826

          k = 0.2500 0.0000 0.0000 (423725 PWs)   bands (ev):

   -32.1301 -22.3680 -22.3680 -17.4142 -11.6916 -11.0735 -10.9225 -10.9114

          k = 0.2500 0.2500 0.0000 (423766 PWs)   bands (ev):

   -32.1301 -22.3680 -22.3680 -17.4142 -11.6901 -11.0704 -11.0085 -10.8216

          k = 0.2500-0.5000 0.0000 (423782 PWs)   bands (ev):

   -32.1301 -22.3680 -22.3680 -17.4142 -11.6886 -11.0836 -11.0085 -10.8808

          k = 0.2500-0.2500 0.0000 (423766 PWs)   bands (ev):

   -32.1301 -22.3680 -22.3680 -17.4142 -11.6901 -11.0703 -11.0079 -10.8153

          k =-0.5000 0.0000 0.0000 (423542 PWs)   bands (ev):

   -32.1301 -22.3680 -22.3680 -17.4142 -11.6900 -11.1033 -10.9085 -10.7610

          k =-0.5000 0.2500 0.0000 (423782 PWs)   bands (ev):

   -32.1301 -22.3680 -22.3680 -17.4142 -11.6886 -11.0834 -11.0090 -10.8806

          k =-0.5000-0.5000 0.0000 (423708 PWs)   bands (ev):

   -32.1301 -22.3680 -22.3680 -17.4142 -11.6872 -11.0486 -11.0484 -10.9593

 ------ SPIN DOWN ----------


          k = 0.0000 0.0000 0.0000 (423701 PWs)   bands (ev):

   -32.1301 -22.3680 -22.3680 -17.4142 -11.6931 -11.0307 -10.9338 -10.9336

          k = 0.0000 0.2500 0.0000 (423725 PWs)   bands (ev):

   -32.1301 -22.3680 -22.3680 -17.4142 -11.6916 -11.0738 -10.9225 -10.9131

          k = 0.0000-0.5000 0.0000 (423542 PWs)   bands (ev):

   -32.1301 -22.3680 -22.3680 -17.4142 -11.6900 -11.1034 -10.9082 -10.8837

          k = 0.2500 0.0000 0.0000 (423725 PWs)   bands (ev):

   -32.1301 -22.3680 -22.3680 -17.4142 -11.6916 -11.0736 -10.9229 -10.9122

          k = 0.2500 0.2500 0.0000 (423766 PWs)   bands (ev):

   -32.1301 -22.3680 -22.3680 -17.4142 -11.6901 -11.0703 -11.0086 -10.8165

          k = 0.2500-0.5000 0.0000 (423782 PWs)   bands (ev):

   -32.1301 -22.3680 -22.3680 -17.4142 -11.6886 -11.0835 -11.0090 -10.8804

          k = 0.2500-0.2500 0.0000 (423766 PWs)   bands (ev):

   -32.1301 -22.3680 -22.3680 -17.4142 -11.6901 -11.0703 -11.0086 -10.8163

          k =-0.5000 0.0000 0.0000 (423542 PWs)   bands (ev):

   -32.1301 -22.3680 -22.3680 -17.4142 -11.6899 -11.1032 -10.9085 -10.7616

          k =-0.5000 0.2500 0.0000 (423782 PWs)   bands (ev):

   -32.1301 -22.3680 -22.3680 -17.4142 -11.6886 -11.0832 -11.0091 -10.8809

          k =-0.5000-0.5000 0.0000 (423708 PWs)   bands (ev):

   -32.1301 -22.3680 -22.3680 -17.4142 -11.6872 -11.0486 -11.0485 -10.9591

     the Fermi energy is   -15.9672 ev

!    total energy              =     -23.81356852 Ry
     estimated scf accuracy    <          2.0E-10 Ry
     smearing contrib. (-TS)   =       0.00000000 Ry
     internal energy E=F+TS    =     -23.81356852 Ry

     The total energy is F=E-TS. E is the sum of the following terms:
     one-electron contribution =     -66.58349147 Ry
     hartree contribution      =      31.09111461 Ry
     xc contribution           =      -7.59357228 Ry
     ewald contribution        =      12.73104478 Ry
     Dispersion Correction     =      -0.00033895 Ry
     electric field correction =       6.54167479 Ry

     total magnetization       =    -0.00 Bohr mag/cell
     absolute magnetization    =     0.00 Bohr mag/cell

     convergence has been achieved in   6 iterations

     negative rho (up, down):  2.174E-04 2.174E-04

     Forces acting on atoms (cartesian axes, Ry/au):

     atom    1 type  1   force =     0.00000010    0.00000012    0.04133456
     atom    2 type  2   force =    -0.00000010   -0.00332910   -0.01377795
     atom    3 type  2   force =    -0.00288319    0.00166443   -0.01377829
     atom    4 type  2   force =     0.00288319    0.00166455   -0.01377832

     Total force =     0.024551     Total SCF correction =     0.000005
     Energy error            =      9.0E-04
     Gradient error          =      1.4E-02

     number of scf cycles    =   3
     number of bfgs steps    =   2

     energy   old            =     -23.8126665792 Ry
     energy   new            =     -23.8135685231 Ry

     CASE: energy  _new < energy  _old

     new trust radius        =       0.0274331105 bohr
     new conv_thr            =       0.0000000035 Ry


ATOMIC_POSITIONS (angstrom)
N            10.0000000000       10.0000000000        0.0000000000    0   0   0
H            10.0000006872       10.9455311795       -0.3789879114
H            10.8188530666        9.5272380846       -0.3789947706
H             9.1811477255        9.5272379544       -0.3789965664



     Writing output data file ./NH3_ESM_VA16.save/
     NEW-OLD atomic charge density approx. for the potential

     negative rho (up, down):  2.163E-04 2.163E-04

     Adding external electric field
        E field amplitude [Ha a.u.]: -3.1525E-02
        Potential amp.       -2.1446 Ry
        Total length         34.0151 bohr

     Generating pointlists ...

     total cpu time spent up to now is      572.9 secs

     Self-consistent Calculation

     iteration #  1     ecut=    60.00 Ry     beta= 0.70
     CG style diagonalization
     ethr =  1.00E-06,  avg # of iterations =  3.6

     negative rho (up, down):  2.163E-04 2.163E-04

     total cpu time spent up to now is      592.2 secs

     total energy              =     -23.81478175 Ry
     estimated scf accuracy    <       0.00004251 Ry

     total magnetization       =     0.00 Bohr mag/cell
     absolute magnetization    =     0.00 Bohr mag/cell

     iteration #  2     ecut=    60.00 Ry     beta= 0.70
     CG style diagonalization
     ethr =  5.31E-07,  avg # of iterations =  3.3

     negative rho (up, down):  2.169E-04 2.169E-04

     total cpu time spent up to now is      610.4 secs

     total energy              =     -23.81479596 Ry
     estimated scf accuracy    <       0.00000442 Ry

     total magnetization       =     0.00 Bohr mag/cell
     absolute magnetization    =     0.00 Bohr mag/cell

     iteration #  3     ecut=    60.00 Ry     beta= 0.70
     CG style diagonalization
     ethr =  5.53E-08,  avg # of iterations =  3.4

     negative rho (up, down):  2.169E-04 2.169E-04

     total cpu time spent up to now is      628.9 secs

     total energy              =     -23.81479677 Ry
     estimated scf accuracy    <       0.00000086 Ry

     total magnetization       =    -0.00 Bohr mag/cell
     absolute magnetization    =     0.00 Bohr mag/cell

     iteration #  4     ecut=    60.00 Ry     beta= 0.70
     CG style diagonalization
     ethr =  1.07E-08,  avg # of iterations =  3.5

     negative rho (up, down):  2.170E-04 2.170E-04

     total cpu time spent up to now is      647.7 secs

     total energy              =     -23.81479703 Ry
     estimated scf accuracy    <       0.00000005 Ry

     total magnetization       =    -0.00 Bohr mag/cell
     absolute magnetization    =     0.00 Bohr mag/cell

     iteration #  5     ecut=    60.00 Ry     beta= 0.70
     CG style diagonalization
     ethr =  6.45E-10,  avg # of iterations =  3.5

     negative rho (up, down):  2.169E-04 2.169E-04

     Magnetic moment per site:
     atom:    1    charge:    1.3382    magn:   -0.0000    constr:    0.0000
     atom:    2    charge:    0.4412    magn:    0.0000    constr:    0.0000
     atom:    3    charge:    0.4410    magn:    0.0000    constr:    0.0000
     atom:    4    charge:    0.4410    magn:    0.0000    constr:    0.0000

     total cpu time spent up to now is      664.8 secs

     End of self-consistent calculation

 ------ SPIN UP ------------


          k = 0.0000 0.0000 0.0000 (423701 PWs)   bands (ev):

   -32.1460 -22.3205 -22.3205 -17.4658 -11.6826 -11.0294 -10.9293 -10.9292

          k = 0.0000 0.2500 0.0000 (423725 PWs)   bands (ev):

   -32.1460 -22.3205 -22.3205 -17.4658 -11.6810 -11.0712 -10.9172 -10.9104

          k = 0.0000-0.5000 0.0000 (423542 PWs)   bands (ev):

   -32.1460 -22.3205 -22.3205 -17.4658 -11.6794 -11.1009 -10.9028 -10.8813

          k = 0.2500 0.0000 0.0000 (423725 PWs)   bands (ev):

   -32.1460 -22.3205 -22.3205 -17.4658 -11.6810 -11.0715 -10.9179 -10.9088

          k = 0.2500 0.2500 0.0000 (423766 PWs)   bands (ev):

   -32.1460 -22.3205 -22.3205 -17.4658 -11.6795 -11.0684 -11.0052 -10.8180

          k = 0.2500-0.5000 0.0000 (423782 PWs)   bands (ev):

   -32.1460 -22.3205 -22.3205 -17.4658 -11.6779 -11.0813 -11.0054 -10.8793

          k = 0.2500-0.2500 0.0000 (423766 PWs)   bands (ev):

   -32.1460 -22.3205 -22.3205 -17.4658 -11.6795 -11.0683 -11.0047 -10.8135

          k =-0.5000 0.0000 0.0000 (423542 PWs)   bands (ev):

   -32.1460 -22.3205 -22.3205 -17.4658 -11.6793 -11.1013 -10.9032 -10.7580

          k =-0.5000 0.2500 0.0000 (423782 PWs)   bands (ev):

   -32.1460 -22.3205 -22.3205 -17.4658 -11.6779 -11.0812 -11.0058 -10.8792

          k =-0.5000-0.5000 0.0000 (423708 PWs)   bands (ev):

   -32.1460 -22.3205 -22.3205 -17.4658 -11.6764 -11.0456 -11.0455 -10.9587

 ------ SPIN DOWN ----------


          k = 0.0000 0.0000 0.0000 (423701 PWs)   bands (ev):

   -32.1460 -22.3205 -22.3205 -17.4658 -11.6826 -11.0295 -10.9291 -10.9290

          k = 0.0000 0.2500 0.0000 (423725 PWs)   bands (ev):

   -32.1460 -22.3205 -22.3205 -17.4658 -11.6810 -11.0718 -10.9176 -10.9107

          k = 0.0000-0.5000 0.0000 (423542 PWs)   bands (ev):

   -32.1460 -22.3205 -22.3205 -17.4658 -11.6794 -11.1013 -10.9029 -10.8824

          k = 0.2500 0.0000 0.0000 (423725 PWs)   bands (ev):

   -32.1460 -22.3205 -22.3205 -17.4658 -11.6810 -11.0716 -10.9182 -10.9096

          k = 0.2500 0.2500 0.0000 (423766 PWs)   bands (ev):

   -32.1460 -22.3205 -22.3205 -17.4658 -11.6795 -11.0683 -11.0053 -10.8126

          k = 0.2500-0.5000 0.0000 (423782 PWs)   bands (ev):

   -32.1460 -22.3205 -22.3205 -17.4658 -11.6779 -11.0813 -11.0058 -10.8790

          k = 0.2500-0.2500 0.0000 (423766 PWs)   bands (ev):

   -32.1460 -22.3205 -22.3205 -17.4658 -11.6795 -11.0683 -11.0053 -10.8127

          k =-0.5000 0.0000 0.0000 (423542 PWs)   bands (ev):

   -32.1460 -22.3205 -22.3205 -17.4658 -11.6793 -11.1012 -10.9032 -10.7587

          k =-0.5000 0.2500 0.0000 (423782 PWs)   bands (ev):

   -32.1460 -22.3205 -22.3205 -17.4658 -11.6779 -11.0811 -11.0059 -10.8795

          k =-0.5000-0.5000 0.0000 (423708 PWs)   bands (ev):

   -32.1460 -22.3205 -22.3205 -17.4658 -11.6764 -11.0457 -11.0456 -10.9586

     the Fermi energy is   -15.9689 ev

!    total energy              =     -23.81479708 Ry
     estimated scf accuracy    <          1.6E-09 Ry
     smearing contrib. (-TS)   =       0.00000000 Ry
     internal energy E=F+TS    =     -23.81479708 Ry

     The total energy is F=E-TS. E is the sum of the following terms:
     one-electron contribution =     -66.56963450 Ry
     hartree contribution      =      31.08529421 Ry
     xc contribution           =      -7.59211515 Ry
     ewald contribution        =      12.72525274 Ry
     Dispersion Correction     =      -0.00032396 Ry
     electric field correction =       6.53672959 Ry

     total magnetization       =     0.00 Bohr mag/cell
     absolute magnetization    =     0.00 Bohr mag/cell

     convergence has been achieved in   5 iterations

     negative rho (up, down):  2.169E-04 2.169E-04

     Forces acting on atoms (cartesian axes, Ry/au):

     atom    1 type  1   force =    -0.00000006   -0.00000050    0.03594593
     atom    2 type  2   force =    -0.00000007   -0.00262563   -0.01198195
     atom    3 type  2   force =    -0.00227435    0.00131298   -0.01198201
     atom    4 type  2   force =     0.00227448    0.00131314   -0.01198197

     Total force =     0.021246     Total SCF correction =     0.000008
     Energy error            =      1.2E-03
     Gradient error          =      1.2E-02

     number of scf cycles    =   4
     number of bfgs steps    =   3

     energy   old            =     -23.8135685231 Ry
     energy   new            =     -23.8147970786 Ry

     CASE: energy  _new < energy  _old

     new trust radius        =       0.0411496658 bohr
     new conv_thr            =       0.0000000031 Ry


ATOMIC_POSITIONS (angstrom)
N            10.0000000000       10.0000000000        0.0000000000    0   0   0
H            10.0000005409       10.9391285290       -0.3998005271
H            10.8133078991        9.5304393489       -0.3998076011
H             9.1866928569        9.5304393507       -0.3998093686



     Writing output data file ./NH3_ESM_VA16.save/
     NEW-OLD atomic charge density approx. for the potential

     negative rho (up, down):  2.152E-04 2.152E-04

     Adding external electric field
        E field amplitude [Ha a.u.]: -3.1525E-02
        Potential amp.       -2.1446 Ry
        Total length         34.0151 bohr

     Generating pointlists ...

     total cpu time spent up to now is      685.8 secs

     Self-consistent Calculation

     iteration #  1     ecut=    60.00 Ry     beta= 0.70
     CG style diagonalization
     ethr =  1.00E-06,  avg # of iterations =  4.4

     negative rho (up, down):  2.151E-04 2.151E-04

     total cpu time spent up to now is      706.7 secs

     total energy              =     -23.81631056 Ry
     estimated scf accuracy    <       0.00009829 Ry

     total magnetization       =     0.00 Bohr mag/cell
     absolute magnetization    =     0.00 Bohr mag/cell

     iteration #  2     ecut=    60.00 Ry     beta= 0.70
     CG style diagonalization
     ethr =  1.23E-06,  avg # of iterations =  3.1

     negative rho (up, down):  2.161E-04 2.161E-04

     total cpu time spent up to now is      724.7 secs

     total energy              =     -23.81631974 Ry
     estimated scf accuracy    <       0.00001496 Ry

     total magnetization       =     0.00 Bohr mag/cell
     absolute magnetization    =     0.00 Bohr mag/cell

     iteration #  3     ecut=    60.00 Ry     beta= 0.70
     CG style diagonalization
     ethr =  1.87E-07,  avg # of iterations =  3.5

     negative rho (up, down):  2.161E-04 2.161E-04

     total cpu time spent up to now is      743.4 secs

     total energy              =     -23.81632432 Ry
     estimated scf accuracy    <       0.00000208 Ry

     total magnetization       =     0.00 Bohr mag/cell
     absolute magnetization    =     0.00 Bohr mag/cell

     iteration #  4     ecut=    60.00 Ry     beta= 0.70
     CG style diagonalization
     ethr =  2.60E-08,  avg # of iterations =  3.1

     negative rho (up, down):  2.162E-04 2.161E-04

     total cpu time spent up to now is      761.5 secs

     total energy              =     -23.81632455 Ry
     estimated scf accuracy    <       0.00000003 Ry

     total magnetization       =    -0.00 Bohr mag/cell
     absolute magnetization    =     0.00 Bohr mag/cell

     iteration #  5     ecut=    60.00 Ry     beta= 0.70
     CG style diagonalization
     ethr =  3.66E-10,  avg # of iterations =  4.9

     negative rho (up, down):  2.162E-04 2.162E-04

     total cpu time spent up to now is      783.1 secs

     total energy              =     -23.81632468 Ry
     estimated scf accuracy    <       0.00000011 Ry

     total magnetization       =    -0.00 Bohr mag/cell
     absolute magnetization    =     0.00 Bohr mag/cell

     iteration #  6     ecut=    60.00 Ry     beta= 0.70
     CG style diagonalization
     ethr =  3.66E-10,  avg # of iterations =  3.0

     negative rho (up, down):  2.162E-04 2.162E-04

     total cpu time spent up to now is      801.0 secs

     total energy              =     -23.81632466 Ry
     estimated scf accuracy    <       0.00000011 Ry

     total magnetization       =     0.00 Bohr mag/cell
     absolute magnetization    =     0.00 Bohr mag/cell

     iteration #  7     ecut=    60.00 Ry     beta= 0.70
     CG style diagonalization
     ethr =  3.66E-10,  avg # of iterations =  3.0

     negative rho (up, down):  2.162E-04 2.162E-04

     total cpu time spent up to now is      819.1 secs

     total energy              =     -23.81632463 Ry
     estimated scf accuracy    <       0.00000007 Ry

     total magnetization       =    -0.00 Bohr mag/cell
     absolute magnetization    =     0.00 Bohr mag/cell

     iteration #  8     ecut=    60.00 Ry     beta= 0.70
     CG style diagonalization
     ethr =  3.66E-10,  avg # of iterations =  4.6

     negative rho (up, down):  2.162E-04 2.162E-04

     total cpu time spent up to now is      840.6 secs

     total energy              =     -23.81632467 Ry
     estimated scf accuracy    <       0.00000009 Ry

     total magnetization       =     0.00 Bohr mag/cell
     absolute magnetization    =     0.00 Bohr mag/cell

     iteration #  9     ecut=    60.00 Ry     beta= 0.70
     CG style diagonalization
     ethr =  3.66E-10,  avg # of iterations =  3.0

     negative rho (up, down):  2.162E-04 2.162E-04

     total cpu time spent up to now is      858.9 secs

     total energy              =     -23.81632467 Ry
     estimated scf accuracy    <       0.00000005 Ry

     total magnetization       =    -0.00 Bohr mag/cell
     absolute magnetization    =     0.00 Bohr mag/cell

     iteration # 10     ecut=    60.00 Ry     beta= 0.70
     CG style diagonalization
     ethr =  3.66E-10,  avg # of iterations =  3.0

     negative rho (up, down):  2.162E-04 2.162E-04

     total cpu time spent up to now is      877.3 secs

     total energy              =     -23.81632467 Ry
     estimated scf accuracy    <       0.00000004 Ry

     total magnetization       =     0.00 Bohr mag/cell
     absolute magnetization    =     0.00 Bohr mag/cell

     iteration # 11     ecut=    60.00 Ry     beta= 0.70
     CG style diagonalization
     ethr =  3.66E-10,  avg # of iterations =  3.0

     negative rho (up, down):  2.162E-04 2.161E-04

     total cpu time spent up to now is      895.8 secs

     total energy              =     -23.81632468 Ry
     estimated scf accuracy    <       0.00000004 Ry

     total magnetization       =     0.00 Bohr mag/cell
     absolute magnetization    =     0.00 Bohr mag/cell

     iteration # 12     ecut=    60.00 Ry     beta= 0.70
     CG style diagonalization
     ethr =  3.66E-10,  avg # of iterations =  3.0

     negative rho (up, down):  2.162E-04 2.162E-04

     total cpu time spent up to now is      914.4 secs

     total energy              =     -23.81632464 Ry
     estimated scf accuracy    <       0.00000007 Ry

     total magnetization       =    -0.00 Bohr mag/cell
     absolute magnetization    =     0.00 Bohr mag/cell

     iteration # 13     ecut=    60.00 Ry     beta= 0.70
     CG style diagonalization
     ethr =  3.66E-10,  avg # of iterations =  3.9

     negative rho (up, down):  2.162E-04 2.162E-04

     total cpu time spent up to now is      934.6 secs

     total energy              =     -23.81632465 Ry
     estimated scf accuracy    <          9.7E-09 Ry

     total magnetization       =     0.00 Bohr mag/cell
     absolute magnetization    =     0.00 Bohr mag/cell

     iteration # 14     ecut=    60.00 Ry     beta= 0.70
     CG style diagonalization
     ethr =  1.21E-10,  avg # of iterations =  3.4

     negative rho (up, down):  2.162E-04 2.162E-04

     total cpu time spent up to now is      953.9 secs

     total energy              =     -23.81632465 Ry
     estimated scf accuracy    <          8.4E-09 Ry

     total magnetization       =     0.00 Bohr mag/cell
     absolute magnetization    =     0.00 Bohr mag/cell

     iteration # 15     ecut=    60.00 Ry     beta= 0.70
     CG style diagonalization
     ethr =  1.05E-10,  avg # of iterations =  3.0

     negative rho (up, down):  2.162E-04 2.162E-04

     total cpu time spent up to now is      972.4 secs

     total energy              =     -23.81632465 Ry
     estimated scf accuracy    <          4.2E-09 Ry

     total magnetization       =    -0.00 Bohr mag/cell
     absolute magnetization    =     0.00 Bohr mag/cell

     iteration # 16     ecut=    60.00 Ry     beta= 0.70
     CG style diagonalization
     ethr =  5.28E-11,  avg # of iterations =  3.4

     negative rho (up, down):  2.161E-04 2.161E-04

     Magnetic moment per site:
     atom:    1    charge:    1.3365    magn:    0.0000    constr:    0.0000
     atom:    2    charge:    0.4399    magn:    0.0000    constr:    0.0000
     atom:    3    charge:    0.4399    magn:    0.0000    constr:    0.0000
     atom:    4    charge:    0.4399    magn:    0.0000    constr:    0.0000

     total cpu time spent up to now is      989.1 secs

     End of self-consistent calculation

 ------ SPIN UP ------------


          k = 0.0000 0.0000 0.0000 (423701 PWs)   bands (ev):

   -32.1652 -22.2431 -22.2431 -17.5450 -11.6682 -11.0277 -10.9226 -10.9226

          k = 0.0000 0.2500 0.0000 (423725 PWs)   bands (ev):

   -32.1652 -22.2431 -22.2431 -17.5450 -11.6665 -11.0686 -10.9103 -10.9070

          k = 0.0000-0.5000 0.0000 (423542 PWs)   bands (ev):

   -32.1652 -22.2431 -22.2431 -17.5450 -11.6647 -11.0981 -10.8951 -10.8797

          k = 0.2500 0.0000 0.0000 (423725 PWs)   bands (ev):

   -32.1652 -22.2431 -22.2431 -17.5450 -11.6665 -11.0688 -10.9120 -10.9050

          k = 0.2500 0.2500 0.0000 (423766 PWs)   bands (ev):

   -32.1652 -22.2431 -22.2431 -17.5450 -11.6649 -11.0654 -11.0006 -10.8130

          k = 0.2500-0.5000 0.0000 (423782 PWs)   bands (ev):

   -32.1652 -22.2431 -22.2431 -17.5450 -11.6632 -11.0782 -11.0011 -10.8772

          k = 0.2500-0.2500 0.0000 (423766 PWs)   bands (ev):

   -32.1652 -22.2431 -22.2431 -17.5450 -11.6649 -11.0654 -11.0003 -10.8084

          k =-0.5000 0.0000 0.0000 (423542 PWs)   bands (ev):

   -32.1652 -22.2431 -22.2431 -17.5450 -11.6647 -11.0984 -10.8955 -10.7539

          k =-0.5000 0.2500 0.0000 (423782 PWs)   bands (ev):

   -32.1652 -22.2431 -22.2431 -17.5450 -11.6632 -11.0782 -11.0013 -10.8772

          k =-0.5000-0.5000 0.0000 (423708 PWs)   bands (ev):

   -32.1652 -22.2431 -22.2431 -17.5450 -11.6616 -11.0415 -11.0414 -10.9579

 ------ SPIN DOWN ----------


          k = 0.0000 0.0000 0.0000 (423701 PWs)   bands (ev):

   -32.1652 -22.2431 -22.2431 -17.5450 -11.6682 -11.0277 -10.9228 -10.9225

          k = 0.0000 0.2500 0.0000 (423725 PWs)   bands (ev):

   -32.1652 -22.2431 -22.2431 -17.5450 -11.6665 -11.0689 -10.9105 -10.9073

          k = 0.0000-0.5000 0.0000 (423542 PWs)   bands (ev):

   -32.1652 -22.2431 -22.2431 -17.5450 -11.6647 -11.0984 -10.8952 -10.8807

          k = 0.2500 0.0000 0.0000 (423725 PWs)   bands (ev):

   -32.1652 -22.2431 -22.2431 -17.5450 -11.6665 -11.0688 -10.9119 -10.9055

          k = 0.2500 0.2500 0.0000 (423766 PWs)   bands (ev):

   -32.1652 -22.2431 -22.2431 -17.5450 -11.6649 -11.0654 -11.0007 -10.8090

          k = 0.2500-0.5000 0.0000 (423782 PWs)   bands (ev):

   -32.1652 -22.2431 -22.2431 -17.5450 -11.6632 -11.0782 -11.0014 -10.8770

          k = 0.2500-0.2500 0.0000 (423766 PWs)   bands (ev):

   -32.1652 -22.2431 -22.2431 -17.5450 -11.6648 -11.0654 -11.0007 -10.8097

          k =-0.5000 0.0000 0.0000 (423542 PWs)   bands (ev):

   -32.1652 -22.2431 -22.2431 -17.5450 -11.6647 -11.0984 -10.8955 -10.7547

          k =-0.5000 0.2500 0.0000 (423782 PWs)   bands (ev):

   -32.1652 -22.2431 -22.2431 -17.5450 -11.6632 -11.0781 -11.0014 -10.8773

          k =-0.5000-0.5000 0.0000 (423708 PWs)   bands (ev):

   -32.1652 -22.2431 -22.2431 -17.5450 -11.6616 -11.0415 -11.0414 -10.9579

     the Fermi energy is   -15.9707 ev

!    total energy              =     -23.81632465 Ry
     estimated scf accuracy    <          9.8E-10 Ry
     smearing contrib. (-TS)   =       0.00000000 Ry
     internal energy E=F+TS    =     -23.81632465 Ry

     The total energy is F=E-TS. E is the sum of the following terms:
     one-electron contribution =     -66.53327304 Ry
     hartree contribution      =      31.06900547 Ry
     xc contribution           =      -7.58849085 Ry
     ewald contribution        =      12.70744679 Ry
     Dispersion Correction     =      -0.00030333 Ry
     electric field correction =       6.52929030 Ry

     total magnetization       =     0.00 Bohr mag/cell
     absolute magnetization    =     0.00 Bohr mag/cell

     convergence has been achieved in  16 iterations

     negative rho (up, down):  2.161E-04 2.161E-04

     Forces acting on atoms (cartesian axes, Ry/au):

     atom    1 type  1   force =    -0.00000010   -0.00000074    0.02638783
     atom    2 type  2   force =    -0.00000002   -0.00220017   -0.00879593
     atom    3 type  2   force =    -0.00190586    0.00110041   -0.00879598
     atom    4 type  2   force =     0.00190598    0.00110050   -0.00879592

     Total force =     0.015705     Total SCF correction =     0.000013
     Energy error            =      1.5E-03
     Gradient error          =      8.8E-03

     number of scf cycles    =   5
     number of bfgs steps    =   4

     energy   old            =     -23.8147970786 Ry
     energy   new            =     -23.8163246512 Ry

     CASE: energy  _new < energy  _old

     new trust radius        =       0.0617244987 bohr
     new conv_thr            =       0.0000000023 Ry


ATOMIC_POSITIONS (angstrom)
N            10.0000000000       10.0000000000        0.0000000000    0   0   0
H            10.0000003512       10.9292961244       -0.4309481942
H            10.8047922141        9.5353556714       -0.4309555928
H             9.1952085149        9.5353558539       -0.4309572818



     Writing output data file ./NH3_ESM_VA16.save/
     NEW-OLD atomic charge density approx. for the potential

     negative rho (up, down):  2.134E-04 2.134E-04

     Adding external electric field
        E field amplitude [Ha a.u.]: -3.1525E-02
        Potential amp.       -2.1446 Ry
        Total length         34.0151 bohr

     Generating pointlists ...

     total cpu time spent up to now is     1011.9 secs

     Self-consistent Calculation

     iteration #  1     ecut=    60.00 Ry     beta= 0.70
     CG style diagonalization
     ethr =  1.00E-06,  avg # of iterations =  5.1

     negative rho (up, down):  2.128E-04 2.128E-04

     total cpu time spent up to now is     1034.1 secs

     total energy              =     -23.81777696 Ry
     estimated scf accuracy    <       0.00023857 Ry

     total magnetization       =     0.00 Bohr mag/cell
     absolute magnetization    =     0.00 Bohr mag/cell

     iteration #  2     ecut=    60.00 Ry     beta= 0.70
     CG style diagonalization
     ethr =  2.98E-06,  avg # of iterations =  3.4

     negative rho (up, down):  2.147E-04 2.147E-04

     total cpu time spent up to now is     1052.5 secs

     total energy              =     -23.81779539 Ry
     estimated scf accuracy    <       0.00005635 Ry

     total magnetization       =    -0.00 Bohr mag/cell
     absolute magnetization    =     0.00 Bohr mag/cell

     iteration #  3     ecut=    60.00 Ry     beta= 0.70
     CG style diagonalization
     ethr =  7.04E-07,  avg # of iterations =  3.5

     negative rho (up, down):  2.147E-04 2.147E-04

     total cpu time spent up to now is     1071.3 secs

     total energy              =     -23.81781682 Ry
     estimated scf accuracy    <       0.00000808 Ry

     total magnetization       =    -0.00 Bohr mag/cell
     absolute magnetization    =     0.00 Bohr mag/cell

     iteration #  4     ecut=    60.00 Ry     beta= 0.70
     CG style diagonalization
     ethr =  1.01E-07,  avg # of iterations =  3.4

     negative rho (up, down):  2.148E-04 2.148E-04

     total cpu time spent up to now is     1089.9 secs

     total energy              =     -23.81781774 Ry
     estimated scf accuracy    <       0.00000019 Ry

     total magnetization       =     0.00 Bohr mag/cell
     absolute magnetization    =     0.00 Bohr mag/cell

     iteration #  5     ecut=    60.00 Ry     beta= 0.70
     CG style diagonalization
     ethr =  2.35E-09,  avg # of iterations =  3.9

     negative rho (up, down):  2.148E-04 2.148E-04

     total cpu time spent up to now is     1109.5 secs

     total energy              =     -23.81781792 Ry
     estimated scf accuracy    <       0.00000001 Ry

     total magnetization       =     0.00 Bohr mag/cell
     absolute magnetization    =     0.00 Bohr mag/cell

     iteration #  6     ecut=    60.00 Ry     beta= 0.70
     CG style diagonalization
     ethr =  1.71E-10,  avg # of iterations =  4.1

     negative rho (up, down):  2.148E-04 2.148E-04

     total cpu time spent up to now is     1129.8 secs

     total energy              =     -23.81781793 Ry
     estimated scf accuracy    <       0.00000002 Ry

     total magnetization       =    -0.00 Bohr mag/cell
     absolute magnetization    =     0.00 Bohr mag/cell

     iteration #  7     ecut=    60.00 Ry     beta= 0.70
     CG style diagonalization
     ethr =  1.71E-10,  avg # of iterations =  3.5

     negative rho (up, down):  2.148E-04 2.148E-04

     Magnetic moment per site:
     atom:    1    charge:    1.3337    magn:   -0.0000    constr:    0.0000
     atom:    2    charge:    0.4376    magn:   -0.0000    constr:    0.0000
     atom:    3    charge:    0.4379    magn:    0.0000    constr:    0.0000
     atom:    4    charge:    0.4379    magn:   -0.0000    constr:    0.0000

     total cpu time spent up to now is     1146.8 secs

     End of self-consistent calculation

 ------ SPIN UP ------------


          k = 0.0000 0.0000 0.0000 (423701 PWs)   bands (ev):

   -32.1914 -22.1187 -22.1187 -17.6696 -11.6486 -11.0252 -10.9133 -10.9132

          k = 0.0000 0.2500 0.0000 (423725 PWs)   bands (ev):

   -32.1914 -22.1187 -22.1187 -17.6696 -11.6467 -11.0646 -10.9020 -10.9002

          k = 0.0000-0.5000 0.0000 (423542 PWs)   bands (ev):

   -32.1914 -22.1187 -22.1187 -17.6696 -11.6448 -11.0942 -10.8841 -10.8770

          k = 0.2500 0.0000 0.0000 (423725 PWs)   bands (ev):

   -32.1914 -22.1187 -22.1187 -17.6696 -11.6467 -11.0647 -10.9039 -10.8981

          k = 0.2500 0.2500 0.0000 (423766 PWs)   bands (ev):

   -32.1914 -22.1187 -22.1187 -17.6696 -11.6450 -11.0613 -10.9942 -10.8056

          k = 0.2500-0.5000 0.0000 (423782 PWs)   bands (ev):

   -32.1914 -22.1187 -22.1187 -17.6696 -11.6432 -11.0737 -10.9952 -10.8741

          k = 0.2500-0.2500 0.0000 (423766 PWs)   bands (ev):

   -32.1914 -22.1187 -22.1187 -17.6696 -11.6450 -11.0613 -10.9936 -10.8004

          k =-0.5000 0.0000 0.0000 (423542 PWs)   bands (ev):

   -32.1914 -22.1187 -22.1187 -17.6696 -11.6448 -11.0942 -10.8845 -10.7487

          k =-0.5000 0.2500 0.0000 (423782 PWs)   bands (ev):

   -32.1914 -22.1187 -22.1187 -17.6696 -11.6432 -11.0736 -10.9952 -10.8741

          k =-0.5000-0.5000 0.0000 (423708 PWs)   bands (ev):

   -32.1914 -22.1187 -22.1187 -17.6696 -11.6415 -11.0356 -11.0355 -10.9566

 ------ SPIN DOWN ----------


          k = 0.0000 0.0000 0.0000 (423701 PWs)   bands (ev):

   -32.1914 -22.1187 -22.1187 -17.6696 -11.6486 -11.0252 -10.9133 -10.9132

          k = 0.0000 0.2500 0.0000 (423725 PWs)   bands (ev):

   -32.1914 -22.1187 -22.1187 -17.6696 -11.6467 -11.0648 -10.9024 -10.9005

          k = 0.0000-0.5000 0.0000 (423542 PWs)   bands (ev):

   -32.1914 -22.1187 -22.1187 -17.6696 -11.6448 -11.0941 -10.8842 -10.8780

          k = 0.2500 0.0000 0.0000 (423725 PWs)   bands (ev):

   -32.1914 -22.1187 -22.1187 -17.6696 -11.6467 -11.0648 -10.9042 -10.8984

          k = 0.2500 0.2500 0.0000 (423766 PWs)   bands (ev):

   -32.1914 -22.1187 -22.1187 -17.6696 -11.6450 -11.0613 -10.9942 -10.8012

          k = 0.2500-0.5000 0.0000 (423782 PWs)   bands (ev):

   -32.1914 -22.1187 -22.1187 -17.6696 -11.6432 -11.0736 -10.9952 -10.8739

          k = 0.2500-0.2500 0.0000 (423766 PWs)   bands (ev):

   -32.1914 -22.1187 -22.1187 -17.6696 -11.6450 -11.0613 -10.9942 -10.8018

          k =-0.5000 0.0000 0.0000 (423542 PWs)   bands (ev):

   -32.1914 -22.1187 -22.1187 -17.6696 -11.6448 -11.0942 -10.8845 -10.7521

          k =-0.5000 0.2500 0.0000 (423782 PWs)   bands (ev):

   -32.1914 -22.1187 -22.1187 -17.6696 -11.6432 -11.0737 -10.9952 -10.8742

          k =-0.5000-0.5000 0.0000 (423708 PWs)   bands (ev):

   -32.1914 -22.1187 -22.1187 -17.6696 -11.6415 -11.0356 -11.0354 -10.9566

     the Fermi energy is   -15.9733 ev

!    total energy              =     -23.81781794 Ry
     estimated scf accuracy    <          4.9E-10 Ry
     smearing contrib. (-TS)   =       0.00000000 Ry
     internal energy E=F+TS    =     -23.81781794 Ry

     The total energy is F=E-TS. E is the sum of the following terms:
     one-electron contribution =     -66.46334314 Ry
     hartree contribution      =      31.03671218 Ry
     xc contribution           =      -7.58143504 Ry
     ewald contribution        =      12.67236548 Ry
     Dispersion Correction     =      -0.00027425 Ry
     electric field correction =       6.51815683 Ry

     total magnetization       =     0.00 Bohr mag/cell
     absolute magnetization    =     0.00 Bohr mag/cell

     convergence has been achieved in   7 iterations

     negative rho (up, down):  2.148E-04 2.148E-04

     Forces acting on atoms (cartesian axes, Ry/au):

     atom    1 type  1   force =    -0.00000012   -0.00000037    0.00982285
     atom    2 type  2   force =     0.00000005   -0.00178367   -0.00327431
     atom    3 type  2   force =    -0.00154479    0.00089203   -0.00327427
     atom    4 type  2   force =     0.00154486    0.00089201   -0.00327426

     Total force =     0.006458     Total SCF correction =     0.000002
     Energy error            =      1.5E-03
     Gradient error          =      3.3E-03

     number of scf cycles    =   6
     number of bfgs steps    =   5

     energy   old            =     -23.8163246512 Ry
     energy   new            =     -23.8178179359 Ry

     CASE: energy  _new < energy  _old

     new trust radius        =       0.0422271448 bohr
     new conv_thr            =       0.0000000008 Ry


ATOMIC_POSITIONS (angstrom)
N            10.0000000000       10.0000000000        0.0000000000    0   0   0
H            10.0000002742       10.9219095654       -0.4520373808
H            10.7983949459        9.5390490964       -0.4520449579
H             9.2016057967        9.5390493599       -0.4520466068



     Writing output data file ./NH3_ESM_VA16.save/
     NEW-OLD atomic charge density approx. for the potential

     negative rho (up, down):  2.130E-04 2.130E-04

     Adding external electric field
        E field amplitude [Ha a.u.]: -3.1525E-02
        Potential amp.       -2.1446 Ry
        Total length         34.0151 bohr

     Generating pointlists ...

     total cpu time spent up to now is     1168.4 secs

     Self-consistent Calculation

     iteration #  1     ecut=    60.00 Ry     beta= 0.70
     CG style diagonalization
     ethr =  1.00E-06,  avg # of iterations =  4.4

     negative rho (up, down):  2.127E-04 2.127E-04

     total cpu time spent up to now is     1189.2 secs

     total energy              =     -23.81820813 Ry
     estimated scf accuracy    <       0.00011168 Ry

     total magnetization       =    -0.00 Bohr mag/cell
     absolute magnetization    =     0.00 Bohr mag/cell

     iteration #  2     ecut=    60.00 Ry     beta= 0.70
     CG style diagonalization
     ethr =  1.40E-06,  avg # of iterations =  3.6

     negative rho (up, down):  2.138E-04 2.138E-04

     total cpu time spent up to now is     1208.2 secs

     total energy              =     -23.81821709 Ry
     estimated scf accuracy    <       0.00002657 Ry

     total magnetization       =     0.00 Bohr mag/cell
     absolute magnetization    =     0.00 Bohr mag/cell

     iteration #  3     ecut=    60.00 Ry     beta= 0.70
     CG style diagonalization
     ethr =  3.32E-07,  avg # of iterations =  3.6

     negative rho (up, down):  2.138E-04 2.138E-04

     total cpu time spent up to now is     1227.2 secs

     total energy              =     -23.81822731 Ry
     estimated scf accuracy    <       0.00000380 Ry

     total magnetization       =     0.00 Bohr mag/cell
     absolute magnetization    =     0.00 Bohr mag/cell

     iteration #  4     ecut=    60.00 Ry     beta= 0.70
     CG style diagonalization
     ethr =  4.75E-08,  avg # of iterations =  3.4

     negative rho (up, down):  2.138E-04 2.138E-04

     total cpu time spent up to now is     1245.8 secs

     total energy              =     -23.81822775 Ry
     estimated scf accuracy    <       0.00000009 Ry

     total magnetization       =     0.00 Bohr mag/cell
     absolute magnetization    =     0.00 Bohr mag/cell

     iteration #  5     ecut=    60.00 Ry     beta= 0.70
     CG style diagonalization
     ethr =  1.07E-09,  avg # of iterations =  3.9

     negative rho (up, down):  2.138E-04 2.138E-04

     total cpu time spent up to now is     1265.3 secs

     total energy              =     -23.81822783 Ry
     estimated scf accuracy    <          7.0E-09 Ry

     total magnetization       =     0.00 Bohr mag/cell
     absolute magnetization    =     0.00 Bohr mag/cell

     iteration #  6     ecut=    60.00 Ry     beta= 0.70
     CG style diagonalization
     ethr =  8.71E-11,  avg # of iterations =  3.7

     negative rho (up, down):  2.138E-04 2.138E-04

     total cpu time spent up to now is     1284.8 secs

     total energy              =     -23.81822784 Ry
     estimated scf accuracy    <       0.00000001 Ry

     total magnetization       =    -0.00 Bohr mag/cell
     absolute magnetization    =     0.00 Bohr mag/cell

     iteration #  7     ecut=    60.00 Ry     beta= 0.70
     CG style diagonalization
     ethr =  8.71E-11,  avg # of iterations =  3.5

     negative rho (up, down):  2.138E-04 2.138E-04

     Magnetic moment per site:
     atom:    1    charge:    1.3318    magn:    0.0000    constr:    0.0000
     atom:    2    charge:    0.4362    magn:    0.0000    constr:    0.0000
     atom:    3    charge:    0.4366    magn:    0.0000    constr:    0.0000
     atom:    4    charge:    0.4366    magn:    0.0000    constr:    0.0000

     total cpu time spent up to now is     1301.9 secs

     End of self-consistent calculation

 ------ SPIN UP ------------


          k = 0.0000 0.0000 0.0000 (423701 PWs)   bands (ev):

   -32.2137 -22.0319 -22.0319 -17.7597 -11.6354 -11.0234 -10.9070 -10.9069

          k = 0.0000 0.2500 0.0000 (423725 PWs)   bands (ev):

   -32.2137 -22.0319 -22.0319 -17.7597 -11.6334 -11.0620 -10.8987 -10.8935

          k = 0.0000-0.5000 0.0000 (423542 PWs)   bands (ev):

   -32.2137 -22.0319 -22.0319 -17.7597 -11.6314 -11.0914 -10.8768 -10.8752

          k = 0.2500 0.0000 0.0000 (423725 PWs)   bands (ev):

   -32.2137 -22.0319 -22.0319 -17.7597 -11.6334 -11.0621 -10.8996 -10.8924

          k = 0.2500 0.2500 0.0000 (423766 PWs)   bands (ev):

   -32.2137 -22.0319 -22.0319 -17.7597 -11.6316 -11.0587 -10.9899 -10.8007

          k = 0.2500-0.5000 0.0000 (423782 PWs)   bands (ev):

   -32.2137 -22.0319 -22.0319 -17.7597 -11.6297 -11.0707 -10.9911 -10.8720

          k = 0.2500-0.2500 0.0000 (423766 PWs)   bands (ev):

   -32.2137 -22.0319 -22.0319 -17.7597 -11.6316 -11.0587 -10.9894 -10.8056

          k =-0.5000 0.0000 0.0000 (423542 PWs)   bands (ev):

   -32.2137 -22.0319 -22.0319 -17.7597 -11.6314 -11.0914 -10.8772 -10.7451

          k =-0.5000 0.2500 0.0000 (423782 PWs)   bands (ev):

   -32.2137 -22.0319 -22.0319 -17.7597 -11.6297 -11.0706 -10.9910 -10.8720

          k =-0.5000-0.5000 0.0000 (423708 PWs)   bands (ev):

   -32.2137 -22.0319 -22.0319 -17.7597 -11.6280 -11.0317 -11.0316 -10.9558

 ------ SPIN DOWN ----------


          k = 0.0000 0.0000 0.0000 (423701 PWs)   bands (ev):

   -32.2137 -22.0319 -22.0319 -17.7597 -11.6354 -11.0234 -10.9070 -10.9070

          k = 0.0000 0.2500 0.0000 (423725 PWs)   bands (ev):

   -32.2137 -22.0319 -22.0319 -17.7597 -11.6334 -11.0622 -10.8991 -10.8939

          k = 0.0000-0.5000 0.0000 (423542 PWs)   bands (ev):

   -32.2137 -22.0319 -22.0319 -17.7597 -11.6314 -11.0913 -10.8769 -10.8761

          k = 0.2500 0.0000 0.0000 (423725 PWs)   bands (ev):

   -32.2137 -22.0319 -22.0319 -17.7597 -11.6334 -11.0621 -10.9002 -10.8926

          k = 0.2500 0.2500 0.0000 (423766 PWs)   bands (ev):

   -32.2137 -22.0319 -22.0319 -17.7597 -11.6316 -11.0586 -10.9899 -10.8001

          k = 0.2500-0.5000 0.0000 (423782 PWs)   bands (ev):

   -32.2137 -22.0319 -22.0319 -17.7597 -11.6297 -11.0706 -10.9910 -10.8719

          k = 0.2500-0.2500 0.0000 (423766 PWs)   bands (ev):

   -32.2137 -22.0319 -22.0319 -17.7597 -11.6316 -11.0586 -10.9899 -10.8018

          k =-0.5000 0.0000 0.0000 (423542 PWs)   bands (ev):

   -32.2137 -22.0319 -22.0319 -17.7597 -11.6314 -11.0914 -10.8790 -10.8731

          k =-0.5000 0.2500 0.0000 (423782 PWs)   bands (ev):

   -32.2137 -22.0319 -22.0319 -17.7597 -11.6297 -11.0708 -10.9910 -10.8721

          k =-0.5000-0.5000 0.0000 (423708 PWs)   bands (ev):

   -32.2137 -22.0319 -22.0319 -17.7597 -11.6280 -11.0317 -11.0314 -10.9558

     the Fermi energy is   -15.9762 ev

!    total energy              =     -23.81822784 Ry
     estimated scf accuracy    <          4.9E-10 Ry
     smearing contrib. (-TS)   =       0.00000000 Ry
     internal energy E=F+TS    =     -23.81822784 Ry

     The total energy is F=E-TS. E is the sum of the following terms:
     one-electron contribution =     -66.42029203 Ry
     hartree contribution      =      31.01678270 Ry
     xc contribution           =      -7.57683331 Ry
     ewald contribution        =      12.65175042 Ry
     Dispersion Correction     =      -0.00025432 Ry
     electric field correction =       6.51061870 Ry

     total magnetization       =     0.00 Bohr mag/cell
     absolute magnetization    =     0.00 Bohr mag/cell

     convergence has been achieved in   7 iterations

     negative rho (up, down):  2.138E-04 2.138E-04

     Forces acting on atoms (cartesian axes, Ry/au):

     atom    1 type  1   force =    -0.00000008   -0.00000034   -0.00213792
     atom    2 type  2   force =     0.00000006   -0.00081888    0.00071270
     atom    3 type  2   force =    -0.00070909    0.00040964    0.00071258
     atom    4 type  2   force =     0.00070911    0.00040958    0.00071265

     Total force =     0.001880     Total SCF correction =     0.000003
     Energy error            =      4.1E-04
     Gradient error          =      8.2E-04

     number of scf cycles    =   7
     number of bfgs steps    =   6

     energy   old            =     -23.8178179359 Ry
     energy   new            =     -23.8182278408 Ry

     CASE: energy  _new < energy  _old

     new trust radius        =       0.0041560810 bohr
     new conv_thr            =       0.0000000002 Ry


ATOMIC_POSITIONS (angstrom)
N            10.0000000000       10.0000000000        0.0000000000    0   0   0
H            10.0000003128       10.9222198197       -0.4498600710
H            10.7986636897        9.5388940652       -0.4498676874
H             9.2013370703        9.5388942962       -0.4498693079



     Writing output data file ./NH3_ESM_VA16.save/
     NEW-OLD atomic charge density approx. for the potential

     negative rho (up, down):  2.141E-04 2.141E-04

     Adding external electric field
        E field amplitude [Ha a.u.]: -3.1525E-02
        Potential amp.       -2.1446 Ry
        Total length         34.0151 bohr

     Generating pointlists ...

     total cpu time spent up to now is     1323.4 secs

     Self-consistent Calculation

     iteration #  1     ecut=    60.00 Ry     beta= 0.70
     CG style diagonalization
     ethr =  1.00E-06,  avg # of iterations =  2.5

     Threshold (ethr) on eigenvalues was too large:
     Diagonalizing with lowered threshold

     CG style diagonalization
     ethr =  2.51E-08,  avg # of iterations =  2.6

     negative rho (up, down):  2.141E-04 2.141E-04

     total cpu time spent up to now is     1348.3 secs

     total energy              =     -23.81821093 Ry
     estimated scf accuracy    <       0.00000213 Ry

     total magnetization       =     0.00 Bohr mag/cell
     absolute magnetization    =     0.00 Bohr mag/cell

     iteration #  2     ecut=    60.00 Ry     beta= 0.70
     CG style diagonalization
     ethr =  2.66E-08,  avg # of iterations =  3.5

     negative rho (up, down):  2.140E-04 2.140E-04

     total cpu time spent up to now is     1366.9 secs

     total energy              =     -23.81821121 Ry
     estimated scf accuracy    <       0.00000062 Ry

     total magnetization       =     0.00 Bohr mag/cell
     absolute magnetization    =     0.00 Bohr mag/cell

     iteration #  3     ecut=    60.00 Ry     beta= 0.70
     CG style diagonalization
     ethr =  7.81E-09,  avg # of iterations =  3.5

     negative rho (up, down):  2.140E-04 2.140E-04

     total cpu time spent up to now is     1385.6 secs

     total energy              =     -23.81821148 Ry
     estimated scf accuracy    <       0.00000004 Ry

     total magnetization       =    -0.00 Bohr mag/cell
     absolute magnetization    =     0.00 Bohr mag/cell

     iteration #  4     ecut=    60.00 Ry     beta= 0.70
     CG style diagonalization
     ethr =  4.53E-10,  avg # of iterations =  3.2

     negative rho (up, down):  2.140E-04 2.140E-04

     total cpu time spent up to now is     1403.9 secs

     total energy              =     -23.81821148 Ry
     estimated scf accuracy    <          6.2E-10 Ry

     total magnetization       =     0.00 Bohr mag/cell
     absolute magnetization    =     0.00 Bohr mag/cell

     iteration #  5     ecut=    60.00 Ry     beta= 0.70
     CG style diagonalization
     ethr =  7.80E-12,  avg # of iterations =  3.7

     negative rho (up, down):  2.141E-04 2.141E-04

     Magnetic moment per site:
     atom:    1    charge:    1.3323    magn:    0.0000    constr:    0.0000
     atom:    2    charge:    0.4366    magn:   -0.0000    constr:    0.0000
     atom:    3    charge:    0.4372    magn:   -0.0000    constr:    0.0000
     atom:    4    charge:    0.4372    magn:   -0.0000    constr:    0.0000

     total cpu time spent up to now is     1421.4 secs

     End of self-consistent calculation

 ------ SPIN UP ------------


          k = 0.0000 0.0000 0.0000 (423701 PWs)   bands (ev):

   -32.2167 -22.0434 -22.0434 -17.7517 -11.6358 -11.0235 -10.9076 -10.9075

          k = 0.0000 0.2500 0.0000 (423725 PWs)   bands (ev):

   -32.2167 -22.0434 -22.0434 -17.7517 -11.6339 -11.0623 -10.8991 -10.8942

          k = 0.0000-0.5000 0.0000 (423542 PWs)   bands (ev):

   -32.2167 -22.0434 -22.0434 -17.7516 -11.6319 -11.0917 -10.8775 -10.8754

          k = 0.2500 0.0000 0.0000 (423725 PWs)   bands (ev):

   -32.2167 -22.0434 -22.0434 -17.7517 -11.6339 -11.0624 -10.9000 -10.8930

          k = 0.2500 0.2500 0.0000 (423766 PWs)   bands (ev):

   -32.2167 -22.0434 -22.0434 -17.7517 -11.6320 -11.0589 -10.9903 -10.8014

          k = 0.2500-0.5000 0.0000 (423782 PWs)   bands (ev):

   -32.2167 -22.0434 -22.0434 -17.7517 -11.6302 -11.0710 -10.9915 -10.8723

          k = 0.2500-0.2500 0.0000 (423766 PWs)   bands (ev):

   -32.2167 -22.0434 -22.0434 -17.7517 -11.6320 -11.0589 -10.9900 -10.8059

          k =-0.5000 0.0000 0.0000 (423542 PWs)   bands (ev):

   -32.2167 -22.0434 -22.0434 -17.7517 -11.6319 -11.0917 -10.8778 -10.7455

          k =-0.5000 0.2500 0.0000 (423782 PWs)   bands (ev):

   -32.2167 -22.0434 -22.0434 -17.7517 -11.6302 -11.0710 -10.9914 -10.8723

          k =-0.5000-0.5000 0.0000 (423708 PWs)   bands (ev):

   -32.2167 -22.0434 -22.0434 -17.7517 -11.6284 -11.0320 -11.0319 -10.9559

 ------ SPIN DOWN ----------


          k = 0.0000 0.0000 0.0000 (423701 PWs)   bands (ev):

   -32.2167 -22.0434 -22.0434 -17.7517 -11.6358 -11.0235 -10.9076 -10.9075

          k = 0.0000 0.2500 0.0000 (423725 PWs)   bands (ev):

   -32.2167 -22.0434 -22.0434 -17.7517 -11.6339 -11.0624 -10.8994 -10.8945

          k = 0.0000-0.5000 0.0000 (423542 PWs)   bands (ev):

   -32.2167 -22.0434 -22.0434 -17.7516 -11.6319 -11.0916 -10.8775 -10.8762

          k = 0.2500 0.0000 0.0000 (423725 PWs)   bands (ev):

   -32.2167 -22.0434 -22.0434 -17.7517 -11.6339 -11.0624 -10.9005 -10.8932

          k = 0.2500 0.2500 0.0000 (423766 PWs)   bands (ev):

   -32.2167 -22.0434 -22.0434 -17.7517 -11.6320 -11.0589 -10.9903 -10.8008

          k = 0.2500-0.5000 0.0000 (423782 PWs)   bands (ev):

   -32.2167 -22.0434 -22.0434 -17.7517 -11.6302 -11.0710 -10.9914 -10.8722

          k = 0.2500-0.2500 0.0000 (423766 PWs)   bands (ev):

   -32.2167 -22.0434 -22.0434 -17.7517 -11.6320 -11.0589 -10.9903 -10.8025

          k =-0.5000 0.0000 0.0000 (423542 PWs)   bands (ev):

   -32.2167 -22.0434 -22.0434 -17.7517 -11.6319 -11.0917 -10.8795 -10.8735

          k =-0.5000 0.2500 0.0000 (423782 PWs)   bands (ev):

   -32.2167 -22.0434 -22.0434 -17.7517 -11.6302 -11.0711 -10.9914 -10.8724

          k =-0.5000-0.5000 0.0000 (423708 PWs)   bands (ev):

   -32.2167 -22.0434 -22.0434 -17.7517 -11.6284 -11.0320 -11.0319 -10.9559

     the Fermi energy is   -15.9773 ev

!    total energy              =     -23.81821148 Ry
     estimated scf accuracy    <          7.5E-11 Ry
     smearing contrib. (-TS)   =       0.00000000 Ry
     internal energy E=F+TS    =     -23.81821148 Ry

     The total energy is F=E-TS. E is the sum of the following terms:
     one-electron contribution =     -66.43714493 Ry
     hartree contribution      =      31.02487293 Ry
     xc contribution           =      -7.57837283 Ry
     ewald contribution        =      12.66129152 Ry
     Dispersion Correction     =      -0.00025512 Ry
     electric field correction =       6.51139695 Ry

     total magnetization       =     0.00 Bohr mag/cell
     absolute magnetization    =     0.00 Bohr mag/cell

     convergence has been achieved in   5 iterations

     negative rho (up, down):  2.141E-04 2.141E-04

     Forces acting on atoms (cartesian axes, Ry/au):

     atom    1 type  1   force =    -0.00000005   -0.00000029   -0.00022316
     atom    2 type  2   force =     0.00000005   -0.00026460    0.00007448
     atom    3 type  2   force =    -0.00022909    0.00013247    0.00007432
     atom    4 type  2   force =     0.00022909    0.00013242    0.00007437

     Total force =     0.000476     Total SCF correction =     0.000001
     Energy error            =      1.6E-05
     Gradient error          =      2.6E-04

[...]
     energy   new            =     -23.8182276747 Ry

     CASE: energy  _new > energy  _old

     new trust radius        =       0.0001763058 bohr
     new conv_thr            =       0.0000000002 Ry


ATOMIC_POSITIONS (angstrom)
N            10.0000000000       10.0000000000        0.0000000000    0   0   0
H            10.0000002794       10.9218391895       -0.4519761307
H            10.7983340057        9.5390843017       -0.4519837178
H             9.2016667382        9.5390845600       -0.4519853609



     Writing output data file ./NH3_ESM_VA16.save/
     NEW-OLD atomic charge density approx. for the potential

     negative rho (up, down):  2.138E-04 2.138E-04

     Adding external electric field
        E field amplitude [Ha a.u.]: -3.1525E-02
        Potential amp.       -2.1446 Ry
        Total length         34.0151 bohr

     Generating pointlists ...

     total cpu time spent up to now is     6698.7 secs

     Self-consistent Calculation

     iteration #  1     ecut=    60.00 Ry     beta= 0.70
     CG style diagonalization
     ethr =  1.00E-06,  avg # of iterations =  2.0

     Threshold (ethr) on eigenvalues was too large:
     Diagonalizing with lowered threshold

     CG style diagonalization
     ethr =  2.51E-10,  avg # of iterations =  3.0

     negative rho (up, down):  2.138E-04 2.138E-04

     total cpu time spent up to now is     6723.4 secs

     total energy              =     -23.81822778 Ry
     estimated scf accuracy    <       0.00000006 Ry

     total magnetization       =    -0.00 Bohr mag/cell
     absolute magnetization    =     0.00 Bohr mag/cell

     iteration #  2     ecut=    60.00 Ry     beta= 0.70
     CG style diagonalization
     ethr =  7.22E-10,  avg # of iterations =  4.2

     negative rho (up, down):  2.138E-04 2.138E-04

     total cpu time spent up to now is     6743.5 secs

     total energy              =     -23.81822780 Ry
     estimated scf accuracy    <       0.00000004 Ry

     total magnetization       =    -0.00 Bohr mag/cell
     absolute magnetization    =     0.00 Bohr mag/cell

     iteration #  3     ecut=    60.00 Ry     beta= 0.70
     CG style diagonalization
     ethr =  5.19E-10,  avg # of iterations =  3.5

     negative rho (up, down):  2.138E-04 2.138E-04

     total cpu time spent up to now is     6762.3 secs

     total energy              =     -23.81822781 Ry
     estimated scf accuracy    <          5.4E-10 Ry

     total magnetization       =    -0.00 Bohr mag/cell
     absolute magnetization    =     0.00 Bohr mag/cell

     iteration #  4     ecut=    60.00 Ry     beta= 0.70
     CG style diagonalization
     ethr =  6.76E-12,  avg # of iterations =  4.0

     negative rho (up, down):  2.138E-04 2.138E-04

     total cpu time spent up to now is     6782.0 secs

     total energy              =     -23.81822781 Ry
     estimated scf accuracy    <          2.9E-10 Ry

     total magnetization       =     0.00 Bohr mag/cell
     absolute magnetization    =     0.00 Bohr mag/cell

     iteration #  5     ecut=    60.00 Ry     beta= 0.70
     CG style diagonalization
     ethr =  3.59E-12,  avg # of iterations =  3.0

     negative rho (up, down):  2.138E-04 2.138E-04

     Magnetic moment per site:
     atom:    1    charge:    1.3319    magn:   -0.0000    constr:    0.0000
     atom:    2    charge:    0.4363    magn:    0.0000    constr:    0.0000
     atom:    3    charge:    0.4367    magn:    0.0000    constr:    0.0000
     atom:    4    charge:    0.4367    magn:    0.0000    constr:    0.0000

     total cpu time spent up to now is     6798.1 secs

     End of self-consistent calculation

 ------ SPIN UP ------------


          k = 0.0000 0.0000 0.0000 (423701 PWs)   bands (ev):

   -32.2146 -22.0326 -22.0326 -17.7597 -11.6352 -11.0235 -10.9072 -10.9070

          k = 0.0000 0.2500 0.0000 (423725 PWs)   bands (ev):

   -32.2146 -22.0326 -22.0326 -17.7597 -11.6333 -11.0623 -10.8994 -10.8940

          k = 0.0000-0.5000 0.0000 (423542 PWs)   bands (ev):

   -32.2146 -22.0326 -22.0325 -17.7597 -11.6313 -11.0915 -10.8769 -10.8763

          k = 0.2500 0.0000 0.0000 (423725 PWs)   bands (ev):

   -32.2146 -22.0326 -22.0325 -17.7597 -11.6333 -11.0623 -10.9003 -10.8929

          k = 0.2500 0.2500 0.0000 (423766 PWs)   bands (ev):

   -32.2146 -22.0326 -22.0326 -17.7597 -11.6314 -11.0587 -10.9900 -10.8051

          k = 0.2500-0.5000 0.0000 (423782 PWs)   bands (ev):

   -32.2146 -22.0326 -22.0326 -17.7597 -11.6295 -11.0708 -10.9912 -10.8723

          k = 0.2500-0.2500 0.0000 (423766 PWs)   bands (ev):

   -32.2146 -22.0326 -22.0325 -17.7597 -11.6314 -11.0587 -10.9900 -10.8059

          k =-0.5000 0.0000 0.0000 (423542 PWs)   bands (ev):

   -32.2146 -22.0326 -22.0325 -17.7597 -11.6313 -11.0915 -10.8793 -10.8736

          k =-0.5000 0.2500 0.0000 (423782 PWs)   bands (ev):

   -32.2146 -22.0326 -22.0326 -17.7597 -11.6295 -11.0708 -10.9911 -10.8723

          k =-0.5000-0.5000 0.0000 (423708 PWs)   bands (ev):

   -32.2146 -22.0326 -22.0325 -17.7597 -11.6278 -11.0317 -11.0316 -10.9558

 ------ SPIN DOWN ----------


          k = 0.0000 0.0000 0.0000 (423701 PWs)   bands (ev):

   -32.2146 -22.0326 -22.0326 -17.7597 -11.6352 -11.0235 -10.9072 -10.9070

          k = 0.0000 0.2500 0.0000 (423725 PWs)   bands (ev):

   -32.2146 -22.0326 -22.0326 -17.7597 -11.6333 -11.0623 -10.8994 -10.8940

          k = 0.0000-0.5000 0.0000 (423542 PWs)   bands (ev):

   -32.2146 -22.0326 -22.0325 -17.7597 -11.6313 -11.0915 -10.8769 -10.8763

          k = 0.2500 0.0000 0.0000 (423725 PWs)   bands (ev):

   -32.2146 -22.0326 -22.0325 -17.7597 -11.6333 -11.0623 -10.9003 -10.8929

          k = 0.2500 0.2500 0.0000 (423766 PWs)   bands (ev):

   -32.2146 -22.0326 -22.0326 -17.7597 -11.6314 -11.0587 -10.9900 -10.8051

          k = 0.2500-0.5000 0.0000 (423782 PWs)   bands (ev):

   -32.2146 -22.0326 -22.0326 -17.7597 -11.6295 -11.0708 -10.9912 -10.8723

          k = 0.2500-0.2500 0.0000 (423766 PWs)   bands (ev):

   -32.2146 -22.0326 -22.0325 -17.7597 -11.6314 -11.0587 -10.9900 -10.8054

          k =-0.5000 0.0000 0.0000 (423542 PWs)   bands (ev):

   -32.2146 -22.0326 -22.0325 -17.7597 -11.6313 -11.0915 -10.8793 -10.8736

          k =-0.5000 0.2500 0.0000 (423782 PWs)   bands (ev):

   -32.2146 -22.0326 -22.0326 -17.7597 -11.6295 -11.0708 -10.9911 -10.8723

          k =-0.5000-0.5000 0.0000 (423708 PWs)   bands (ev):

   -32.2146 -22.0326 -22.0325 -17.7597 -11.6278 -11.0317 -11.0316 -10.9558

     the Fermi energy is   -16.0215 ev

!    total energy              =     -23.81822781 Ry
     estimated scf accuracy    <          6.9E-11 Ry
     smearing contrib. (-TS)   =       0.00000000 Ry
     internal energy E=F+TS    =     -23.81822781 Ry

     The total energy is F=E-TS. E is the sum of the following terms:
     one-electron contribution =     -66.42278358 Ry
     hartree contribution      =      31.01795353 Ry
     xc contribution           =      -7.57704302 Ry
     ewald contribution        =      12.65325881 Ry
     Dispersion Correction     =      -0.00025414 Ry
     electric field correction =       6.51064059 Ry

     total magnetization       =    -0.00 Bohr mag/cell
     absolute magnetization    =     0.00 Bohr mag/cell

     convergence has been achieved in   5 iterations

     negative rho (up, down):  2.138E-04 2.138E-04

     Forces acting on atoms (cartesian axes, Ry/au):

     atom    1 type  1   force =    -0.00000008   -0.00000034   -0.00197866
     atom    2 type  2   force =     0.00000006   -0.00068658    0.00065961
     atom    3 type  2   force =    -0.00059452    0.00034349    0.00065949
     atom    4 type  2   force =     0.00059453    0.00034343    0.00065955

     Total force =     0.001649     Total SCF correction =     0.000004
     Energy error            =      3.1E-08
     Gradient error          =      6.9E-04

     number of scf cycles    =  49
     number of bfgs steps    =   7

     energy   old            =     -23.8182278408 Ry
     energy   new            =     -23.8182278102 Ry

     CASE: energy  _new > energy  _old

     new trust radius        =       0.0000836911 bohr

     trust_radius < trust_radius_min

     resetting bfgs history

     new conv_thr            =       0.0000000002 Ry


ATOMIC_POSITIONS (angstrom)
N            10.0000000000       10.0000000000        0.0000000000    0   0   0
H            10.0000003061       10.9214762314       -0.4516602385
H            10.7980197114        9.5392658702       -0.4516678764
H             9.2019810394        9.5392661016       -0.4516694900



     Writing output data file ./NH3_ESM_VA16.save/
     NEW-OLD atomic charge density approx. for the potential

     negative rho (up, down):  2.140E-04 2.140E-04

     Adding external electric field
        E field amplitude [Ha a.u.]: -3.1525E-02
        Potential amp.       -2.1446 Ry
        Total length         34.0151 bohr

     Generating pointlists ...

     total cpu time spent up to now is     6819.1 secs

     Self-consistent Calculation

     iteration #  1     ecut=    60.00 Ry     beta= 0.70
     CG style diagonalization
     ethr =  1.00E-06,  avg # of iterations =  2.0

     Threshold (ethr) on eigenvalues was too large:
     Diagonalizing with lowered threshold

     CG style diagonalization
     ethr =  3.95E-09,  avg # of iterations =  2.8

     negative rho (up, down):  2.140E-04 2.140E-04

     total cpu time spent up to now is     6843.2 secs

     total energy              =     -23.81822626 Ry
     estimated scf accuracy    <       0.00000076 Ry

     total magnetization       =     0.00 Bohr mag/cell
     absolute magnetization    =     0.00 Bohr mag/cell

     iteration #  2     ecut=    60.00 Ry     beta= 0.70
     CG style diagonalization
     ethr =  9.55E-09,  avg # of iterations =  4.0

     negative rho (up, down):  2.140E-04 2.140E-04

     total cpu time spent up to now is     6862.9 secs

     total energy              =     -23.81822642 Ry
     estimated scf accuracy    <       0.00000049 Ry

     total magnetization       =     0.00 Bohr mag/cell
     absolute magnetization    =     0.00 Bohr mag/cell

     iteration #  3     ecut=    60.00 Ry     beta= 0.70
     CG style diagonalization
     ethr =  6.16E-09,  avg # of iterations =  3.5

     negative rho (up, down):  2.140E-04 2.140E-04

     total cpu time spent up to now is     6881.7 secs

     total energy              =     -23.81822653 Ry
     estimated scf accuracy    <          3.6E-09 Ry

     total magnetization       =     0.00 Bohr mag/cell
     absolute magnetization    =     0.00 Bohr mag/cell

     iteration #  4     ecut=    60.00 Ry     beta= 0.70
     CG style diagonalization
     ethr =  4.48E-11,  avg # of iterations =  3.9

     negative rho (up, down):  2.140E-04 2.140E-04

     total cpu time spent up to now is     6901.2 secs

     total energy              =     -23.81822655 Ry
     estimated scf accuracy    <          1.4E-09 Ry

     total magnetization       =     0.00 Bohr mag/cell
     absolute magnetization    =     0.00 Bohr mag/cell

     iteration #  5     ecut=    60.00 Ry     beta= 0.70
     CG style diagonalization
     ethr =  1.80E-11,  avg # of iterations =  3.4

     negative rho (up, down):  2.140E-04 2.140E-04

     total cpu time spent up to now is     6919.8 secs

     total energy              =     -23.81822655 Ry
     estimated scf accuracy    <          5.8E-10 Ry

     total magnetization       =     0.00 Bohr mag/cell
     absolute magnetization    =     0.00 Bohr mag/cell

     iteration #  6     ecut=    60.00 Ry     beta= 0.70
     CG style diagonalization
     ethr =  7.20E-12,  avg # of iterations =  3.4

     negative rho (up, down):  2.140E-04 2.140E-04

     Magnetic moment per site:
     atom:    1    charge:    1.3322    magn:    0.0000    constr:    0.0000
     atom:    2    charge:    0.4366    magn:    0.0000    constr:    0.0000
     atom:    3    charge:    0.4371    magn:    0.0000    constr:    0.0000
     atom:    4    charge:    0.4371    magn:   -0.0000    constr:    0.0000

     total cpu time spent up to now is     6936.6 secs

     End of self-consistent calculation

 ------ SPIN UP ------------


          k = 0.0000 0.0000 0.0000 (423701 PWs)   bands (ev):

   -32.2197 -22.0364 -22.0364 -17.7598 -11.6345 -11.0234 -10.9072 -10.9070

          k = 0.0000 0.2500 0.0000 (423725 PWs)   bands (ev):

   -32.2197 -22.0364 -22.0364 -17.7598 -11.6326 -11.0623 -10.8993 -10.8940

          k = 0.0000-0.5000 0.0000 (423542 PWs)   bands (ev):

   -32.2197 -22.0364 -22.0364 -17.7598 -11.6306 -11.0915 -10.8769 -10.8762

          k = 0.2500 0.0000 0.0000 (423725 PWs)   bands (ev):

   -32.2197 -22.0364 -22.0364 -17.7598 -11.6326 -11.0623 -10.9003 -10.8929

          k = 0.2500 0.2500 0.0000 (423766 PWs)   bands (ev):

   -32.2197 -22.0364 -22.0364 -17.7598 -11.6307 -11.0587 -10.9900 -10.8052

          k = 0.2500-0.5000 0.0000 (423782 PWs)   bands (ev):

   -32.2197 -22.0364 -22.0364 -17.7598 -11.6289 -11.0708 -10.9912 -10.8723

          k = 0.2500-0.2500 0.0000 (423766 PWs)   bands (ev):

   -32.2197 -22.0364 -22.0364 -17.7598 -11.6307 -11.0587 -10.9900 -10.8059

          k =-0.5000 0.0000 0.0000 (423542 PWs)   bands (ev):

   -32.2197 -22.0364 -22.0364 -17.7598 -11.6306 -11.0915 -10.8793 -10.8736

          k =-0.5000 0.2500 0.0000 (423782 PWs)   bands (ev):

   -32.2197 -22.0364 -22.0364 -17.7598 -11.6289 -11.0708 -10.9911 -10.8723

          k =-0.5000-0.5000 0.0000 (423708 PWs)   bands (ev):

   -32.2197 -22.0364 -22.0364 -17.7598 -11.6271 -11.0317 -11.0316 -10.9558

 ------ SPIN DOWN ----------


          k = 0.0000 0.0000 0.0000 (423701 PWs)   bands (ev):

   -32.2197 -22.0364 -22.0364 -17.7598 -11.6345 -11.0234 -10.9072 -10.9070

          k = 0.0000 0.2500 0.0000 (423725 PWs)   bands (ev):

   -32.2197 -22.0364 -22.0364 -17.7598 -11.6326 -11.0623 -10.8994 -10.8940

          k = 0.0000-0.5000 0.0000 (423542 PWs)   bands (ev):

   -32.2197 -22.0364 -22.0364 -17.7598 -11.6306 -11.0915 -10.8769 -10.8762

          k = 0.2500 0.0000 0.0000 (423725 PWs)   bands (ev):

   -32.2197 -22.0364 -22.0364 -17.7598 -11.6326 -11.0623 -10.9003 -10.8929

          k = 0.2500 0.2500 0.0000 (423766 PWs)   bands (ev):

   -32.2197 -22.0364 -22.0364 -17.7598 -11.6307 -11.0587 -10.9900 -10.8052

          k = 0.2500-0.5000 0.0000 (423782 PWs)   bands (ev):

   -32.2197 -22.0364 -22.0364 -17.7598 -11.6289 -11.0708 -10.9912 -10.8723

          k = 0.2500-0.2500 0.0000 (423766 PWs)   bands (ev):

   -32.2197 -22.0364 -22.0364 -17.7598 -11.6307 -11.0587 -10.9900 -10.8055

          k =-0.5000 0.0000 0.0000 (423542 PWs)   bands (ev):

   -32.2197 -22.0364 -22.0364 -17.7598 -11.6306 -11.0915 -10.8793 -10.8736

          k =-0.5000 0.2500 0.0000 (423782 PWs)   bands (ev):

   -32.2197 -22.0364 -22.0364 -17.7598 -11.6289 -11.0708 -10.9911 -10.8723

          k =-0.5000-0.5000 0.0000 (423708 PWs)   bands (ev):

   -32.2197 -22.0364 -22.0364 -17.7598 -11.6271 -11.0317 -11.0316 -10.9558

     the Fermi energy is   -16.0228 ev

!    total energy              =     -23.81822655 Ry
     estimated scf accuracy    <          3.3E-11 Ry
     smearing contrib. (-TS)   =       0.00000000 Ry
     internal energy E=F+TS    =     -23.81822655 Ry

     The total energy is F=E-TS. E is the sum of the following terms:
     one-electron contribution =     -66.43594932 Ry
     hartree contribution      =      31.02436184 Ry
     xc contribution           =      -7.57818158 Ry
     ewald contribution        =      12.66104220 Ry
     Dispersion Correction     =      -0.00025319 Ry
     electric field correction =       6.51075349 Ry

     total magnetization       =    -0.00 Bohr mag/cell
     absolute magnetization    =     0.00 Bohr mag/cell

     convergence has been achieved in   6 iterations

     negative rho (up, down):  2.140E-04 2.140E-04

     Forces acting on atoms (cartesian axes, Ry/au):

     atom    1 type  1   force =    -0.00000006   -0.00000032   -0.00114238
     atom    2 type  2   force =     0.00000005   -0.00003430    0.00038086
     atom    3 type  2   force =    -0.00002967    0.00001734    0.00038073
     atom    4 type  2   force =     0.00002968    0.00001728    0.00038078

     Total force =     0.000662     Total SCF correction =     0.000002
     Energy error            =      1.3E-06
     Gradient error          =      3.8E-04

     number of scf cycles    =  50
     number of bfgs steps    =   7

     energy   old            =     -23.8182278408 Ry
     energy   new            =     -23.8182265525 Ry

     CASE: energy  _new > energy  _old

     new trust radius        =       0.0003978213 bohr

     The maximum number of steps has been reached.

     End of BFGS Geometry Optimization

ATOMIC_POSITIONS (angstrom)
N            10.0000000000       10.0000000000        0.0000000000    0   0   0
H            10.0000002859       10.9217507673       -0.4518991745
H            10.7982574387        9.5391285346       -0.4519067739
H             9.2017433068        9.5391287863       -0.4519084098



     Writing output data file ./NH3_ESM_VA16.save/
     NEW-OLD atomic charge density approx. for the potential

     negative rho (up, down):  2.139E-04 2.139E-04

     Adding external electric field
        E field amplitude [Ha a.u.]: -3.1525E-02
        Potential amp.       -2.1446 Ry
        Total length         34.0151 bohr

     Generating pointlists ...

     Writing output data file ./NH3_ESM_VA16.save/

     init_run     :     20.25s CPU     21.59s WALL (       1 calls)
     electrons    :   5559.55s CPU   5985.13s WALL (      50 calls)
     update_pot   :    382.63s CPU    404.18s WALL (      50 calls)
     forces       :    408.88s CPU    438.26s WALL (      50 calls)

     Called by init_run:
     wfcinit      :      1.68s CPU      1.88s WALL (       1 calls)
     potinit      :      7.44s CPU      8.14s WALL (       1 calls)
     hinit0       :      1.22s CPU      1.38s WALL (       1 calls)

     Called by electrons:
     c_bands      :   2200.72s CPU   2241.52s WALL (     342 calls)
     sum_band     :    777.09s CPU    804.43s WALL (     342 calls)
     v_of_rho     :   1962.77s CPU   2140.89s WALL (     350 calls)
     newd         :    257.49s CPU    273.02s WALL (     350 calls)
     mix_rho      :    344.44s CPU    419.41s WALL (     342 calls)

     Called by c_bands:
     init_us_2    :     13.81s CPU     14.28s WALL (    2205 calls)
     ccgdiagg     :   1751.81s CPU   1775.56s WALL (    1026 calls)
     wfcrot       :    412.96s CPU    419.01s WALL (     750 calls)

     Called by *cgdiagg:
     h_psi        :   1881.68s CPU   1907.54s WALL (   22474 calls)
     s_psi        :    113.50s CPU    114.90s WALL (   44198 calls)

     Called by h_psi:
     h_psi:calbec :     75.76s CPU     76.87s WALL (   22474 calls)
     vloc_psi     :   1709.51s CPU   1732.92s WALL (   22474 calls)
     add_vuspsi   :     87.07s CPU     88.41s WALL (   22474 calls)
     hs_1psi      :   1553.48s CPU   1574.40s WALL (   21724 calls)
     s_1psi       :    124.49s CPU    126.28s WALL (   21724 calls)

     General routines
     calbec       :    150.29s CPU    152.75s WALL (   45824 calls)
     fft          :   2210.87s CPU   2274.27s WALL (    9534 calls)
     ffts         :    114.46s CPU    115.74s WALL (    1384 calls)
     fftw         :   1621.05s CPU   1642.66s WALL (   63656 calls)
     interpolate  :    235.67s CPU    255.88s WALL (     700 calls)
     davcio       :      0.81s CPU     43.64s WALL (    5262 calls)

     Parallel routines
     fft_scatt_xy :    619.00s CPU    627.17s WALL (   74574 calls)
     fft_scatt_yz :   1393.45s CPU   1412.56s WALL (   74574 calls)

     PWSCF        :      1h47m CPU      1h55m WALL


   This run was terminated on:  21:54:54  28Sep2022            

=------------------------------------------------------------------------------=
   JOB DONE.
=------------------------------------------------------------------------------=
