
     Program PWSCF v.6.4.1 starts on 10Jun2022 at  6: 7:26 

     This program is part of the open-source Quantum ESPRESSO suite
     for quantum simulation of materials; please cite
         "P. Giannozzi et al., J. Phys.:Condens. Matter 21 395502 (2009);
         "P. Giannozzi et al., J. Phys.:Condens. Matter 29 465901 (2017);
          URL http://www.quantum-espresso.org", 
     in publications or presentations arising from this work. More details at
     http://www.quantum-espresso.org/quote

     Parallel version (MPI), running on   160 processors

     MPI processes distributed on     8 nodes
     K-points division:     npool     =       8
     R & G space division:  proc/nbgrp/npool/nimage =      20
     Waiting for input...
     Reading input from standard input
Warning: card &CELL ignored
Warning: card / ignored

     Current dimensions of program PWSCF are:
     Max number of different atomic species (ntypx) = 10
     Max number of k-points (npk) =  40000
     Max angular momentum in pseudopotentials (lmaxx) =  3

     IMPORTANT: XC functional enforced from input :
     Exchange-correlation      = PBE ( 1  4  3  4 0 0)
     Any further DFT definition will be discarded
     Please, verify this is what you really want

               file Fe.pbe-spn-kjpaw_psl.0.2.1.UPF: wavefunction(s)  3D renormalized

     -------------------------------------------------
     Parameters for Dispersion (Grimme-D2) Correction:
     -------------------------------------------------
       atom      VdW radius       C_6     

        Fe         2.952        374.666
        N          2.640         42.670

     Subspace diagonalization in iterative solution of the eigenvalue problem:
     one sub-group per band group will be used
     scalapack distributed-memory algorithm (size of sub-group:  3*  3 procs)


     Parallelization info
     --------------------
     sticks:   dense  smooth     PW     G-vecs:    dense   smooth      PW
     Min         634     317     83               145278    51361    6989
     Max         635     318     84               145287    51370    7000
     Sum       12685    6351   1677              2905599  1027285  139897



     bravais-lattice index     =            0
     lattice parameter (alat)  =      18.7640  a.u.
     unit-cell volume          =   16360.3163 (a.u.)^3
     number of atoms/cell      =           65
     number of atomic types    =            2
     number of electrons       =      1029.00
     number of Kohn-Sham states=          618
     kinetic-energy cutoff     =      60.0000  Ry
     charge density cutoff     =     480.0000  Ry
     convergence threshold     =      1.0E-08
     mixing beta               =       0.2000
     number of iterations used =           10  local-TF  mixing
     Exchange-correlation      = PBE ( 1  4  3  4 0 0)
     nstep                     =           50


     Effective Screening Medium Method
     =================================
     Boundary Conditions: Metal-Slab-Metal
     field strength                   =     0.01 Ry/a.u.
     grid points for fit at edges     =        4 


     celldm(1)=  18.764036  celldm(2)=   0.000000  celldm(3)=   0.000000
     celldm(4)=   0.000000  celldm(5)=   0.000000  celldm(6)=   0.000000

     crystal axes: (cart. coord. in units of alat)
               a(1) = (   1.000000   0.000000   0.000000 )  
               a(2) = (   0.333330   0.942807   0.000000 )  
               a(3) = (   0.000000   0.000000   2.626577 )  

     reciprocal axes: (cart. coord. in units 2 pi/alat)
               b(1) = (  1.000000 -0.353551  0.000000 )  
               b(2) = (  0.000000  1.060663  0.000000 )  
               b(3) = (  0.000000  0.000000  0.380724 )  


     PseudoPot. # 1 for Fe read from file:
     ../../SSSP/Fe.pbe-spn-kjpaw_psl.0.2.1.UPF
     MD5 check sum: e86618425769142926afa95317d90200
     Pseudo is Projector augmented-wave + core cor, Zval = 16.0
     Generated using "atomic" code by A. Dal Corso v.5.0.99 svn rev. 10869
     Shape of augmentation charge: PSQ
     Using radial grid of 1191 points,  6 beta functions with: 
                l(1) =   0
                l(2) =   0
                l(3) =   1
                l(4) =   1
                l(5) =   2
                l(6) =   2
     Q(r) pseudized with 0 coefficients 


     PseudoPot. # 2 for N  read from file:
     ../../SSSP/N.pbe-n-radius_5.UPF
     MD5 check sum: 16739722b17309cd8fe442a2ace49922
     Pseudo is Ultrasoft + core correction, Zval =  5.0
     Generated using "atomic" code by A. Dal Corso v.5.1
     Using radial grid of 1085 points,  4 beta functions with: 
                l(1) =   0
                l(2) =   0
                l(3) =   1
                l(4) =   1
     Q(r) pseudized with 0 coefficients 


     atomic species   valence    mass     pseudopotential
        Fe            16.00    55.84500     Fe( 1.00)
        N              5.00    14.00700     N ( 1.00)

     Starting magnetic structure 
     atomic species   magnetization
        Fe           0.100
        N            0.100

     No symmetry found



   Cartesian axes

     site n.     atom                  positions (alat units)
         1           Fe  tau(   1) = (   0.1666663   0.1178509   0.0000000  )
         2           Fe  tau(   2) = (   0.0000000   0.0000000   0.2041376  )
         3           Fe  tau(   3) = (   0.4999989   0.3535526   0.0000000  )
         4           Fe  tau(   4) = (   0.3333326   0.2357017   0.2041376  )
         5           Fe  tau(   5) = (   0.1691472   0.1176094   0.4056660  )
         6           Fe  tau(   6) = (   0.3359380   0.9392018   0.6058109  )
         7           Fe  tau(   7) = (   0.4995901   0.3558703   0.4071094  )
         8           Fe  tau(   8) = (   0.3412681   0.2358492   0.6065705  )
         9           Fe  tau(   9) = (   0.2499989   0.3535526   0.0000000  )
        10           Fe  tau(  10) = (   0.4166663   0.1178509   0.0000000  )
        11           Fe  tau(  11) = (   0.0833326   0.2357017   0.2041376  )
        12           Fe  tau(  12) = (   0.2500000   0.0000000   0.2041376  )
        13           Fe  tau(  13) = (   0.2500218   0.3535847   0.4074555  )
        14           Fe  tau(  14) = (   0.4191520   0.1196486   0.4060441  )
        15           Fe  tau(  15) = (   0.0915614   0.2321511   0.6071614  )
        16           Fe  tau(  16) = (   0.2530337   0.0021777   0.6066172  )
        17           Fe  tau(  17) = (   0.6666663   0.1178509   0.0000000  )
        18           Fe  tau(  18) = (   0.5000000   0.0000000   0.2041376  )
        19           Fe  tau(  19) = (   0.9999989   0.3535526   0.0000000  )
        20           Fe  tau(  20) = (   0.8333326   0.2357017   0.2041376  )
        21           Fe  tau(  21) = (   0.6686653   0.1166981   0.4070740  )
        22           Fe  tau(  22) = (   0.5027470   0.0075037   0.6066117  )
        23           Fe  tau(  23) = (   1.0004776   0.3513212   0.4070776  )
        24           Fe  tau(  24) = (   0.8513672   0.2102859   0.6020526  )
        25           Fe  tau(  25) = (   0.7499989   0.3535526   0.0000000  )
        26           Fe  tau(  26) = (   0.9166663   0.1178509   0.0000000  )
        27           Fe  tau(  27) = (   0.5833326   0.2357017   0.2041376  )
        28           Fe  tau(  28) = (   0.7500000   0.0000000   0.2041376  )
        29           Fe  tau(  29) = (   0.7500413   0.3535585   0.4083588  )
        30           Fe  tau(  30) = (   0.9196400   0.1137006   0.4025538  )
        31           Fe  tau(  31) = (   0.5921530   0.2419357   0.6052781  )
        32           Fe  tau(  32) = (   1.0840202   0.9339265   0.6071563  )
        33           Fe  tau(  33) = (   0.3333315   0.5892543   0.0000000  )
        34           Fe  tau(  34) = (   0.1666652   0.4714034   0.2041376  )
        35           Fe  tau(  35) = (   0.6666640   0.8249560   0.0000000  )
        36           Fe  tau(  36) = (   0.4999978   0.7071052   0.2041376  )
        37           Fe  tau(  37) = (   0.3308935   0.5895421   0.4056869  )
        38           Fe  tau(  38) = (   1.1587770   0.4713705   0.6066133  )
        39           Fe  tau(  39) = (   0.6672561   0.8273892   0.4056891  )
        40           Fe  tau(  40) = (   0.4974300   0.7108097   0.6059109  )
        41           Fe  tau(  41) = (   0.4166640   0.8249560   0.0000000  )
        42           Fe  tau(  42) = (   0.5833315   0.5892543   0.0000000  )
        43           Fe  tau(  43) = (   0.2499978   0.7071052   0.2041376  )
        44           Fe  tau(  44) = (   0.4166652   0.4714034   0.2041376  )
        45           Fe  tau(  45) = (   0.4166844   0.8249818   0.4044816  )
        46           Fe  tau(  46) = (   0.5803843   0.5934793   0.4025899  )
        47           Fe  tau(  47) = (   1.2470077   0.7050318   0.6066043  )
        48           Fe  tau(  48) = (   0.4085172   0.4750834   0.6072198  )
        49           Fe  tau(  49) = (   0.8333315   0.5892543   0.0000000  )
        50           Fe  tau(  50) = (   0.6666652   0.4714034   0.2041376  )
        51           Fe  tau(  51) = (   1.1666640   0.8249560   0.0000000  )
        52           Fe  tau(  52) = (   0.9999978   0.7071052   0.2041376  )
        53           Fe  tau(  53) = (   0.8313389   0.5904534   0.4071156  )
        54           Fe  tau(  54) = (   0.6487233   0.4968744   0.6020552  )
        55           Fe  tau(  55) = (   1.1661158   0.8225743   0.4056597  )
        56           Fe  tau(  56) = (   0.9972943   0.6997385   0.6065670  )
        57           Fe  tau(  57) = (   0.9166640   0.8249560   0.0000000  )
        58           Fe  tau(  58) = (   1.0833315   0.5892543   0.0000000  )
        59           Fe  tau(  59) = (   0.7499978   0.7071052   0.2041376  )
        60           Fe  tau(  60) = (   0.9166652   0.4714034   0.2041376  )
        61           Fe  tau(  61) = (   0.9166776   0.8249875   0.4074566  )
        62           Fe  tau(  62) = (   1.0808628   0.5875460   0.4060466  )
        63           Fe  tau(  63) = (   0.7493230   0.7160881   0.6072274  )
        64           Fe  tau(  64) = (   0.9079495   0.4652294   0.6052882  )
        65           N   tau(  65) = (   0.7500494   0.3535840   0.6399018  )

     number of k points=    10  Methfessel-Paxton smearing, width (Ry)=  0.0100
                       cart. coord. in units 2pi/alat
        k(    1) = (   0.0000000   0.0000000   0.0000000), wk =   0.0625000
        k(    2) = (   0.0000000   0.2651656   0.0000000), wk =   0.1250000
        k(    3) = (   0.0000000  -0.5303313   0.0000000), wk =   0.0625000
        k(    4) = (   0.2500000  -0.0883878   0.0000000), wk =   0.1250000
        k(    5) = (   0.2500000   0.1767779   0.0000000), wk =   0.1250000
        k(    6) = (   0.2500000  -0.6187190   0.0000000), wk =   0.1250000
        k(    7) = (   0.2500000  -0.3535534   0.0000000), wk =   0.1250000
        k(    8) = (  -0.5000000   0.1767755   0.0000000), wk =   0.0625000
        k(    9) = (  -0.5000000   0.4419412   0.0000000), wk =   0.1250000
        k(   10) = (  -0.5000000  -0.3535558   0.0000000), wk =   0.0625000

     Dense  grid:  2905599 G-vectors     FFT dimensions: ( 135, 135, 360)

     Smooth grid:  1027285 G-vectors     FFT dimensions: (  96,  96, 243)

     Estimated max dynamical RAM per process >       1.00 GB

     Estimated total dynamical RAM >     160.27 GB
     Generating pointlists ...
     new r_m :   0.0741 (alat units)  1.3896 (a.u.) for type    1
     new r_m :   0.0741 (alat units)  1.3896 (a.u.) for type    2

     Check: negative core charge=   -0.000039

     Initial potential from superposition of free atoms

     starting charge 1028.97194, renormalised to 1029.00000

     negative rho (up, down):  2.480E-02 2.555E-03
     Starting wfcs are  836 randomized atomic wfcs
     Checking if some PAW data can be deallocated... 

     total cpu time spent up to now is       83.3 secs

     Self-consistent Calculation

     iteration #  1     ecut=    60.00 Ry     beta= 0.20
     Davidson diagonalization with overlap
     ethr =  1.00E-04,  avg # of iterations = 18.3

     negative rho (up, down):  1.318E-02 3.352E-03

     total cpu time spent up to now is     1073.1 secs

     total energy              =  -21086.40392784 Ry
     Harris-Foulkes estimate   =  -21094.76639570 Ry
     estimated scf accuracy    <     426.13731681 Ry

     total magnetization       =   102.64 Bohr mag/cell
     absolute magnetization    =   103.66 Bohr mag/cell

     iteration #  2     ecut=    60.00 Ry     beta= 0.20
     Davidson diagonalization with overlap
     ethr =  1.00E-02,  avg # of iterations =  1.0

     negative rho (up, down):  1.075E-02 4.224E-02

     total cpu time spent up to now is     1207.1 secs

     total energy              =  -21090.65784681 Ry
     Harris-Foulkes estimate   =  -21094.25061133 Ry
     estimated scf accuracy    <     192.92326859 Ry

     total magnetization       =   100.98 Bohr mag/cell
     absolute magnetization    =   102.24 Bohr mag/cell

     iteration #  3     ecut=    60.00 Ry     beta= 0.20
     Davidson diagonalization with overlap
     ethr =  1.00E-02,  avg # of iterations =  1.0

     negative rho (up, down):  6.056E-03 2.343E-02

     total cpu time spent up to now is     1346.3 secs

     total energy              =  -21092.47280794 Ry
     Harris-Foulkes estimate   =  -21092.57859258 Ry
     estimated scf accuracy    <      10.93917957 Ry

     total magnetization       =   131.18 Bohr mag/cell
     absolute magnetization    =   131.62 Bohr mag/cell

     iteration #  4     ecut=    60.00 Ry     beta= 0.20
     Davidson diagonalization with overlap
     ethr =  1.06E-03,  avg # of iterations =  1.0

     negative rho (up, down):  4.132E-03 1.768E-02

     total cpu time spent up to now is     1476.8 secs

     total energy              =  -21092.51560548 Ry
     Harris-Foulkes estimate   =  -21092.55756590 Ry
     estimated scf accuracy    <      15.85711683 Ry

     total magnetization       =   137.06 Bohr mag/cell
     absolute magnetization    =   137.56 Bohr mag/cell

     iteration #  5     ecut=    60.00 Ry     beta= 0.20
     Davidson diagonalization with overlap
     ethr =  1.06E-03,  avg # of iterations =  1.0

     negative rho (up, down):  1.559E-02 1.896E-01

     total cpu time spent up to now is     1607.7 secs

     total energy              =  -21090.97414132 Ry
     Harris-Foulkes estimate   =  -21092.54322101 Ry
     estimated scf accuracy    <      16.64112574 Ry

     total magnetization       =   139.88 Bohr mag/cell
     absolute magnetization    =   140.47 Bohr mag/cell

     iteration #  6     ecut=    60.00 Ry     beta= 0.20
     Davidson diagonalization with overlap
     ethr =  1.06E-03,  avg # of iterations =  5.2

     negative rho (up, down):  6.694E-03 1.280E-01

     total cpu time spent up to now is     1792.9 secs

     total energy              =  -21091.74217526 Ry
     Harris-Foulkes estimate   =  -21091.80995316 Ry
     estimated scf accuracy    <       4.34810223 Ry

     total magnetization       =   154.52 Bohr mag/cell
     absolute magnetization    =   156.75 Bohr mag/cell

     iteration #  7     ecut=    60.00 Ry     beta= 0.20
     Davidson diagonalization with overlap
     ethr =  4.23E-04,  avg # of iterations =  9.1

     negative rho (up, down):  1.824E-03 6.177E-02

     total cpu time spent up to now is     2053.2 secs

     total energy              =  -21092.09076156 Ry
     Harris-Foulkes estimate   =  -21092.04901075 Ry
     estimated scf accuracy    <       0.73040102 Ry

     total magnetization       =   151.68 Bohr mag/cell
     absolute magnetization    =   154.96 Bohr mag/cell

     iteration #  8     ecut=    60.00 Ry     beta= 0.20
     Davidson diagonalization with overlap
     c_bands:  2 eigenvalues not converged
     c_bands:  4 eigenvalues not converged
     ethr =  7.10E-05,  avg # of iterations = 20.2

     negative rho (up, down):  3.923E-04 3.000E-02

     total cpu time spent up to now is     2859.7 secs

     total energy              =  -21092.46279791 Ry
     Harris-Foulkes estimate   =  -21092.77175256 Ry
     estimated scf accuracy    <       3.19700339 Ry

     total magnetization       =   150.94 Bohr mag/cell
     absolute magnetization    =   156.74 Bohr mag/cell

     iteration #  9     ecut=    60.00 Ry     beta= 0.20
     Davidson diagonalization with overlap
     ethr =  7.10E-05,  avg # of iterations =  6.1

     negative rho (up, down):  2.170E-04 1.542E-02

     total cpu time spent up to now is     3057.3 secs

     total energy              =  -21092.56786051 Ry
     Harris-Foulkes estimate   =  -21092.57574945 Ry
     estimated scf accuracy    <       0.35643476 Ry

     total magnetization       =   150.03 Bohr mag/cell
     absolute magnetization    =   155.04 Bohr mag/cell

     iteration # 10     ecut=    60.00 Ry     beta= 0.20
     Davidson diagonalization with overlap
     ethr =  3.46E-05,  avg # of iterations =  4.5

     negative rho (up, down):  3.263E-04 2.399E-02

     total cpu time spent up to now is     3248.1 secs

     total energy              =  -21092.57318675 Ry
     Harris-Foulkes estimate   =  -21092.57876475 Ry
     estimated scf accuracy    <       0.35399694 Ry

     total magnetization       =   150.50 Bohr mag/cell
     absolute magnetization    =   155.41 Bohr mag/cell

     iteration # 11     ecut=    60.00 Ry     beta= 0.20
     Davidson diagonalization with overlap
     ethr =  3.44E-05,  avg # of iterations =  4.2

     negative rho (up, down):  1.678E-04 2.204E-02

     total cpu time spent up to now is     3416.5 secs

     total energy              =  -21092.60996334 Ry
     Harris-Foulkes estimate   =  -21092.62070347 Ry
     estimated scf accuracy    <       0.24042732 Ry

     total magnetization       =   156.68 Bohr mag/cell
     absolute magnetization    =   161.70 Bohr mag/cell

     iteration # 12     ecut=    60.00 Ry     beta= 0.20
     Davidson diagonalization with overlap
     ethr =  2.34E-05,  avg # of iterations =  3.6

     negative rho (up, down):  1.037E-04 2.063E-02

     total cpu time spent up to now is     3579.5 secs

     total energy              =  -21092.60947780 Ry
     Harris-Foulkes estimate   =  -21092.62604258 Ry
     estimated scf accuracy    <       0.37053365 Ry

     total magnetization       =   158.54 Bohr mag/cell
     absolute magnetization    =   163.59 Bohr mag/cell

     iteration # 13     ecut=    60.00 Ry     beta= 0.20
     Davidson diagonalization with overlap
     ethr =  2.34E-05,  avg # of iterations =  1.8

     negative rho (up, down):  7.956E-05 1.964E-02

     total cpu time spent up to now is     3739.9 secs

     total energy              =  -21092.59974712 Ry
     Harris-Foulkes estimate   =  -21092.61852397 Ry
     estimated scf accuracy    <       0.47545880 Ry

     total magnetization       =   159.95 Bohr mag/cell
     absolute magnetization    =   165.05 Bohr mag/cell

     iteration # 14     ecut=    60.00 Ry     beta= 0.20
     Davidson diagonalization with overlap
     ethr =  2.34E-05,  avg # of iterations =  2.2

     negative rho (up, down):  8.793E-03 4.512E-02

     total cpu time spent up to now is     3908.2 secs

     total energy              =  -21092.58723288 Ry
     Harris-Foulkes estimate   =  -21092.60957702 Ry
     estimated scf accuracy    <       0.12216290 Ry

     total magnetization       =   160.04 Bohr mag/cell
     absolute magnetization    =   165.19 Bohr mag/cell

     iteration # 15     ecut=    60.00 Ry     beta= 0.20
     Davidson diagonalization with overlap
     ethr =  1.19E-05,  avg # of iterations = 14.3

     negative rho (up, down):  8.916E-03 3.584E-02

     total cpu time spent up to now is     4714.6 secs

     total energy              =  -21092.60646366 Ry
     Harris-Foulkes estimate   =  -21092.60868110 Ry
     estimated scf accuracy    <       0.18152591 Ry

     total magnetization       =   161.21 Bohr mag/cell
     absolute magnetization    =   167.25 Bohr mag/cell

     iteration # 16     ecut=    60.00 Ry     beta= 0.20
     Davidson diagonalization with overlap
     ethr =  1.19E-05,  avg # of iterations =  6.6

     negative rho (up, down):  1.131E-01 2.938E-02

     total cpu time spent up to now is     4983.1 secs

     total energy              =  -21092.59218626 Ry
     Harris-Foulkes estimate   =  -21092.60948637 Ry
     estimated scf accuracy    <       0.13794970 Ry

     total magnetization       =   161.74 Bohr mag/cell
     absolute magnetization    =   167.82 Bohr mag/cell

     iteration # 17     ecut=    60.00 Ry     beta= 0.20
     Davidson diagonalization with overlap
     ethr =  1.19E-05,  avg # of iterations =  2.9

     negative rho (up, down):  1.286E-01 2.609E-02

     total cpu time spent up to now is     5187.4 secs

     total energy              =  -21092.58849444 Ry
     Harris-Foulkes estimate   =  -21092.59689934 Ry
     estimated scf accuracy    <       0.11135832 Ry

     total magnetization       =   161.62 Bohr mag/cell
     absolute magnetization    =   167.72 Bohr mag/cell

     iteration # 18     ecut=    60.00 Ry     beta= 0.20
     Davidson diagonalization with overlap
     ethr =  1.08E-05,  avg # of iterations =  2.2

     negative rho (up, down):  1.582E-01 2.472E-02

     total cpu time spent up to now is     5380.3 secs

     total energy              =  -21092.57297454 Ry
     Harris-Foulkes estimate   =  -21092.59130400 Ry
     estimated scf accuracy    <       0.06755706 Ry

     total magnetization       =   161.73 Bohr mag/cell
     absolute magnetization    =   167.86 Bohr mag/cell

     iteration # 19     ecut=    60.00 Ry     beta= 0.20
     Davidson diagonalization with overlap
     c_bands:  3 eigenvalues not converged
     c_bands:  3 eigenvalues not converged
     c_bands:  5 eigenvalues not converged
     ethr =  6.57E-06,  avg # of iterations = 18.3

     negative rho (up, down):  9.920E-02 2.087E-02

     total cpu time spent up to now is     5914.7 secs

     total energy              =  -21092.58211346 Ry
     Harris-Foulkes estimate   =  -21092.58804186 Ry
     estimated scf accuracy    <       0.03682994 Ry

     total magnetization       =   161.32 Bohr mag/cell
     absolute magnetization    =   167.71 Bohr mag/cell

     iteration # 20     ecut=    60.00 Ry     beta= 0.20
     Davidson diagonalization with overlap
     c_bands:  1 eigenvalues not converged
     ethr =  3.58E-06,  avg # of iterations = 14.4

     negative rho (up, down):  1.273E-01 1.781E-02

     total cpu time spent up to now is     6211.9 secs

     total energy              =  -21092.56411198 Ry
     Harris-Foulkes estimate   =  -21092.58541561 Ry
     estimated scf accuracy    <       0.02522986 Ry

     total magnetization       =   160.91 Bohr mag/cell
     absolute magnetization    =   167.34 Bohr mag/cell

     iteration # 21     ecut=    60.00 Ry     beta= 0.20
     Davidson diagonalization with overlap
     c_bands:  1 eigenvalues not converged
     c_bands:  1 eigenvalues not converged
     ethr =  2.45E-06,  avg # of iterations = 15.2

     negative rho (up, down):  1.686E-01 1.560E-02

     total cpu time spent up to now is     6887.3 secs

     total energy              =  -21092.56525561 Ry
     Harris-Foulkes estimate   =  -21092.57128490 Ry
     estimated scf accuracy    <       0.02906594 Ry

     total magnetization       =   160.71 Bohr mag/cell
     absolute magnetization    =   167.41 Bohr mag/cell

     iteration # 22     ecut=    60.00 Ry     beta= 0.20
     Davidson diagonalization with overlap
     ethr =  2.45E-06,  avg # of iterations =  4.5

     negative rho (up, down):  1.318E-01 1.841E-02

     total cpu time spent up to now is     7175.0 secs

     total energy              =  -21092.56034496 Ry
     Harris-Foulkes estimate   =  -21092.56652750 Ry
     estimated scf accuracy    <       0.01082348 Ry

     total magnetization       =   160.94 Bohr mag/cell
     absolute magnetization    =   167.64 Bohr mag/cell

     iteration # 23     ecut=    60.00 Ry     beta= 0.20
     Davidson diagonalization with overlap
     ethr =  1.05E-06,  avg # of iterations =  8.8

     negative rho (up, down):  1.050E-01 1.640E-02

     total cpu time spent up to now is     7558.5 secs

     total energy              =  -21092.56032644 Ry
     Harris-Foulkes estimate   =  -21092.56401028 Ry
     estimated scf accuracy    <       0.01201604 Ry

     total magnetization       =   161.00 Bohr mag/cell
     absolute magnetization    =   167.78 Bohr mag/cell

     iteration # 24     ecut=    60.00 Ry     beta= 0.20
     Davidson diagonalization with overlap
     ethr =  1.05E-06,  avg # of iterations =  5.1

     negative rho (up, down):  8.382E-02 1.693E-02

     total cpu time spent up to now is     7767.0 secs

     total energy              =  -21092.56038449 Ry
     Harris-Foulkes estimate   =  -21092.56145220 Ry
     estimated scf accuracy    <       0.00779616 Ry

     total magnetization       =   160.77 Bohr mag/cell
     absolute magnetization    =   167.57 Bohr mag/cell

     iteration # 25     ecut=    60.00 Ry     beta= 0.20
     Davidson diagonalization with overlap
     ethr =  7.58E-07,  avg # of iterations =  4.5

     negative rho (up, down):  5.330E-02 1.806E-02

     total cpu time spent up to now is     7963.9 secs

     total energy              =  -21092.56142685 Ry
     Harris-Foulkes estimate   =  -21092.56083514 Ry
     estimated scf accuracy    <       0.00445140 Ry

     total magnetization       =   160.63 Bohr mag/cell
     absolute magnetization    =   167.44 Bohr mag/cell

     iteration # 26     ecut=    60.00 Ry     beta= 0.20
     Davidson diagonalization with overlap
     ethr =  4.33E-07,  avg # of iterations = 11.9

     negative rho (up, down):  4.368E-02 1.871E-02

     total cpu time spent up to now is     8441.0 secs

     total energy              =  -21092.56263060 Ry
     Harris-Foulkes estimate   =  -21092.56227740 Ry
     estimated scf accuracy    <       0.00155311 Ry

     total magnetization       =   160.77 Bohr mag/cell
     absolute magnetization    =   167.53 Bohr mag/cell

     iteration # 27     ecut=    60.00 Ry     beta= 0.20
     Davidson diagonalization with overlap
     c_bands:  2 eigenvalues not converged
     ethr =  1.51E-07,  avg # of iterations = 13.8

     negative rho (up, down):  3.276E-02 1.907E-02

     total cpu time spent up to now is     9002.6 secs

     total energy              =  -21092.56345008 Ry
     Harris-Foulkes estimate   =  -21092.56307205 Ry
     estimated scf accuracy    <       0.00069236 Ry

     total magnetization       =   160.83 Bohr mag/cell
     absolute magnetization    =   167.60 Bohr mag/cell

     iteration # 28     ecut=    60.00 Ry     beta= 0.20
     Davidson diagonalization with overlap
     c_bands:  1 eigenvalues not converged
     ethr =  6.73E-08,  avg # of iterations = 12.6

     negative rho (up, down):  3.239E-02 1.885E-02

     total cpu time spent up to now is     9684.4 secs

     total energy              =  -21092.56345036 Ry
     Harris-Foulkes estimate   =  -21092.56370118 Ry
     estimated scf accuracy    <       0.00039117 Ry

     total magnetization       =   160.89 Bohr mag/cell
     absolute magnetization    =   167.69 Bohr mag/cell

     iteration # 29     ecut=    60.00 Ry     beta= 0.20
     Davidson diagonalization with overlap
     c_bands:  2 eigenvalues not converged
     ethr =  3.80E-08,  avg # of iterations =  8.8

     negative rho (up, down):  2.912E-02 1.873E-02

     total cpu time spent up to now is     9970.6 secs

     total energy              =  -21092.56282955 Ry
     Harris-Foulkes estimate   =  -21092.56348198 Ry
     estimated scf accuracy    <       0.00025032 Ry

     total magnetization       =   160.90 Bohr mag/cell
     absolute magnetization    =   167.70 Bohr mag/cell

     iteration # 30     ecut=    60.00 Ry     beta= 0.20
     Davidson diagonalization with overlap
     c_bands:  2 eigenvalues not converged
     ethr =  2.43E-08,  avg # of iterations =  8.8

     negative rho (up, down):  2.692E-02 1.876E-02

     total cpu time spent up to now is    10413.3 secs

     total energy              =  -21092.56234245 Ry
     Harris-Foulkes estimate   =  -21092.56287766 Ry
     estimated scf accuracy    <       0.00025845 Ry

     total magnetization       =   160.89 Bohr mag/cell
     absolute magnetization    =   167.71 Bohr mag/cell

     iteration # 31     ecut=    60.00 Ry     beta= 0.20
     Davidson diagonalization with overlap
     c_bands:  2 eigenvalues not converged
     ethr =  2.43E-08,  avg # of iterations =  8.1

     negative rho (up, down):  2.533E-02 1.877E-02

     total cpu time spent up to now is    10718.7 secs

     total energy              =  -21092.56192346 Ry
     Harris-Foulkes estimate   =  -21092.56237919 Ry
     estimated scf accuracy    <       0.00005748 Ry

     total magnetization       =   160.87 Bohr mag/cell
     absolute magnetization    =   167.68 Bohr mag/cell

     iteration # 32     ecut=    60.00 Ry     beta= 0.20
     Davidson diagonalization with overlap
     c_bands:  2 eigenvalues not converged
     ethr =  5.59E-09,  avg # of iterations = 12.8

     negative rho (up, down):  2.541E-02 1.863E-02

     total cpu time spent up to now is    11514.2 secs

     total energy              =  -21092.56119053 Ry
     Harris-Foulkes estimate   =  -21092.56196467 Ry
     estimated scf accuracy    <       0.00005397 Ry

     total magnetization       =   160.86 Bohr mag/cell
     absolute magnetization    =   167.66 Bohr mag/cell

     iteration # 33     ecut=    60.00 Ry     beta= 0.20
     Davidson diagonalization with overlap
     ethr =  5.24E-09,  avg # of iterations =  4.6

     negative rho (up, down):  2.614E-02 1.867E-02

     total cpu time spent up to now is    11766.3 secs

     total energy              =  -21092.55959850 Ry
     Harris-Foulkes estimate   =  -21092.56119524 Ry
     estimated scf accuracy    <       0.00002702 Ry

     total magnetization       =   160.86 Bohr mag/cell
     absolute magnetization    =   167.66 Bohr mag/cell

     iteration # 34     ecut=    60.00 Ry     beta= 0.20
     Davidson diagonalization with overlap
     ethr =  2.63E-09,  avg # of iterations =  9.9

     negative rho (up, down):  2.578E-02 1.871E-02

     total cpu time spent up to now is    12254.0 secs

     total energy              =  -21092.55953335 Ry
     Harris-Foulkes estimate   =  -21092.55960611 Ry
     estimated scf accuracy    <       0.00001680 Ry

     total magnetization       =   160.86 Bohr mag/cell
     absolute magnetization    =   167.66 Bohr mag/cell

     iteration # 35     ecut=    60.00 Ry     beta= 0.20
     Davidson diagonalization with overlap
     ethr =  1.63E-09,  avg # of iterations =  7.7

     negative rho (up, down):  2.546E-02 1.868E-02

     total cpu time spent up to now is    12535.2 secs

     total energy              =  -21092.55916479 Ry
     Harris-Foulkes estimate   =  -21092.55953532 Ry
     estimated scf accuracy    <       0.00000766 Ry

     total magnetization       =   160.86 Bohr mag/cell
     absolute magnetization    =   167.66 Bohr mag/cell

     iteration # 36     ecut=    60.00 Ry     beta= 0.20
     Davidson diagonalization with overlap
     ethr =  7.44E-10,  avg # of iterations =  9.4

     negative rho (up, down):  2.561E-02 1.868E-02

     total cpu time spent up to now is    13157.0 secs

     total energy              =  -21092.55915605 Ry
     Harris-Foulkes estimate   =  -21092.55916900 Ry
     estimated scf accuracy    <       0.00000379 Ry

     total magnetization       =   160.86 Bohr mag/cell
     absolute magnetization    =   167.66 Bohr mag/cell

     iteration # 37     ecut=    60.00 Ry     beta= 0.20
     Davidson diagonalization with overlap
     ethr =  3.68E-10,  avg # of iterations =  5.0

     negative rho (up, down):  2.572E-02 1.870E-02

     total cpu time spent up to now is    13398.7 secs

     total energy              =  -21092.55915497 Ry
     Harris-Foulkes estimate   =  -21092.55915645 Ry
     estimated scf accuracy    <       0.00000249 Ry

     total magnetization       =   160.86 Bohr mag/cell
     absolute magnetization    =   167.66 Bohr mag/cell

     iteration # 38     ecut=    60.00 Ry     beta= 0.20
     Davidson diagonalization with overlap
     ethr =  2.42E-10,  avg # of iterations =  7.5

     negative rho (up, down):  2.547E-02 1.871E-02

     total cpu time spent up to now is    14089.2 secs

     total energy              =  -21092.55909035 Ry
     Harris-Foulkes estimate   =  -21092.55915568 Ry
     estimated scf accuracy    <       0.00000166 Ry

     total magnetization       =   160.87 Bohr mag/cell
     absolute magnetization    =   167.67 Bohr mag/cell

     iteration # 39     ecut=    60.00 Ry     beta= 0.20
     Davidson diagonalization with overlap
     ethr =  1.61E-10,  avg # of iterations =  7.4

     negative rho (up, down):  2.547E-02 1.873E-02

     total cpu time spent up to now is    14456.4 secs

     total energy              =  -21092.55905446 Ry
     Harris-Foulkes estimate   =  -21092.55909076 Ry
     estimated scf accuracy    <       0.00000124 Ry

     total magnetization       =   160.87 Bohr mag/cell
     absolute magnetization    =   167.67 Bohr mag/cell

     iteration # 40     ecut=    60.00 Ry     beta= 0.20
     Davidson diagonalization with overlap
     ethr =  1.20E-10,  avg # of iterations =  2.0

     negative rho (up, down):  2.538E-02 1.877E-02

     total cpu time spent up to now is    14604.6 secs

     total energy              =  -21092.55900540 Ry
     Harris-Foulkes estimate   =  -21092.55905457 Ry
     estimated scf accuracy    <       0.00000050 Ry

     total magnetization       =   160.87 Bohr mag/cell
     absolute magnetization    =   167.67 Bohr mag/cell

     iteration # 41     ecut=    60.00 Ry     beta= 0.20
     Davidson diagonalization with overlap
     ethr =  4.86E-11,  avg # of iterations =  7.7

     negative rho (up, down):  2.527E-02 1.876E-02

     total cpu time spent up to now is    15058.0 secs

     total energy              =  -21092.55904015 Ry
     Harris-Foulkes estimate   =  -21092.55900568 Ry
     estimated scf accuracy    <       0.00000023 Ry

     total magnetization       =   160.87 Bohr mag/cell
     absolute magnetization    =   167.68 Bohr mag/cell

     iteration # 42     ecut=    60.00 Ry     beta= 0.20
     Davidson diagonalization with overlap
     ethr =  2.21E-11,  avg # of iterations =  6.0

     negative rho (up, down):  2.518E-02 1.876E-02

     total cpu time spent up to now is    15256.3 secs

     total energy              =  -21092.55905762 Ry
     Harris-Foulkes estimate   =  -21092.55904018 Ry
     estimated scf accuracy    <       0.00000016 Ry

     total magnetization       =   160.87 Bohr mag/cell
     absolute magnetization    =   167.68 Bohr mag/cell

     iteration # 43     ecut=    60.00 Ry     beta= 0.20
     Davidson diagonalization with overlap
     ethr =  1.55E-11,  avg # of iterations =  8.1

     negative rho (up, down):  2.516E-02 1.875E-02

     total cpu time spent up to now is    15618.5 secs

     total energy              =  -21092.55907134 Ry
     Harris-Foulkes estimate   =  -21092.55905765 Ry
     estimated scf accuracy    <       0.00000008 Ry

     total magnetization       =   160.87 Bohr mag/cell
     absolute magnetization    =   167.68 Bohr mag/cell

     iteration # 44     ecut=    60.00 Ry     beta= 0.20
     Davidson diagonalization with overlap
     ethr =  7.95E-12,  avg # of iterations =  8.4

     negative rho (up, down):  2.517E-02 1.875E-02

     total cpu time spent up to now is    16197.0 secs

     total energy              =  -21092.55907585 Ry
     Harris-Foulkes estimate   =  -21092.55907136 Ry
     estimated scf accuracy    <       0.00000002 Ry

     total magnetization       =   160.87 Bohr mag/cell
     absolute magnetization    =   167.68 Bohr mag/cell

     iteration # 45     ecut=    60.00 Ry     beta= 0.20
     Davidson diagonalization with overlap
     ethr =  1.54E-12,  avg # of iterations =  7.3

     negative rho (up, down):  2.519E-02 1.875E-02

     total cpu time spent up to now is    16624.6 secs

     total energy              =  -21092.55907210 Ry
     Harris-Foulkes estimate   =  -21092.55907586 Ry
     estimated scf accuracy    <       0.00000001 Ry

     total magnetization       =   160.87 Bohr mag/cell
     absolute magnetization    =   167.68 Bohr mag/cell

     iteration # 46     ecut=    60.00 Ry     beta= 0.20
     Davidson diagonalization with overlap
     ethr =  1.33E-12,  avg # of iterations =  2.8

     negative rho (up, down):  2.520E-02 1.876E-02

     Magnetic moment per site:
     atom:    1    charge:   12.6182    magn:    2.3637    constr:    0.0000
     atom:    2    charge:   12.6076    magn:    2.1710    constr:    0.0000
     atom:    3    charge:   12.6177    magn:    2.3665    constr:    0.0000
     atom:    4    charge:   12.6059    magn:    2.2073    constr:    0.0000
     atom:    5    charge:   12.6094    magn:    2.1988    constr:    0.0000
     atom:    6    charge:   12.6117    magn:    2.3569    constr:    0.0000
     atom:    7    charge:   12.6057    magn:    2.2631    constr:    0.0000
     atom:    8    charge:   12.6150    magn:    2.3557    constr:    0.0000
     atom:    9    charge:   12.6182    magn:    2.3598    constr:    0.0000
     atom:   10    charge:   12.6181    magn:    2.3619    constr:    0.0000
     atom:   11    charge:   12.6063    magn:    2.2102    constr:    0.0000
     atom:   12    charge:   12.6069    magn:    2.2009    constr:    0.0000
     atom:   13    charge:   12.6059    magn:    2.2107    constr:    0.0000
     atom:   14    charge:   12.6100    magn:    2.1936    constr:    0.0000
     atom:   15    charge:   12.6181    magn:    2.3328    constr:    0.0000
     atom:   16    charge:   12.6170    magn:    2.3272    constr:    0.0000
     atom:   17    charge:   12.6175    magn:    2.3664    constr:    0.0000
     atom:   18    charge:   12.6059    magn:    2.2073    constr:    0.0000
     atom:   19    charge:   12.6175    magn:    2.3665    constr:    0.0000
     atom:   20    charge:   12.6057    magn:    2.2200    constr:    0.0000
     atom:   21    charge:   12.6060    magn:    2.2629    constr:    0.0000
     atom:   22    charge:   12.6149    magn:    2.3558    constr:    0.0000
     atom:   23    charge:   12.6060    magn:    2.2629    constr:    0.0000
     atom:   24    charge:   12.6263    magn:    1.6142    constr:    0.0000
     atom:   25    charge:   12.6175    magn:    2.3665    constr:    0.0000
     atom:   26    charge:   12.6174    magn:    2.3690    constr:    0.0000
     atom:   27    charge:   12.6056    magn:    2.2313    constr:    0.0000
     atom:   28    charge:   12.6063    magn:    2.2101    constr:    0.0000
     atom:   29    charge:   12.6073    magn:    2.2833    constr:    0.0000
     atom:   30    charge:   12.6109    magn:    2.0843    constr:    0.0000
     atom:   31    charge:   12.6118    magn:    2.1465    constr:    0.0000
     atom:   32    charge:   12.6181    magn:    2.3328    constr:    0.0000
     atom:   33    charge:   12.6181    magn:    2.3637    constr:    0.0000
     atom:   34    charge:   12.6059    magn:    2.2073    constr:    0.0000
     atom:   35    charge:   12.6181    magn:    2.3637    constr:    0.0000
     atom:   36    charge:   12.6080    magn:    2.1711    constr:    0.0000
     atom:   37    charge:   12.6093    magn:    2.1988    constr:    0.0000
     atom:   38    charge:   12.6149    magn:    2.3558    constr:    0.0000
     atom:   39    charge:   12.6093    magn:    2.1989    constr:    0.0000
     atom:   40    charge:   12.6112    magn:    2.3572    constr:    0.0000
     atom:   41    charge:   12.6185    magn:    2.3666    constr:    0.0000
     atom:   42    charge:   12.6179    magn:    2.3692    constr:    0.0000
     atom:   43    charge:   12.6069    magn:    2.2009    constr:    0.0000
     atom:   44    charge:   12.6063    magn:    2.2102    constr:    0.0000
     atom:   45    charge:   12.6092    magn:    2.1454    constr:    0.0000
     atom:   46    charge:   12.6108    magn:    2.0843    constr:    0.0000
     atom:   47    charge:   12.6170    magn:    2.3271    constr:    0.0000
     atom:   48    charge:   12.6179    magn:    2.3330    constr:    0.0000
     atom:   49    charge:   12.6177    magn:    2.3665    constr:    0.0000
     atom:   50    charge:   12.6062    magn:    2.2204    constr:    0.0000
     atom:   51    charge:   12.6182    magn:    2.3637    constr:    0.0000
     atom:   52    charge:   12.6059    magn:    2.2073    constr:    0.0000
     atom:   53    charge:   12.6057    magn:    2.2632    constr:    0.0000
     atom:   54    charge:   12.6262    magn:    1.6143    constr:    0.0000
     atom:   55    charge:   12.6094    magn:    2.1987    constr:    0.0000
     atom:   56    charge:   12.6150    magn:    2.3556    constr:    0.0000
     atom:   57    charge:   12.6182    magn:    2.3598    constr:    0.0000
     atom:   58    charge:   12.6181    magn:    2.3619    constr:    0.0000
     atom:   59    charge:   12.6063    magn:    2.2103    constr:    0.0000
     atom:   60    charge:   12.6056    magn:    2.2314    constr:    0.0000
     atom:   61    charge:   12.6059    magn:    2.2107    constr:    0.0000
     atom:   62    charge:   12.6100    magn:    2.1937    constr:    0.0000
     atom:   63    charge:   12.6179    magn:    2.3331    constr:    0.0000
     atom:   64    charge:   12.6118    magn:    2.1466    constr:    0.0000
     atom:   65    charge:    3.7362    magn:   -0.1326    constr:    0.0000

     total cpu time spent up to now is    16779.5 secs

     End of self-consistent calculation

 ------ SPIN UP ------------


          k = 0.0000 0.0000 0.0000 (128403 PWs)   bands (ev):

   -91.0646 -91.0158 -91.0154 -91.0000 -90.9930 -90.9851 -90.9718 -90.9669
   -90.9645 -90.9641 -90.9626 -90.9620 -90.9555 -90.9551 -90.9524 -90.9501
   -90.9495 -90.9489 -90.9467 -90.9396 -90.9391 -90.9390 -90.9380 -90.9349
   -90.9316 -90.9309 -90.9286 -90.9285 -90.9203 -90.9094 -90.9075 -90.9004
   -90.8985 -90.8970 -90.8968 -90.8451 -90.8341 -90.8332 -90.8281 -90.8273
   -90.8246 -90.8187 -90.8158 -90.8140 -90.8105 -90.8092 -90.8073 -90.8061
   -90.8037 -90.8014 -90.7989 -90.7986 -90.7964 -90.7960 -90.7940 -90.7931
   -90.7897 -90.7848 -90.7825 -90.7776 -90.7740 -90.7579 -90.7495 -90.7487
   -57.2391 -57.1991 -57.1813 -57.1799 -57.1779 -57.1761 -57.1648 -57.1603
   -57.1585 -57.1548 -57.1545 -57.1532 -57.1524 -57.1491 -57.1461 -57.1456
   -57.1437 -57.1424 -57.1422 -57.1405 -57.1374 -57.1355 -57.1334 -57.1300
   -57.1289 -57.1278 -57.1247 -57.1235 -57.1222 -57.1167 -57.1134 -57.1094
   -57.1084 -57.1068 -57.1034 -57.1015 -57.0979 -57.0912 -57.0897 -57.0892
   -57.0881 -57.0752 -57.0675 -57.0672 -57.0650 -57.0635 -57.0572 -57.0533
   -57.0434 -57.0393 -57.0306 -57.0242 -57.0193 -57.0127 -57.0080 -57.0070
   -57.0054 -57.0032 -57.0001 -56.9990 -56.9943 -56.9929 -56.9916 -56.9883
   -56.9878 -56.9833 -56.9827 -56.9811 -56.9794 -56.9784 -56.9718 -56.9693
   -56.9650 -56.9649 -56.9617 -56.9597 -56.9531 -56.9513 -56.9488 -56.9468
   -56.9418 -56.9396 -56.9377 -56.9364 -56.9356 -56.9352 -56.9326 -56.9255
   -56.9248 -56.9239 -56.9218 -56.9217 -56.9216 -56.9183 -56.9169 -56.9163
   -56.9161 -56.9145 -56.9106 -56.9075 -56.9070 -56.9020 -56.8987 -56.8972
   -56.8954 -56.8939 -56.8894 -56.8877 -56.8860 -56.8830 -56.8812 -56.8782
   -56.8781 -56.8768 -56.8706 -56.8674 -56.8666 -56.8608 -56.8608 -56.8587
   -56.8576 -56.8565 -56.8560 -56.8521 -56.8504 -56.8485 -56.8473 -56.8457
   -56.8434 -56.8426 -56.8382 -56.8378 -56.8374 -56.8364 -56.8326 -56.8324
   -56.8193 -56.8188 -56.8180 -56.8172 -56.8136 -56.8117 -56.8108 -56.8098
   -56.8049 -56.8037 -56.8016 -56.8016 -56.7974 -56.7963 -56.7921 -56.7898
   -56.7897 -56.7897 -56.7888 -56.7870 -56.7834 -56.7788 -56.7784 -56.7772
   -56.7769 -56.7719 -56.7678 -56.7672 -56.7662 -56.7605 -56.7582 -56.7528
   -56.7509 -56.7496 -56.7410 -56.7393 -56.7391 -56.7366 -56.7340 -56.7289
   -56.7253 -56.7232 -56.7166 -56.7154 -56.7152 -56.7126 -56.7122 -56.7065
   -56.7049 -56.7009 -56.6976 -56.6947 -56.6939 -56.6921 -56.6215 -56.6208
   -18.4176 -10.7256  -9.4676  -9.4485  -9.3991  -9.1117  -9.0654  -8.9393
    -8.8776  -8.6614  -8.5558  -8.3281  -8.1066  -8.0892  -7.9853  -7.9266
    -7.8963  -7.6616  -7.6249  -7.5731  -7.4546  -7.4261  -7.4235  -7.3977
    -7.3802  -7.3532  -7.3445  -7.2731  -7.1913  -7.0459  -6.9954  -6.9927
    -6.9664  -6.9474  -6.9339  -6.9081  -6.8922  -6.8840  -6.8752  -6.8687
    -6.8595  -6.8593  -6.8561  -6.8509  -6.8465  -6.8366  -6.8234  -6.8214
    -6.8005  -6.7958  -6.7932  -6.7736  -6.7735  -6.7673  -6.7395  -6.7240
    -6.6990  -6.6770  -6.6637  -6.6107  -6.6067  -6.5959  -6.5904  -6.5249
    -6.4346  -6.3471  -6.3314  -6.3063  -6.2847  -6.2790  -6.2746  -6.2743
    -6.2401  -6.2010  -6.1573  -6.1328  -6.1199  -6.1169  -6.1111  -6.0982
    -6.0979  -6.0972  -6.0775  -6.0724  -6.0622  -6.0579  -6.0577  -6.0554
    -6.0520  -6.0371  -6.0294  -6.0264  -6.0172  -6.0136  -5.9966  -5.9892
    -5.9804  -5.9696  -5.9619  -5.9550  -5.9526  -5.9445  -5.9437  -5.9327
    -5.9273  -5.9145  -5.9074  -5.9064  -5.8949  -5.8250  -5.8157  -5.8143
    -5.7464  -5.7463  -5.7454  -5.7376  -5.7315  -5.6985  -5.6643  -5.6495
    -5.6215  -5.5809  -5.5565  -5.5436  -5.5292  -5.5286  -5.5186  -5.5166
    -5.5108  -5.4957  -5.4950  -5.4538  -5.4451  -5.4426  -5.4228  -5.4156
    -5.4101  -5.4000  -5.3954  -5.3856  -5.3826  -5.3803  -5.3726  -5.3557
    -5.3479  -5.3208  -5.3047  -5.2618  -5.2276  -5.2252  -5.2241  -5.2189
    -5.2187  -5.1980  -5.1942  -5.1723  -5.1718  -5.1530  -5.1429  -5.1127
    -5.0955  -5.0951  -5.0898  -5.0877  -5.0843  -5.0814  -5.0745  -5.0691
    -5.0671  -5.0209  -4.9991  -4.9906  -4.9903  -4.9695  -4.9675  -4.9661
    -4.9530  -4.9426  -4.9410  -4.9406  -4.9385  -4.9264  -4.9211  -4.9004
    -4.8904  -4.8472  -4.8358  -4.8135  -4.7008  -4.6881  -4.5787  -4.5507
    -4.4474  -4.4287  -4.4231  -4.4200  -4.4169  -4.4114  -4.4073  -4.4010
    -4.3918  -4.3845  -4.3692  -4.3643  -4.3559  -4.3513  -4.3218  -4.3013
    -4.2969  -4.2804  -4.2605  -4.2588  -4.2586  -4.2388  -4.2282  -4.2249
    -4.2181  -4.2108  -4.2104  -4.2091  -4.1862  -4.1844  -4.1684  -4.1671
    -4.1544  -4.1459  -4.1449  -4.1362  -4.1138  -4.0999  -4.0981  -4.0854
    -4.0765  -4.0733  -4.0698  -4.0679  -4.0661  -4.0472  -4.0434  -4.0392
    -4.0379  -4.0337  -4.0238  -4.0190  -4.0148  -4.0020  -3.9963  -3.9937
    -3.9920  -3.9907  -3.9834  -3.9788  -3.9783  -3.9779  -3.9680  -3.9656
    -3.9642  -3.9588  -3.9468  -3.9466  -3.9396  -3.9310  -3.9281  -3.9215
    -3.9184  -3.8988  -3.8981  -3.8855  -3.8814  -3.8800  -3.8787  -3.8683
    -3.8654  -3.8616  -3.8580  -3.8576  -3.8374  -3.8329  -3.8133  -3.8097
    -3.7961  -3.7792  -3.7686  -3.7682  -3.7572  -3.7533  -3.7474  -3.7440
    -3.7365  -3.7299  -3.7091  -3.6967  -3.6294  -3.6153  -3.6121  -3.6054
    -3.6033  -3.6000  -3.5983  -3.5941  -3.5923  -3.5777  -3.5645  -3.5634
    -3.5585  -3.5469  -3.5445  -3.5403  -3.5314  -3.5311  -3.5045  -3.5002
    -3.4925  -3.4366  -3.4288  -3.2453  -3.1613  -3.1392  -3.1226  -3.1093
    -3.0803  -3.0403  -3.0154  -3.0080  -2.9886  -2.9586  -2.9400  -2.9184
    -2.9176  -2.8656  -2.8637  -2.8625  -2.8300  -2.8035  -2.8020  -2.7901
    -2.7637  -2.7304  -2.6695  -2.6466  -2.6433  -2.5908  -2.5818  -2.5382
    -2.5116  -2.2522  -2.1853  -2.1026  -1.8956  -1.7959  -1.7825  -1.7712
    -1.7376  -1.3696  -1.2292  -1.1663  -0.9765  -0.9243  -0.9217  -0.8256
    -0.8208  -0.8149

          k = 0.0000 0.2652 0.0000 (128375 PWs)   bands (ev):

   -91.0646 -91.0157 -91.0155 -90.9999 -90.9930 -90.9840 -90.9744 -90.9663
   -90.9645 -90.9642 -90.9632 -90.9600 -90.9569 -90.9547 -90.9540 -90.9502
   -90.9487 -90.9468 -90.9464 -90.9404 -90.9395 -90.9391 -90.9381 -90.9352
   -90.9315 -90.9304 -90.9288 -90.9273 -90.9211 -90.9095 -90.9074 -90.9002
   -90.8990 -90.8972 -90.8964 -90.8442 -90.8375 -90.8304 -90.8301 -90.8261
   -90.8233 -90.8190 -90.8168 -90.8128 -90.8104 -90.8097 -90.8072 -90.8063
   -90.8046 -90.8021 -90.7987 -90.7969 -90.7965 -90.7953 -90.7940 -90.7930
   -90.7894 -90.7865 -90.7833 -90.7764 -90.7737 -90.7581 -90.7494 -90.7488
   -57.2389 -57.1968 -57.1846 -57.1802 -57.1762 -57.1752 -57.1674 -57.1607
   -57.1573 -57.1563 -57.1544 -57.1526 -57.1507 -57.1477 -57.1471 -57.1462
   -57.1435 -57.1415 -57.1400 -57.1382 -57.1373 -57.1341 -57.1327 -57.1312
   -57.1282 -57.1264 -57.1248 -57.1239 -57.1201 -57.1177 -57.1148 -57.1115
   -57.1098 -57.1057 -57.0988 -57.0974 -57.0965 -57.0893 -57.0868 -57.0852
   -57.0791 -57.0734 -57.0728 -57.0666 -57.0619 -57.0559 -57.0534 -57.0526
   -57.0511 -57.0354 -57.0344 -57.0266 -57.0230 -57.0168 -57.0152 -57.0126
   -57.0089 -57.0058 -57.0019 -56.9985 -56.9963 -56.9956 -56.9897 -56.9880
   -56.9858 -56.9856 -56.9838 -56.9811 -56.9809 -56.9798 -56.9770 -56.9759
   -56.9740 -56.9710 -56.9698 -56.9661 -56.9638 -56.9574 -56.9558 -56.9520
   -56.9514 -56.9474 -56.9441 -56.9405 -56.9371 -56.9341 -56.9325 -56.9303
   -56.9268 -56.9265 -56.9240 -56.9182 -56.9168 -56.9140 -56.9132 -56.9127
   -56.9089 -56.9048 -56.9038 -56.9021 -56.8983 -56.8952 -56.8937 -56.8927
   -56.8911 -56.8895 -56.8887 -56.8855 -56.8842 -56.8823 -56.8820 -56.8786
   -56.8778 -56.8751 -56.8732 -56.8706 -56.8675 -56.8663 -56.8644 -56.8618
   -56.8594 -56.8557 -56.8545 -56.8502 -56.8496 -56.8457 -56.8450 -56.8423
   -56.8412 -56.8388 -56.8375 -56.8337 -56.8313 -56.8304 -56.8256 -56.8250
   -56.8214 -56.8198 -56.8173 -56.8145 -56.8129 -56.8104 -56.8069 -56.8057
   -56.8047 -56.8035 -56.8004 -56.7995 -56.7972 -56.7953 -56.7922 -56.7907
   -56.7887 -56.7885 -56.7857 -56.7837 -56.7824 -56.7824 -56.7789 -56.7779
   -56.7758 -56.7730 -56.7688 -56.7658 -56.7640 -56.7589 -56.7568 -56.7529
   -56.7474 -56.7455 -56.7436 -56.7401 -56.7380 -56.7366 -56.7328 -56.7303
   -56.7267 -56.7255 -56.7215 -56.7199 -56.7181 -56.7150 -56.7131 -56.7097
   -56.7067 -56.7062 -56.7019 -56.6961 -56.6955 -56.6931 -56.6220 -56.6211
   -18.4175 -10.6149  -9.7988  -9.4434  -9.3922  -9.2003  -9.1229  -8.9124
    -8.7438  -8.5615  -8.3955  -8.2601  -8.1313  -8.0422  -7.9589  -7.9007
    -7.7405  -7.7013  -7.6265  -7.5377  -7.4701  -7.4324  -7.3735  -7.3688
    -7.3489  -7.3236  -7.3070  -7.2739  -7.2582  -7.1456  -7.0887  -7.0489
    -7.0299  -7.0033  -6.9950  -6.9847  -6.9780  -6.9644  -6.9493  -6.9344
    -6.9328  -6.9057  -6.8981  -6.8772  -6.8737  -6.8483  -6.8353  -6.8218
    -6.7966  -6.7928  -6.7734  -6.7648  -6.7474  -6.7169  -6.7027  -6.7012
    -6.6937  -6.6886  -6.6472  -6.6008  -6.5706  -6.5322  -6.5291  -6.4921
    -6.4695  -6.4264  -6.4065  -6.3663  -6.3395  -6.3059  -6.2796  -6.2455
    -6.2251  -6.2043  -6.1718  -6.1405  -6.1322  -6.1162  -6.1143  -6.1000
    -6.0909  -6.0859  -6.0747  -6.0679  -6.0605  -6.0527  -6.0418  -6.0330
    -6.0247  -6.0124  -6.0105  -6.0016  -5.9936  -5.9862  -5.9825  -5.9747
    -5.9697  -5.9631  -5.9562  -5.9518  -5.9405  -5.9240  -5.9217  -5.8885
    -5.8740  -5.8664  -5.8535  -5.8520  -5.8446  -5.8262  -5.8225  -5.8048
    -5.7956  -5.7902  -5.7340  -5.7082  -5.6974  -5.6839  -5.6716  -5.6451
    -5.6324  -5.6143  -5.6019  -5.5880  -5.5656  -5.5262  -5.5155  -5.5099
    -5.5009  -5.4877  -5.4818  -5.4805  -5.4672  -5.4578  -5.4523  -5.4467
    -5.4275  -5.4127  -5.4121  -5.3981  -5.3928  -5.3785  -5.3694  -5.3565
    -5.3336  -5.3055  -5.2863  -5.2788  -5.2449  -5.2404  -5.2351  -5.2325
    -5.2230  -5.2094  -5.2001  -5.1942  -5.1891  -5.1820  -5.1695  -5.1628
    -5.1527  -5.1506  -5.1426  -5.1288  -5.1101  -5.0939  -5.0558  -5.0428
    -5.0395  -5.0204  -5.0192  -4.9950  -4.9875  -4.9687  -4.9549  -4.9391
    -4.9348  -4.9186  -4.9098  -4.8814  -4.8673  -4.8481  -4.8184  -4.8056
    -4.7926  -4.7524  -4.7449  -4.7275  -4.6747  -4.5780  -4.5589  -4.5417
    -4.5278  -4.5166  -4.4908  -4.4630  -4.4561  -4.4428  -4.4161  -4.4042
    -4.3936  -4.3869  -4.3755  -4.3620  -4.3598  -4.3537  -4.3425  -4.3319
    -4.3251  -4.3032  -4.3031  -4.2856  -4.2756  -4.2670  -4.2539  -4.2278
    -4.2233  -4.2153  -4.2028  -4.1934  -4.1900  -4.1756  -4.1713  -4.1693
    -4.1626  -4.1569  -4.1419  -4.1172  -4.1076  -4.1056  -4.0967  -4.0853
    -4.0805  -4.0749  -4.0698  -4.0622  -4.0565  -4.0510  -4.0496  -4.0426
    -4.0357  -4.0274  -4.0182  -4.0144  -4.0060  -3.9968  -3.9916  -3.9851
    -3.9792  -3.9746  -3.9670  -3.9595  -3.9552  -3.9507  -3.9489  -3.9405
    -3.9334  -3.9312  -3.9209  -3.9176  -3.9050  -3.8991  -3.8951  -3.8913
    -3.8838  -3.8814  -3.8771  -3.8729  -3.8702  -3.8627  -3.8597  -3.8453
    -3.8437  -3.8394  -3.8299  -3.8191  -3.8076  -3.8031  -3.7896  -3.7829
    -3.7692  -3.7437  -3.7370  -3.7309  -3.7266  -3.7214  -3.7134  -3.6969
    -3.6938  -3.6842  -3.6759  -3.6705  -3.6646  -3.6604  -3.6415  -3.6271
    -3.6121  -3.6041  -3.6019  -3.5951  -3.5889  -3.5761  -3.5668  -3.5641
    -3.5525  -3.5459  -3.5227  -3.5131  -3.4960  -3.4574  -3.4267  -3.4185
    -3.4082  -3.3743  -3.2480  -3.2266  -3.2216  -3.1885  -3.1505  -3.1403
    -3.1269  -3.1120  -3.0914  -3.0621  -3.0435  -3.0184  -3.0109  -3.0009
    -2.9755  -2.9663  -2.9520  -2.9500  -2.9321  -2.9192  -2.8995  -2.8842
    -2.8680  -2.8005  -2.7971  -2.7749  -2.7370  -2.6897  -2.5615  -2.4000
    -2.2695  -2.2372  -2.1612  -2.0689  -2.0061  -1.9009  -1.7727  -1.7570
    -1.5427  -1.5133  -1.4972  -1.4718  -1.3578  -1.1936  -1.1525  -1.0443
    -1.0212  -0.8924

          k = 0.0000-0.5303 0.0000 (128388 PWs)   bands (ev):

   -91.0646 -91.0156 -91.0155 -90.9999 -90.9931 -90.9823 -90.9773 -90.9655
   -90.9644 -90.9638 -90.9628 -90.9615 -90.9574 -90.9545 -90.9519 -90.9519
   -90.9495 -90.9448 -90.9444 -90.9422 -90.9394 -90.9393 -90.9393 -90.9341
   -90.9326 -90.9297 -90.9293 -90.9254 -90.9223 -90.9096 -90.9074 -90.8997
   -90.8997 -90.8973 -90.8961 -90.8418 -90.8410 -90.8310 -90.8282 -90.8264
   -90.8221 -90.8217 -90.8149 -90.8117 -90.8104 -90.8104 -90.8075 -90.8064
   -90.8064 -90.8023 -90.7986 -90.7963 -90.7958 -90.7942 -90.7937 -90.7927
   -90.7897 -90.7882 -90.7839 -90.7759 -90.7730 -90.7585 -90.7491 -90.7491
   -57.2387 -57.1913 -57.1904 -57.1805 -57.1751 -57.1736 -57.1701 -57.1615
   -57.1576 -57.1550 -57.1540 -57.1523 -57.1505 -57.1479 -57.1478 -57.1448
   -57.1428 -57.1411 -57.1365 -57.1365 -57.1358 -57.1335 -57.1327 -57.1321
   -57.1280 -57.1245 -57.1239 -57.1231 -57.1214 -57.1193 -57.1154 -57.1121
   -57.1108 -57.1048 -57.0987 -57.0960 -57.0868 -57.0835 -57.0815 -57.0788
   -57.0788 -57.0736 -57.0735 -57.0662 -57.0604 -57.0544 -57.0494 -57.0454
   -57.0415 -57.0386 -57.0380 -57.0339 -57.0327 -57.0230 -57.0228 -57.0217
   -57.0169 -57.0129 -57.0074 -56.9992 -56.9975 -56.9969 -56.9957 -56.9930
   -56.9895 -56.9848 -56.9826 -56.9818 -56.9795 -56.9787 -56.9763 -56.9760
   -56.9741 -56.9678 -56.9672 -56.9634 -56.9633 -56.9614 -56.9612 -56.9583
   -56.9528 -56.9524 -56.9493 -56.9481 -56.9447 -56.9434 -56.9401 -56.9373
   -56.9342 -56.9340 -56.9237 -56.9203 -56.9176 -56.9172 -56.9115 -56.9065
   -56.9047 -56.9039 -56.9012 -56.8996 -56.8976 -56.8945 -56.8907 -56.8895
   -56.8890 -56.8844 -56.8841 -56.8833 -56.8808 -56.8799 -56.8759 -56.8754
   -56.8705 -56.8673 -56.8671 -56.8643 -56.8639 -56.8609 -56.8582 -56.8577
   -56.8559 -56.8550 -56.8533 -56.8526 -56.8523 -56.8488 -56.8453 -56.8408
   -56.8398 -56.8391 -56.8372 -56.8353 -56.8312 -56.8268 -56.8261 -56.8236
   -56.8230 -56.8221 -56.8161 -56.8147 -56.8122 -56.8120 -56.8085 -56.8034
   -56.8026 -56.7979 -56.7974 -56.7971 -56.7970 -56.7949 -56.7939 -56.7913
   -56.7890 -56.7876 -56.7872 -56.7850 -56.7842 -56.7831 -56.7772 -56.7747
   -56.7678 -56.7660 -56.7649 -56.7639 -56.7587 -56.7560 -56.7558 -56.7507
   -56.7462 -56.7457 -56.7418 -56.7380 -56.7370 -56.7357 -56.7339 -56.7325
   -56.7314 -56.7288 -56.7263 -56.7229 -56.7220 -56.7194 -56.7186 -56.7153
   -56.7109 -56.7105 -56.7062 -56.6966 -56.6960 -56.6936 -56.6225 -56.6215
   -18.4175 -10.3278 -10.2512  -9.4436  -9.3739  -9.1902  -8.9989  -8.9855
    -8.8899  -8.5349  -8.2578  -8.2044  -8.0201  -8.0055  -7.7659  -7.7191
    -7.7176  -7.6478  -7.6262  -7.5897  -7.4956  -7.4379  -7.4318  -7.4140
    -7.3279  -7.2873  -7.2369  -7.2316  -7.2234  -7.2211  -7.1971  -7.1874
    -7.1731  -7.1690  -7.1540  -7.1303  -7.0739  -7.0280  -7.0083  -6.9510
    -6.9269  -6.8933  -6.8619  -6.8542  -6.8267  -6.8235  -6.7714  -6.7696
    -6.7592  -6.7587  -6.7545  -6.7428  -6.7347  -6.7324  -6.7099  -6.7074
    -6.6532  -6.6369  -6.6259  -6.5994  -6.5820  -6.5678  -6.5373  -6.5186
    -6.4878  -6.4833  -6.4381  -6.4180  -6.3753  -6.3716  -6.3435  -6.3240
    -6.2763  -6.2051  -6.1593  -6.1405  -6.1158  -6.1118  -6.1067  -6.1011
    -6.0944  -6.0683  -6.0606  -6.0545  -6.0452  -6.0418  -6.0364  -6.0301
    -6.0239  -6.0108  -6.0012  -5.9992  -5.9907  -5.9807  -5.9794  -5.9482
    -5.9283  -5.9095  -5.9013  -5.9011  -5.8786  -5.8654  -5.8565  -5.8491
    -5.8314  -5.8268  -5.8169  -5.8160  -5.8082  -5.8036  -5.7987  -5.7824
    -5.7747  -5.7708  -5.7674  -5.7517  -5.7496  -5.7270  -5.7193  -5.7095
    -5.6305  -5.6266  -5.5889  -5.5418  -5.5196  -5.5074  -5.5058  -5.4916
    -5.4835  -5.4800  -5.4761  -5.4723  -5.4653  -5.4648  -5.4472  -5.4437
    -5.4382  -5.4363  -5.4329  -5.4295  -5.4240  -5.4084  -5.3938  -5.3873
    -5.3738  -5.3569  -5.3482  -5.3387  -5.3231  -5.3001  -5.2940  -5.2768
    -5.2744  -5.2700  -5.2521  -5.2427  -5.2337  -5.2191  -5.2130  -5.2009
    -5.1855  -5.1624  -5.1448  -5.1141  -5.1123  -5.0529  -5.0437  -5.0310
    -4.9895  -4.9869  -4.9792  -4.9689  -4.9605  -4.9546  -4.9537  -4.9307
    -4.9258  -4.8326  -4.7672  -4.7500  -4.7173  -4.7142  -4.7057  -4.6704
    -4.6614  -4.6487  -4.6356  -4.6207  -4.6045  -4.5884  -4.5557  -4.5484
    -4.5296  -4.5200  -4.5107  -4.5090  -4.5066  -4.4910  -4.4652  -4.4557
    -4.4537  -4.4471  -4.4381  -4.4218  -4.3819  -4.3542  -4.3516  -4.3412
    -4.3259  -4.3156  -4.3073  -4.3066  -4.2858  -4.2787  -4.2644  -4.2629
    -4.2502  -4.2253  -4.2079  -4.1947  -4.1929  -4.1832  -4.1774  -4.1705
    -4.1647  -4.1619  -4.1570  -4.1562  -4.1515  -4.1451  -4.1399  -4.1379
    -4.1338  -4.1280  -4.1114  -4.0971  -4.0823  -4.0506  -4.0383  -4.0149
    -4.0147  -4.0092  -4.0084  -4.0056  -4.0024  -3.9884  -3.9868  -3.9793
    -3.9787  -3.9597  -3.9579  -3.9500  -3.9489  -3.9398  -3.9374  -3.9338
    -3.9234  -3.9222  -3.9145  -3.9062  -3.8942  -3.8929  -3.8858  -3.8839
    -3.8659  -3.8480  -3.8421  -3.8324  -3.8322  -3.8229  -3.8027  -3.8004
    -3.7859  -3.7854  -3.7696  -3.7666  -3.7604  -3.7521  -3.7435  -3.7380
    -3.7233  -3.7221  -3.7182  -3.7182  -3.7086  -3.7082  -3.6987  -3.6983
    -3.6926  -3.6926  -3.6781  -3.6656  -3.6652  -3.6588  -3.6493  -3.6463
    -3.6240  -3.6067  -3.5901  -3.5819  -3.5110  -3.5101  -3.5043  -3.4812
    -3.4672  -3.4479  -3.4256  -3.3929  -3.3849  -3.3243  -3.3181  -3.3120
    -3.2962  -3.2857  -3.2794  -3.2577  -3.2313  -3.2191  -3.2174  -3.2072
    -3.1945  -3.1847  -3.1603  -3.1559  -3.1424  -3.1329  -3.0667  -3.0613
    -3.0245  -3.0216  -3.0197  -2.9908  -2.9698  -2.9584  -2.9438  -2.9346
    -2.9293  -2.9218  -2.8881  -2.8858  -2.8764  -2.8652  -2.6763  -2.6245
    -2.5640  -2.4558  -2.1711  -2.1670  -1.9306  -1.9178  -1.8334  -1.8189
    -1.5324  -1.4701  -1.2298  -1.2092  -1.1423  -1.1113  -1.0557  -1.0492
    -1.0125  -0.9854

          k = 0.2500-0.0884 0.0000 (128371 PWs)   bands (ev):

   -91.0646 -91.0157 -91.0155 -90.9999 -90.9930 -90.9840 -90.9744 -90.9663
   -90.9645 -90.9642 -90.9632 -90.9600 -90.9569 -90.9547 -90.9540 -90.9502
   -90.9487 -90.9468 -90.9464 -90.9404 -90.9395 -90.9391 -90.9381 -90.9352
   -90.9315 -90.9304 -90.9288 -90.9273 -90.9211 -90.9095 -90.9074 -90.9002
   -90.8990 -90.8972 -90.8964 -90.8442 -90.8375 -90.8304 -90.8301 -90.8261
   -90.8233 -90.8190 -90.8168 -90.8128 -90.8104 -90.8097 -90.8072 -90.8063
   -90.8046 -90.8021 -90.7987 -90.7969 -90.7965 -90.7953 -90.7940 -90.7930
   -90.7894 -90.7865 -90.7833 -90.7764 -90.7737 -90.7581 -90.7494 -90.7488
   -57.2389 -57.1968 -57.1846 -57.1802 -57.1762 -57.1752 -57.1674 -57.1607
   -57.1573 -57.1563 -57.1544 -57.1526 -57.1507 -57.1476 -57.1471 -57.1462
   -57.1435 -57.1415 -57.1400 -57.1382 -57.1373 -57.1341 -57.1327 -57.1312
   -57.1282 -57.1264 -57.1248 -57.1239 -57.1201 -57.1177 -57.1148 -57.1115
   -57.1098 -57.1057 -57.0988 -57.0974 -57.0965 -57.0893 -57.0868 -57.0852
   -57.0791 -57.0734 -57.0728 -57.0666 -57.0619 -57.0559 -57.0534 -57.0526
   -57.0511 -57.0354 -57.0344 -57.0266 -57.0230 -57.0168 -57.0152 -57.0126
   -57.0089 -57.0058 -57.0019 -56.9985 -56.9963 -56.9956 -56.9897 -56.9880
   -56.9858 -56.9856 -56.9838 -56.9811 -56.9809 -56.9798 -56.9770 -56.9759
   -56.9740 -56.9710 -56.9698 -56.9661 -56.9638 -56.9574 -56.9558 -56.9520
   -56.9514 -56.9474 -56.9441 -56.9405 -56.9371 -56.9341 -56.9325 -56.9303
   -56.9268 -56.9265 -56.9240 -56.9182 -56.9168 -56.9140 -56.9132 -56.9127
   -56.9089 -56.9047 -56.9038 -56.9021 -56.8983 -56.8952 -56.8937 -56.8927
   -56.8911 -56.8895 -56.8887 -56.8855 -56.8842 -56.8823 -56.8820 -56.8786
   -56.8778 -56.8751 -56.8732 -56.8707 -56.8675 -56.8663 -56.8644 -56.8618
   -56.8594 -56.8557 -56.8545 -56.8502 -56.8496 -56.8457 -56.8450 -56.8423
   -56.8412 -56.8388 -56.8375 -56.8337 -56.8313 -56.8304 -56.8256 -56.8250
   -56.8214 -56.8198 -56.8173 -56.8146 -56.8129 -56.8104 -56.8069 -56.8057
   -56.8047 -56.8035 -56.8004 -56.7995 -56.7972 -56.7953 -56.7922 -56.7907
   -56.7887 -56.7886 -56.7857 -56.7837 -56.7824 -56.7824 -56.7789 -56.7779
   -56.7758 -56.7730 -56.7688 -56.7658 -56.7640 -56.7589 -56.7568 -56.7529
   -56.7474 -56.7455 -56.7436 -56.7401 -56.7380 -56.7366 -56.7328 -56.7303
   -56.7267 -56.7255 -56.7215 -56.7199 -56.7181 -56.7150 -56.7131 -56.7097
   -56.7067 -56.7062 -56.7019 -56.6961 -56.6955 -56.6931 -56.6220 -56.6211
   -18.4175 -10.6149  -9.7988  -9.4434  -9.3922  -9.2003  -9.1229  -8.9124
    -8.7437  -8.5615  -8.3955  -8.2601  -8.1313  -8.0422  -7.9589  -7.9007
    -7.7405  -7.7013  -7.6265  -7.5377  -7.4701  -7.4324  -7.3735  -7.3688
    -7.3489  -7.3236  -7.3070  -7.2739  -7.2582  -7.1456  -7.0887  -7.0489
    -7.0299  -7.0033  -6.9950  -6.9847  -6.9780  -6.9644  -6.9493  -6.9344
    -6.9328  -6.9057  -6.8981  -6.8772  -6.8737  -6.8483  -6.8353  -6.8218
    -6.7966  -6.7928  -6.7734  -6.7648  -6.7473  -6.7169  -6.7028  -6.7012
    -6.6937  -6.6886  -6.6472  -6.6008  -6.5706  -6.5322  -6.5291  -6.4921
    -6.4695  -6.4264  -6.4065  -6.3663  -6.3395  -6.3059  -6.2796  -6.2455
    -6.2251  -6.2043  -6.1718  -6.1405  -6.1322  -6.1162  -6.1144  -6.1000
    -6.0909  -6.0859  -6.0747  -6.0679  -6.0605  -6.0527  -6.0418  -6.0330
    -6.0247  -6.0124  -6.0105  -6.0016  -5.9936  -5.9862  -5.9825  -5.9747
    -5.9697  -5.9631  -5.9562  -5.9518  -5.9405  -5.9240  -5.9217  -5.8885
    -5.8740  -5.8664  -5.8535  -5.8520  -5.8446  -5.8262  -5.8225  -5.8048
    -5.7956  -5.7902  -5.7340  -5.7082  -5.6974  -5.6838  -5.6716  -5.6451
    -5.6324  -5.6142  -5.6020  -5.5880  -5.5656  -5.5262  -5.5155  -5.5099
    -5.5009  -5.4877  -5.4817  -5.4805  -5.4672  -5.4578  -5.4523  -5.4467
    -5.4275  -5.4127  -5.4121  -5.3981  -5.3928  -5.3785  -5.3694  -5.3565
    -5.3336  -5.3055  -5.2863  -5.2788  -5.2449  -5.2404  -5.2351  -5.2325
    -5.2230  -5.2094  -5.2001  -5.1942  -5.1891  -5.1820  -5.1695  -5.1628
    -5.1527  -5.1506  -5.1426  -5.1289  -5.1101  -5.0939  -5.0558  -5.0428
    -5.0395  -5.0204  -5.0192  -4.9950  -4.9875  -4.9687  -4.9549  -4.9391
    -4.9348  -4.9186  -4.9098  -4.8814  -4.8674  -4.8481  -4.8184  -4.8056
    -4.7926  -4.7524  -4.7450  -4.7275  -4.6747  -4.5780  -4.5589  -4.5417
    -4.5278  -4.5166  -4.4908  -4.4630  -4.4561  -4.4428  -4.4161  -4.4042
    -4.3936  -4.3869  -4.3755  -4.3620  -4.3598  -4.3537  -4.3425  -4.3319
    -4.3251  -4.3032  -4.3031  -4.2856  -4.2756  -4.2670  -4.2539  -4.2278
    -4.2233  -4.2153  -4.2028  -4.1933  -4.1900  -4.1756  -4.1713  -4.1693
    -4.1626  -4.1569  -4.1418  -4.1172  -4.1076  -4.1056  -4.0967  -4.0853
    -4.0805  -4.0749  -4.0698  -4.0622  -4.0565  -4.0509  -4.0496  -4.0426
    -4.0357  -4.0274  -4.0182  -4.0144  -4.0060  -3.9968  -3.9916  -3.9851
    -3.9792  -3.9746  -3.9670  -3.9595  -3.9552  -3.9507  -3.9489  -3.9405
    -3.9334  -3.9312  -3.9209  -3.9176  -3.9050  -3.8991  -3.8952  -3.8913
    -3.8838  -3.8814  -3.8771  -3.8729  -3.8702  -3.8627  -3.8597  -3.8453
    -3.8437  -3.8394  -3.8299  -3.8191  -3.8076  -3.8031  -3.7896  -3.7829
    -3.7692  -3.7437  -3.7370  -3.7309  -3.7266  -3.7214  -3.7134  -3.6969
    -3.6938  -3.6842  -3.6759  -3.6705  -3.6646  -3.6605  -3.6415  -3.6271
    -3.6121  -3.6041  -3.6019  -3.5951  -3.5889  -3.5761  -3.5668  -3.5642
    -3.5525  -3.5459  -3.5227  -3.5131  -3.4959  -3.4574  -3.4267  -3.4185
    -3.4082  -3.3743  -3.2479  -3.2266  -3.2216  -3.1885  -3.1505  -3.1403
    -3.1269  -3.1120  -3.0914  -3.0621  -3.0435  -3.0184  -3.0109  -3.0009
    -2.9755  -2.9663  -2.9520  -2.9500  -2.9321  -2.9192  -2.8995  -2.8842
    -2.8680  -2.8005  -2.7971  -2.7749  -2.7370  -2.6897  -2.5615  -2.4000
    -2.2695  -2.2372  -2.1612  -2.0690  -2.0061  -1.9009  -1.7727  -1.7570
    -1.5427  -1.5133  -1.4972  -1.4718  -1.3578  -1.1936  -1.1525  -1.0443
    -1.0212  -0.8924

          k = 0.2500 0.1768 0.0000 (128340 PWs)   bands (ev):

   -91.0646 -91.0158 -91.0154 -90.9998 -90.9931 -90.9833 -90.9733 -90.9699
   -90.9653 -90.9644 -90.9623 -90.9587 -90.9580 -90.9549 -90.9525 -90.9495
   -90.9494 -90.9466 -90.9433 -90.9409 -90.9397 -90.9394 -90.9392 -90.9380
   -90.9306 -90.9286 -90.9286 -90.9271 -90.9221 -90.9096 -90.9074 -90.9003
   -90.8986 -90.8979 -90.8959 -90.8437 -90.8352 -90.8346 -90.8310 -90.8261
   -90.8231 -90.8160 -90.8153 -90.8132 -90.8103 -90.8095 -90.8084 -90.8068
   -90.8044 -90.8027 -90.7986 -90.7984 -90.7966 -90.7950 -90.7942 -90.7924
   -90.7885 -90.7884 -90.7801 -90.7787 -90.7728 -90.7584 -90.7494 -90.7488
   -57.2388 -57.1968 -57.1813 -57.1808 -57.1780 -57.1746 -57.1657 -57.1642
   -57.1597 -57.1537 -57.1535 -57.1502 -57.1501 -57.1487 -57.1465 -57.1449
   -57.1437 -57.1418 -57.1396 -57.1369 -57.1354 -57.1341 -57.1329 -57.1318
   -57.1299 -57.1275 -57.1254 -57.1228 -57.1180 -57.1173 -57.1118 -57.1114
   -57.1060 -57.1054 -57.1020 -57.0975 -57.0922 -57.0844 -57.0844 -57.0809
   -57.0790 -57.0702 -57.0612 -57.0606 -57.0592 -57.0571 -57.0543 -57.0514
   -57.0475 -57.0386 -57.0355 -57.0342 -57.0221 -57.0198 -57.0193 -57.0167
   -57.0118 -57.0111 -57.0048 -57.0032 -57.0022 -57.0005 -56.9993 -56.9951
   -56.9946 -56.9916 -56.9858 -56.9840 -56.9834 -56.9816 -56.9798 -56.9787
   -56.9761 -56.9723 -56.9717 -56.9705 -56.9674 -56.9583 -56.9579 -56.9524
   -56.9503 -56.9473 -56.9466 -56.9405 -56.9404 -56.9347 -56.9322 -56.9305
   -56.9285 -56.9278 -56.9253 -56.9198 -56.9178 -56.9164 -56.9128 -56.9102
   -56.9070 -56.9063 -56.8979 -56.8968 -56.8940 -56.8916 -56.8904 -56.8878
   -56.8873 -56.8864 -56.8853 -56.8848 -56.8837 -56.8834 -56.8798 -56.8788
   -56.8767 -56.8749 -56.8736 -56.8707 -56.8679 -56.8648 -56.8629 -56.8609
   -56.8593 -56.8539 -56.8538 -56.8506 -56.8492 -56.8481 -56.8462 -56.8426
   -56.8399 -56.8397 -56.8320 -56.8284 -56.8272 -56.8225 -56.8214 -56.8192
   -56.8177 -56.8151 -56.8144 -56.8136 -56.8108 -56.8083 -56.8079 -56.8040
   -56.8038 -56.8028 -56.8021 -56.7980 -56.7960 -56.7952 -56.7929 -56.7926
   -56.7885 -56.7861 -56.7857 -56.7835 -56.7833 -56.7815 -56.7794 -56.7762
   -56.7727 -56.7725 -56.7680 -56.7613 -56.7608 -56.7588 -56.7526 -56.7518
   -56.7514 -56.7427 -56.7416 -56.7409 -56.7402 -56.7375 -56.7333 -56.7312
   -56.7288 -56.7264 -56.7243 -56.7218 -56.7202 -56.7187 -56.7183 -56.7119
   -56.7119 -56.7096 -56.7022 -56.7020 -56.6966 -56.6949 -56.6225 -56.6215
   -18.4175 -10.5763  -9.5870  -9.5485  -9.4533  -9.3140  -9.1485  -9.1470
    -8.6158  -8.4723  -8.3499  -8.2984  -8.2274  -8.0806  -7.9388  -7.8396
    -7.6767  -7.6363  -7.5315  -7.4202  -7.4125  -7.3764  -7.3744  -7.3397
    -7.3051  -7.2949  -7.2871  -7.2515  -7.1907  -7.1828  -7.1525  -7.0959
    -7.0655  -7.0516  -7.0317  -7.0113  -6.9727  -6.9710  -6.9437  -6.9315
    -6.9210  -6.9168  -6.9030  -6.9001  -6.8964  -6.8880  -6.8834  -6.8783
    -6.8440  -6.8342  -6.8047  -6.8037  -6.7718  -6.7681  -6.7304  -6.7112
    -6.6654  -6.6469  -6.5912  -6.5508  -6.5420  -6.5198  -6.5172  -6.4761
    -6.4442  -6.4315  -6.4104  -6.4092  -6.3446  -6.3443  -6.3020  -6.2567
    -6.2402  -6.1922  -6.1697  -6.1632  -6.1456  -6.1401  -6.1281  -6.1203
    -6.1182  -6.1180  -6.1021  -6.0988  -6.0916  -6.0873  -6.0814  -6.0733
    -6.0722  -6.0505  -6.0386  -6.0018  -5.9795  -5.9766  -5.9675  -5.9499
    -5.9422  -5.9200  -5.9151  -5.9094  -5.8975  -5.8882  -5.8834  -5.8593
    -5.8583  -5.8362  -5.8304  -5.8095  -5.7911  -5.7812  -5.7637  -5.7563
    -5.7494  -5.7267  -5.7188  -5.7131  -5.7046  -5.7001  -5.6857  -5.6849
    -5.6771  -5.6749  -5.6617  -5.6390  -5.6083  -5.5931  -5.5808  -5.5773
    -5.5262  -5.5197  -5.5094  -5.4960  -5.4943  -5.4894  -5.4671  -5.4532
    -5.4233  -5.4068  -5.4002  -5.3891  -5.3884  -5.3806  -5.3627  -5.3597
    -5.3410  -5.3237  -5.3218  -5.3028  -5.2802  -5.2633  -5.2350  -5.2325
    -5.2134  -5.2122  -5.2081  -5.1852  -5.1815  -5.1697  -5.1692  -5.1396
    -5.1210  -5.1176  -5.1090  -5.1080  -5.0935  -5.0915  -5.0843  -5.0708
    -5.0679  -5.0550  -5.0507  -5.0439  -5.0373  -5.0299  -5.0282  -4.9906
    -4.9814  -4.9738  -4.9311  -4.8992  -4.8177  -4.7952  -4.7533  -4.7412
    -4.7137  -4.7005  -4.6715  -4.6275  -4.6043  -4.5698  -4.5669  -4.5661
    -4.5192  -4.5093  -4.4930  -4.4915  -4.4753  -4.4366  -4.4233  -4.4189
    -4.4022  -4.3982  -4.3803  -4.3723  -4.3672  -4.3661  -4.3484  -4.3281
    -4.3114  -4.2992  -4.2990  -4.2966  -4.2743  -4.2669  -4.2596  -4.2557
    -4.2506  -4.2236  -4.2216  -4.2105  -4.1814  -4.1767  -4.1640  -4.1500
    -4.1497  -4.1324  -4.1315  -4.1191  -4.1172  -4.1131  -4.1096  -4.0880
    -4.0782  -4.0687  -4.0684  -4.0666  -4.0474  -4.0391  -4.0384  -4.0311
    -4.0308  -4.0231  -4.0179  -4.0131  -4.0094  -3.9855  -3.9685  -3.9668
    -3.9589  -3.9484  -3.9480  -3.9381  -3.9380  -3.9214  -3.9195  -3.9019
    -3.8911  -3.8855  -3.8832  -3.8785  -3.8778  -3.8557  -3.8548  -3.8461
    -3.8459  -3.8415  -3.8377  -3.8238  -3.8208  -3.8206  -3.8090  -3.8025
    -3.7985  -3.7951  -3.7906  -3.7867  -3.7826  -3.7773  -3.7739  -3.7501
    -3.7471  -3.7411  -3.7350  -3.7293  -3.7231  -3.7160  -3.7098  -3.7035
    -3.6992  -3.6985  -3.6907  -3.6776  -3.6722  -3.6467  -3.6462  -3.6245
    -3.6115  -3.6057  -3.5952  -3.5739  -3.5618  -3.5556  -3.5487  -3.5280
    -3.5188  -3.5133  -3.5062  -3.5056  -3.4432  -3.4429  -3.4011  -3.3988
    -3.3944  -3.3655  -3.2842  -3.2566  -3.1898  -3.1815  -3.1338  -3.1177
    -3.0746  -3.0656  -3.0533  -3.0344  -3.0259  -2.9960  -2.9882  -2.9764
    -2.9673  -2.9636  -2.9555  -2.9444  -2.9309  -2.9012  -2.8864  -2.8531
    -2.8090  -2.7721  -2.7215  -2.6923  -2.6591  -2.6015  -2.5491  -2.5207
    -2.3797  -2.3125  -2.2977  -2.0630  -2.0237  -1.9753  -1.9352  -1.8883
    -1.8522  -1.8451  -1.7927  -1.7727  -1.6626  -1.4139  -1.3706  -1.2786
    -1.1862  -1.1108

          k = 0.2500-0.6187 0.0000 (128424 PWs)   bands (ev):

   -91.0646 -91.0157 -91.0154 -90.9998 -90.9931 -90.9816 -90.9761 -90.9693
   -90.9661 -90.9655 -90.9626 -90.9577 -90.9559 -90.9539 -90.9526 -90.9502
   -90.9498 -90.9462 -90.9445 -90.9436 -90.9394 -90.9392 -90.9379 -90.9365
   -90.9301 -90.9293 -90.9289 -90.9260 -90.9231 -90.9097 -90.9074 -90.9001
   -90.8992 -90.8977 -90.8958 -90.8418 -90.8395 -90.8337 -90.8308 -90.8255
   -90.8215 -90.8186 -90.8138 -90.8119 -90.8107 -90.8100 -90.8088 -90.8074
   -90.8061 -90.8023 -90.7988 -90.7964 -90.7959 -90.7945 -90.7935 -90.7933
   -90.7903 -90.7881 -90.7822 -90.7767 -90.7724 -90.7587 -90.7493 -90.7489
   -57.2387 -57.1932 -57.1857 -57.1820 -57.1756 -57.1731 -57.1687 -57.1650
   -57.1576 -57.1551 -57.1533 -57.1504 -57.1491 -57.1485 -57.1458 -57.1441
   -57.1420 -57.1413 -57.1379 -57.1366 -57.1355 -57.1336 -57.1321 -57.1315
   -57.1278 -57.1262 -57.1256 -57.1222 -57.1190 -57.1164 -57.1151 -57.1114
   -57.1103 -57.1038 -57.0995 -57.0940 -57.0855 -57.0769 -57.0746 -57.0737
   -57.0721 -57.0701 -57.0646 -57.0637 -57.0593 -57.0567 -57.0481 -57.0457
   -57.0447 -57.0418 -57.0399 -57.0347 -57.0322 -57.0282 -57.0265 -57.0223
   -57.0205 -57.0182 -57.0175 -57.0099 -57.0061 -57.0020 -56.9972 -56.9953
   -56.9944 -56.9894 -56.9878 -56.9856 -56.9840 -56.9808 -56.9807 -56.9780
   -56.9745 -56.9710 -56.9681 -56.9667 -56.9648 -56.9618 -56.9595 -56.9569
   -56.9551 -56.9526 -56.9514 -56.9482 -56.9451 -56.9419 -56.9417 -56.9401
   -56.9333 -56.9317 -56.9291 -56.9276 -56.9206 -56.9154 -56.9137 -56.9081
   -56.9037 -56.8980 -56.8965 -56.8954 -56.8931 -56.8915 -56.8895 -56.8881
   -56.8859 -56.8845 -56.8837 -56.8812 -56.8780 -56.8769 -56.8740 -56.8722
   -56.8712 -56.8694 -56.8659 -56.8648 -56.8623 -56.8622 -56.8590 -56.8580
   -56.8557 -56.8542 -56.8525 -56.8493 -56.8473 -56.8442 -56.8428 -56.8409
   -56.8395 -56.8378 -56.8344 -56.8328 -56.8305 -56.8255 -56.8222 -56.8208
   -56.8192 -56.8171 -56.8140 -56.8125 -56.8102 -56.8069 -56.8068 -56.8048
   -56.8038 -56.8027 -56.8012 -56.7988 -56.7961 -56.7925 -56.7916 -56.7905
   -56.7873 -56.7864 -56.7835 -56.7823 -56.7816 -56.7797 -56.7766 -56.7718
   -56.7690 -56.7634 -56.7626 -56.7604 -56.7585 -56.7555 -56.7531 -56.7511
   -56.7467 -56.7443 -56.7428 -56.7397 -56.7373 -56.7353 -56.7343 -56.7338
   -56.7315 -56.7296 -56.7277 -56.7262 -56.7250 -56.7224 -56.7215 -56.7197
   -56.7159 -56.7133 -56.7104 -56.7023 -56.6973 -56.6961 -56.6230 -56.6219
   -18.4175 -10.3256 -10.0456  -9.7753  -9.3386  -9.2883  -8.9970  -8.9304
    -8.7263  -8.6113  -8.4421  -8.2926  -7.8745  -7.8015  -7.7170  -7.7032
    -7.6698  -7.6047  -7.5771  -7.5254  -7.4527  -7.4469  -7.3825  -7.3715
    -7.3573  -7.3100  -7.2852  -7.2476  -7.2326  -7.2092  -7.2064  -7.1873
    -7.1833  -7.1467  -7.1083  -7.0896  -7.0744  -7.0567  -7.0409  -7.0131
    -7.0086  -6.9736  -6.9624  -6.9481  -6.9272  -6.8546  -6.8465  -6.8216
    -6.8001  -6.7650  -6.7564  -6.7272  -6.7025  -6.6818  -6.6603  -6.6147
    -6.6094  -6.6036  -6.5796  -6.5719  -6.5629  -6.5311  -6.5218  -6.5119
    -6.4816  -6.4594  -6.4223  -6.4159  -6.4035  -6.3850  -6.3403  -6.3167
    -6.3080  -6.2731  -6.2371  -6.2005  -6.1640  -6.1422  -6.1323  -6.1265
    -6.1173  -6.1053  -6.1005  -6.0925  -6.0755  -6.0600  -6.0286  -6.0142
    -6.0044  -5.9826  -5.9665  -5.9553  -5.9381  -5.9281  -5.9243  -5.9195
    -5.9119  -5.8998  -5.8898  -5.8853  -5.8773  -5.8713  -5.8499  -5.8374
    -5.8289  -5.8251  -5.8181  -5.7992  -5.7879  -5.7785  -5.7723  -5.7644
    -5.7532  -5.7478  -5.7305  -5.7253  -5.6907  -5.6819  -5.6719  -5.6640
    -5.6626  -5.6491  -5.6473  -5.6383  -5.6356  -5.6197  -5.6045  -5.5956
    -5.5879  -5.5831  -5.5714  -5.5568  -5.5531  -5.5341  -5.5130  -5.5005
    -5.4919  -5.4635  -5.4554  -5.3924  -5.3694  -5.3592  -5.3503  -5.3297
    -5.3244  -5.3225  -5.3196  -5.2980  -5.2957  -5.2840  -5.2735  -5.2704
    -5.2620  -5.2592  -5.2460  -5.2389  -5.2278  -5.2113  -5.2079  -5.1930
    -5.1890  -5.1705  -5.1654  -5.1172  -5.0942  -5.0751  -5.0445  -5.0373
    -5.0252  -5.0055  -4.9832  -4.9580  -4.9486  -4.9137  -4.9007  -4.8776
    -4.8435  -4.8084  -4.7918  -4.7579  -4.7488  -4.7317  -4.7269  -4.6959
    -4.6696  -4.6557  -4.6270  -4.6219  -4.6048  -4.5882  -4.5778  -4.5531
    -4.5487  -4.5448  -4.5306  -4.5197  -4.5031  -4.4862  -4.4594  -4.4492
    -4.4349  -4.4174  -4.4107  -4.4014  -4.3763  -4.3609  -4.3545  -4.3290
    -4.3247  -4.3118  -4.2966  -4.2953  -4.2887  -4.2804  -4.2681  -4.2530
    -4.2467  -4.2366  -4.2334  -4.2024  -4.1941  -4.1827  -4.1759  -4.1732
    -4.1646  -4.1518  -4.1447  -4.1426  -4.1382  -4.1319  -4.1252  -4.1188
    -4.1150  -4.1012  -4.0946  -4.0905  -4.0678  -4.0561  -4.0455  -4.0306
    -4.0304  -4.0083  -4.0080  -3.9932  -3.9910  -3.9818  -3.9735  -3.9706
    -3.9638  -3.9509  -3.9475  -3.9370  -3.9351  -3.9197  -3.9173  -3.9036
    -3.8987  -3.8821  -3.8792  -3.8762  -3.8595  -3.8527  -3.8455  -3.8409
    -3.8361  -3.8281  -3.8244  -3.8181  -3.8152  -3.8118  -3.8046  -3.7853
    -3.7780  -3.7743  -3.7704  -3.7622  -3.7601  -3.7522  -3.7486  -3.7410
    -3.7378  -3.7306  -3.7235  -3.7145  -3.7126  -3.6975  -3.6806  -3.6766
    -3.6680  -3.6576  -3.6462  -3.6324  -3.6240  -3.6165  -3.6126  -3.5820
    -3.5597  -3.5440  -3.5309  -3.5161  -3.4983  -3.4922  -3.4866  -3.4497
    -3.4166  -3.4063  -3.3829  -3.3761  -3.3364  -3.3247  -3.3180  -3.3028
    -3.2962  -3.2792  -3.2535  -3.2458  -3.2324  -3.2142  -3.2024  -3.1698
    -3.1596  -3.1475  -3.1147  -3.1084  -3.0911  -3.0736  -3.0617  -3.0455
    -3.0282  -3.0204  -3.0027  -2.9908  -2.9846  -2.9757  -2.9497  -2.9316
    -2.9196  -2.9056  -2.8849  -2.8592  -2.7852  -2.7689  -2.7516  -2.5750
    -2.5237  -2.4796  -2.3076  -2.2540  -2.1714  -2.1036  -2.0379  -2.0003
    -1.8740  -1.7775  -1.6064  -1.5402  -1.4489  -1.4189  -1.2950  -1.1650
    -1.1052  -1.0827

          k = 0.2500-0.3536 0.0000 (128397 PWs)   bands (ev):

   -91.0646 -91.0156 -91.0155 -90.9999 -90.9930 -90.9827 -90.9756 -90.9692
   -90.9647 -90.9635 -90.9628 -90.9591 -90.9565 -90.9520 -90.9520 -90.9519
   -90.9509 -90.9471 -90.9467 -90.9419 -90.9395 -90.9391 -90.9365 -90.9347
   -90.9312 -90.9297 -90.9293 -90.9274 -90.9216 -90.9096 -90.9074 -90.8999
   -90.8995 -90.8973 -90.8961 -90.8428 -90.8392 -90.8335 -90.8267 -90.8262
   -90.8217 -90.8208 -90.8162 -90.8126 -90.8103 -90.8101 -90.8079 -90.8065
   -90.8054 -90.8018 -90.7989 -90.7965 -90.7953 -90.7942 -90.7938 -90.7928
   -90.7893 -90.7888 -90.7841 -90.7750 -90.7737 -90.7584 -90.7492 -90.7491
   -57.2387 -57.1925 -57.1886 -57.1813 -57.1748 -57.1740 -57.1687 -57.1644
   -57.1555 -57.1550 -57.1537 -57.1524 -57.1492 -57.1490 -57.1471 -57.1432
   -57.1432 -57.1423 -57.1402 -57.1370 -57.1359 -57.1340 -57.1311 -57.1295
   -57.1268 -57.1268 -57.1247 -57.1232 -57.1206 -57.1179 -57.1179 -57.1113
   -57.1101 -57.1043 -57.0989 -57.0919 -57.0917 -57.0864 -57.0836 -57.0749
   -57.0728 -57.0720 -57.0692 -57.0680 -57.0610 -57.0586 -57.0553 -57.0545
   -57.0525 -57.0405 -57.0308 -57.0279 -57.0249 -57.0212 -57.0177 -57.0133
   -57.0119 -57.0084 -57.0052 -57.0009 -56.9976 -56.9961 -56.9958 -56.9923
   -56.9915 -56.9884 -56.9881 -56.9857 -56.9828 -56.9825 -56.9803 -56.9799
   -56.9775 -56.9749 -56.9699 -56.9655 -56.9654 -56.9631 -56.9600 -56.9589
   -56.9569 -56.9469 -56.9455 -56.9425 -56.9410 -56.9378 -56.9364 -56.9356
   -56.9310 -56.9287 -56.9276 -56.9177 -56.9148 -56.9136 -56.9108 -56.9064
   -56.9036 -56.9025 -56.9017 -56.8999 -56.8984 -56.8952 -56.8921 -56.8912
   -56.8887 -56.8878 -56.8853 -56.8820 -56.8801 -56.8801 -56.8748 -56.8731
   -56.8726 -56.8718 -56.8687 -56.8666 -56.8662 -56.8649 -56.8633 -56.8623
   -56.8600 -56.8576 -56.8538 -56.8531 -56.8482 -56.8467 -56.8461 -56.8435
   -56.8427 -56.8372 -56.8367 -56.8342 -56.8299 -56.8237 -56.8235 -56.8215
   -56.8180 -56.8167 -56.8128 -56.8122 -56.8102 -56.8075 -56.8057 -56.8050
   -56.8034 -56.8028 -56.7995 -56.7972 -56.7950 -56.7922 -56.7918 -56.7894
   -56.7884 -56.7879 -56.7850 -56.7843 -56.7832 -56.7825 -56.7799 -56.7772
   -56.7745 -56.7710 -56.7702 -56.7637 -56.7611 -56.7598 -56.7532 -56.7518
   -56.7485 -56.7464 -56.7422 -56.7404 -56.7372 -56.7356 -56.7322 -56.7305
   -56.7300 -56.7258 -56.7231 -56.7221 -56.7219 -56.7215 -56.7160 -56.7120
   -56.7111 -56.7099 -56.7041 -56.7007 -56.6967 -56.6953 -56.6225 -56.6215
   -18.4175 -10.4348  -9.8913  -9.8727  -9.3516  -9.2576  -9.0631  -8.6690
    -8.6154  -8.5235  -8.3326  -8.3220  -8.2020  -8.0445  -7.9332  -7.7948
    -7.5282  -7.5202  -7.4924  -7.4670  -7.4657  -7.4574  -7.4206  -7.4203
    -7.3730  -7.3413  -7.3194  -7.3059  -7.2746  -7.2454  -7.2385  -7.2191
    -7.1469  -7.0852  -7.0747  -7.0425  -7.0350  -7.0119  -7.0023  -6.9843
[...]
    -1.8999  -1.8972  -1.8789  -1.8659  -1.8478  -1.8266  -1.8190  -1.8015
    -1.7916  -1.7756  -1.7348  -1.7074  -1.6832  -1.6774  -1.6618  -1.6447
    -1.6349  -1.6252  -1.6167  -1.6028  -1.5871  -1.5794  -1.5674  -1.5436
    -1.5109  -1.5039  -1.4835  -1.4774  -1.4725  -1.4404  -1.4260  -1.3900
    -1.3856  -1.3754  -1.3690  -1.3517  -1.3362  -1.3191  -1.3076  -1.3010
    -1.2887  -1.2818  -1.2703  -1.2597  -1.2457  -1.2433  -1.2351  -1.2233
    -1.2078  -1.1963  -1.1914  -1.1658  -1.1500  -1.1426  -1.1278  -1.1203
    -1.1131  -1.1111  -1.0979  -1.0945  -1.0907  -1.0890  -1.0700  -1.0595
    -1.0447  -1.0337  -1.0282  -1.0269  -1.0200  -1.0027  -0.9953  -0.9853
    -0.9782  -0.9678  -0.9595  -0.9428  -0.9354  -0.9280  -0.9199  -0.9072
    -0.8946  -0.8875  -0.8817  -0.8742  -0.8686  -0.8672  -0.8572  -0.8525
    -0.8432  -0.8417  -0.8362  -0.8194  -0.8124  -0.8046  -0.7982  -0.7857
    -0.7701  -0.7608  -0.7507  -0.7504  -0.7448  -0.7362  -0.7337  -0.7224
    -0.7171  -0.7093  -0.7054  -0.6986  -0.6895  -0.6841  -0.6773  -0.6616
    -0.6553  -0.6401  -0.6282  -0.6259  -0.6179  -0.6002  -0.5760  -0.5686
    -0.5508  -0.5436  -0.5395  -0.5314  -0.5187  -0.5106  -0.5044  -0.4919
    -0.4734  -0.4575  -0.4439  -0.4420  -0.4201  -0.4031  -0.4009  -0.3759
    -0.3421  -0.3197  -0.2577  -0.2383  -0.1584  -0.1399  -0.0582  -0.0349
     0.0552   0.0949   0.1334   0.2052   0.2521   0.3351   0.3990   0.4624
     0.4763   0.6090

          k =-0.5000-0.3536 0.0000 (128560 PWs)   bands (ev):

   -88.6470 -88.6466 -88.2034 -88.2032 -88.0756 -88.0742 -88.0649 -87.9772
   -87.9634 -87.9554 -87.9519 -87.9461 -87.9454 -87.9341 -87.9329 -87.9308
   -87.9246 -87.9245 -87.9206 -87.9194 -87.9169 -87.9164 -87.9129 -87.9126
   -87.9112 -87.9111 -87.9083 -87.9061 -87.9058 -87.9030 -87.9024 -87.9020
   -87.9010 -87.8947 -87.8914 -87.8889 -87.8850 -87.8823 -87.8798 -87.8794
   -87.8775 -87.8773 -87.8759 -87.8751 -87.8724 -87.8722 -87.8693 -87.8668
   -87.8649 -87.8573 -87.8554 -87.8534 -87.8526 -87.8519 -87.8518 -87.8493
   -87.8491 -87.8491 -87.8477 -87.8464 -87.8338 -87.8298 -87.8284 -87.8262
   -55.1957 -55.1875 -54.6445 -54.6350 -54.5622 -54.5552 -54.5114 -54.5061
   -54.3038 -54.2958 -54.2860 -54.2846 -54.2785 -54.2765 -54.2630 -54.2404
   -54.2391 -54.2383 -54.2295 -54.2263 -54.2200 -54.2195 -54.2131 -54.2076
   -54.2064 -54.2062 -54.2028 -54.1979 -54.1970 -54.1921 -54.1903 -54.1874
   -54.1821 -54.1747 -54.1746 -54.1709 -54.1699 -54.1657 -54.1655 -54.1636
   -54.1631 -54.1613 -54.1601 -54.1561 -54.1514 -54.1443 -54.1435 -54.1425
   -54.1424 -54.1400 -54.1346 -54.1303 -54.1295 -54.1294 -54.1264 -54.1240
   -54.1231 -54.1230 -54.1204 -54.1201 -54.1187 -54.1177 -54.1145 -54.1132
   -54.1131 -54.1127 -54.1093 -54.1064 -54.1036 -54.1016 -54.1014 -54.0993
   -54.0887 -54.0805 -54.0731 -54.0731 -54.0681 -54.0631 -54.0618 -54.0557
   -54.0523 -54.0510 -54.0500 -54.0459 -54.0302 -54.0280 -54.0274 -54.0270
   -54.0220 -54.0161 -54.0144 -54.0142 -54.0122 -54.0122 -54.0076 -54.0059
   -54.0037 -54.0032 -54.0003 -53.9999 -53.9952 -53.9946 -53.9911 -53.9901
   -53.9898 -53.9851 -53.9797 -53.9784 -53.9780 -53.9724 -53.9715 -53.9715
   -53.9710 -53.9703 -53.9696 -53.9671 -53.9667 -53.9641 -53.9622 -53.9568
   -53.9550 -53.9536 -53.9460 -53.9436 -53.9435 -53.9408 -53.9401 -53.9398
   -53.9385 -53.9366 -53.9348 -53.9293 -53.9270 -53.9246 -53.9228 -53.9204
   -53.9192 -53.9180 -53.9166 -53.9153 -53.9151 -53.9142 -53.9111 -53.9108
   -53.9106 -53.9101 -53.9082 -53.9068 -53.9056 -53.9054 -53.9052 -53.9034
   -53.9032 -53.9003 -53.9002 -53.8996 -53.8961 -53.8953 -53.8945 -53.8913
   -53.8896 -53.8879 -53.8878 -53.8867 -53.8828 -53.8823 -53.8817 -53.8809
   -53.8805 -53.8799 -53.8794 -53.8771 -53.8760 -53.8758 -53.8753 -53.8740
   -53.8739 -53.8720 -53.8671 -53.8659 -53.8648 -53.8644 -53.8637 -53.8605
   -53.8577 -53.8570 -53.8565 -53.8522 -53.8518 -53.8497 -53.8462 -53.8438
   -18.5351  -9.9564  -9.9113  -9.4511  -9.3335  -8.9898  -8.8306  -8.5878
    -8.4439  -8.1479  -7.9609  -7.8000  -7.3505  -7.2960  -7.2855  -7.1699
    -6.9065  -6.8666  -6.5224  -6.5136  -6.4926  -6.4659  -6.4604  -6.4049
    -6.3882  -6.3634  -6.3297  -6.3162  -6.2969  -6.1607  -5.9415  -5.9372
    -5.9353  -5.9295  -5.8864  -5.8363  -5.7404  -5.5952  -5.4777  -5.4742
    -5.4678  -5.4374  -5.4150  -5.4114  -5.4051  -5.3650  -5.3363  -5.3126
    -5.2772  -5.1781  -5.1765  -5.1646  -5.1519  -5.1382  -5.1237  -4.9430
    -4.9295  -4.9020  -4.9010  -4.8761  -4.8551  -4.8285  -4.6758  -4.6483
    -4.6261  -4.6166  -4.5691  -4.5637  -4.5587  -4.4914  -4.4466  -4.4268
    -4.4101  -4.3864  -4.3763  -4.3638  -4.3620  -4.3404  -4.3391  -4.3218
    -4.3050  -4.2625  -4.2426  -4.2390  -4.2331  -4.2330  -4.2264  -4.2243
    -4.2021  -4.1966  -4.1704  -4.1510  -4.0559  -4.0263  -4.0238  -4.0170
    -4.0148  -3.9336  -3.9219  -3.8969  -3.8845  -3.8801  -3.8778  -3.8619
    -3.8549  -3.8475  -3.8455  -3.8088  -3.8070  -3.7962  -3.7880  -3.7859
    -3.7795  -3.7779  -3.7639  -3.7622  -3.7517  -3.7482  -3.7442  -3.7394
    -3.7148  -3.7132  -3.7123  -3.7065  -3.7048  -3.6951  -3.6867  -3.6734
    -3.6650  -3.6427  -3.6384  -3.6373  -3.6352  -3.6268  -3.6223  -3.6159
    -3.6107  -3.5869  -3.5855  -3.5700  -3.4563  -3.4163  -3.4103  -3.4021
    -3.3848  -3.3846  -3.3710  -3.3695  -3.3586  -3.3480  -3.3399  -3.3251
    -3.2654  -3.2519  -3.2290  -3.2064  -3.2027  -3.1994  -3.1817  -3.1608
    -3.1580  -3.1406  -3.1285  -3.1203  -3.0747  -3.0588  -3.0379  -3.0304
    -2.9869  -2.9811  -2.9730  -2.9126  -2.8994  -2.8566  -2.8471  -2.8324
    -2.8229  -2.8048  -2.8021  -2.7730  -2.7617  -2.7577  -2.7476  -2.7349
    -2.7320  -2.7235  -2.6893  -2.6849  -2.4928  -2.4895  -2.4768  -2.4768
    -2.3740  -2.3426  -2.3394  -2.2275  -2.1836  -2.1658  -2.1505  -2.0861
    -2.0624  -2.0463  -2.0447  -2.0051  -1.9781  -1.9588  -1.9567  -1.9355
    -1.9143  -1.8934  -1.8420  -1.8177  -1.8134  -1.8089  -1.8087  -1.7915
    -1.7259  -1.7071  -1.6956  -1.6933  -1.6815  -1.6762  -1.6297  -1.6142
    -1.6094  -1.5842  -1.5690  -1.5647  -1.5644  -1.5607  -1.5381  -1.5318
    -1.5250  -1.5022  -1.4761  -1.4678  -1.4656  -1.4608  -1.4314  -1.4214
    -1.4167  -1.4025  -1.3954  -1.3785  -1.3355  -1.3152  -1.2779  -1.2744
    -1.2584  -1.2162  -1.2140  -1.2077  -1.2064  -1.1888  -1.1619  -1.1579
    -1.1577  -1.1362  -1.1325  -1.1319  -1.1029  -1.1020  -1.0873  -1.0866
    -1.0794  -1.0731  -1.0696  -1.0642  -1.0484  -1.0470  -1.0402  -1.0322
    -1.0215  -0.9998  -0.9978  -0.9974  -0.9856  -0.9839  -0.9714  -0.9697
    -0.9657  -0.9616  -0.9577  -0.9542  -0.9329  -0.9285  -0.9268  -0.9208
    -0.9116  -0.8930  -0.8913  -0.8877  -0.8823  -0.8793  -0.8743  -0.8738
    -0.8610  -0.8408  -0.8352  -0.8324  -0.8119  -0.7934  -0.7889  -0.7797
    -0.7668  -0.7663  -0.7605  -0.7519  -0.7388  -0.7324  -0.7225  -0.7035
    -0.7033  -0.6904  -0.6870  -0.6839  -0.6734  -0.6688  -0.6619  -0.6581
    -0.6547  -0.6516  -0.6486  -0.6418  -0.6345  -0.6292  -0.6125  -0.6060
    -0.6042  -0.5952  -0.5893  -0.5830  -0.5749  -0.5693  -0.5438  -0.5270
    -0.5206  -0.5195  -0.5188  -0.4869  -0.4846  -0.4733  -0.3533  -0.3188
    -0.2835  -0.2741  -0.2396  -0.1587  -0.0720  -0.0712  -0.0543  -0.0466
    -0.0175  -0.0030   0.0037   0.0049   0.0310   0.0387   0.0480   0.2500
     0.2689   0.2767

     the Fermi energy is    -2.8165 ev

!    total energy              =  -21092.55908219 Ry
     Harris-Foulkes estimate   =  -21092.55908148 Ry
     estimated scf accuracy    <          6.8E-11 Ry

     The total energy is the sum of the following terms:

     one-electron contribution = -742618.05605908 Ry
     hartree contribution      =  371197.18859395 Ry
     xc contribution           =   -2233.60208280 Ry
     ewald contribution        =  357436.74130660 Ry
     Dispersion Correction     =      -1.38870469 Ry
     one-center paw contrib.   =   -4873.44576353 Ry
     smearing contrib. (-TS)   =       0.00362736 Ry

     total magnetization       =   160.92 Bohr mag/cell
     absolute magnetization    =   167.74 Bohr mag/cell

     convergence has been achieved in  17 iterations

     negative rho (up, down):  2.520E-02 1.866E-02

     Forces acting on atoms (cartesian axes, Ry/au):

     atom    1 type  1   force =     0.00005474    0.00065953    0.00892334
     atom    2 type  1   force =     0.00287831   -0.00404945   -0.01533726
     atom    3 type  1   force =    -0.00072951   -0.00065161    0.00815002
     atom    4 type  1   force =     0.00063835    0.00100822   -0.00827478
     atom    5 type  1   force =    -0.00004022   -0.00001875    0.00002527
     atom    6 type  1   force =    -0.00000450    0.00000264    0.00003800
     atom    7 type  1   force =     0.00006066    0.00005139   -0.00005046
     atom    8 type  1   force =    -0.00003138    0.00004440   -0.00000082
     atom    9 type  1   force =     0.00002710   -0.00001901    0.00822651
     atom   10 type  1   force =    -0.00072524   -0.00052941    0.00878613
     atom   11 type  1   force =     0.00086730   -0.00046873   -0.00814655
     atom   12 type  1   force =     0.00059267    0.00048107   -0.01264601
     atom   13 type  1   force =    -0.00000256   -0.00000063    0.00003451
     atom   14 type  1   force =    -0.00000986   -0.00001261   -0.00000277
     atom   15 type  1   force =    -0.00006277   -0.00004846    0.00006739
     atom   16 type  1   force =    -0.00003973   -0.00003336   -0.00000831
     atom   17 type  1   force =    -0.00086708   -0.00040043    0.00812614
     atom   18 type  1   force =     0.00115768    0.00027361   -0.00827065
     atom   19 type  1   force =     0.00066660    0.00067947    0.00811196
     atom   20 type  1   force =    -0.00100767    0.00146344   -0.00319984
     atom   21 type  1   force =     0.00007428    0.00004254   -0.00004767
     atom   22 type  1   force =     0.00003586   -0.00004073    0.00001309
     atom   23 type  1   force =    -0.00006775   -0.00005830   -0.00004583
     atom   24 type  1   force =    -0.00000653    0.00000274   -0.00010135
     atom   25 type  1   force =     0.00002138   -0.00001871    0.00796936
     atom   26 type  1   force =    -0.00116569    0.00165224    0.00771404
     atom   27 type  1   force =     0.00129547    0.00086664   -0.00377474
     atom   28 type  1   force =     0.00016359   -0.00095517   -0.00814737
     atom   29 type  1   force =    -0.00000397    0.00000101   -0.00007214
     atom   30 type  1   force =    -0.00001404    0.00001713   -0.00006149
     atom   31 type  1   force =    -0.00000463   -0.00000245    0.00002451
     atom   32 type  1   force =     0.00005840    0.00003810    0.00006795
     atom   33 type  1   force =    -0.00006734   -0.00067891    0.00892569
     atom   34 type  1   force =    -0.00062695   -0.00099165   -0.00827274
     atom   35 type  1   force =     0.00065594   -0.00016156    0.00893465
     atom   36 type  1   force =    -0.00292447    0.00412800   -0.01531730
     atom   37 type  1   force =     0.00003374    0.00001367    0.00002722
     atom   38 type  1   force =     0.00002148   -0.00005331    0.00001270
     atom   39 type  1   force =    -0.00002625   -0.00003132    0.00002878
     atom   40 type  1   force =     0.00000796   -0.00001746    0.00004569
     atom   41 type  1   force =     0.00002648   -0.00003054    0.00952812
     atom   42 type  1   force =     0.00118300   -0.00166220    0.00775622
     atom   43 type  1   force =    -0.00064631   -0.00038206   -0.01265441
     atom   44 type  1   force =    -0.00086981    0.00049163   -0.00807310
     atom   45 type  1   force =    -0.00000057   -0.00000516    0.00003500
     atom   46 type  1   force =     0.00000816   -0.00001511   -0.00007379
     atom   47 type  1   force =     0.00003862    0.00002138   -0.00000503
     atom   48 type  1   force =     0.00006040    0.00003187    0.00007258
     atom   49 type  1   force =     0.00085546    0.00046587    0.00816172
     atom   50 type  1   force =     0.00108228   -0.00151358   -0.00317254
     atom   51 type  1   force =    -0.00064511    0.00016779    0.00893750
     atom   52 type  1   force =    -0.00115522   -0.00024466   -0.00827951
     atom   53 type  1   force =    -0.00007267   -0.00004431   -0.00005262
     atom   54 type  1   force =     0.00000616   -0.00001382   -0.00010943
     atom   55 type  1   force =     0.00002684    0.00002836    0.00002586
     atom   56 type  1   force =    -0.00003781    0.00003901    0.00000234
     atom   57 type  1   force =    -0.00000500   -0.00003935    0.00823390
     atom   58 type  1   force =     0.00072142    0.00049627    0.00878680
     atom   59 type  1   force =    -0.00016047    0.00099534   -0.00807116
     atom   60 type  1   force =    -0.00124145   -0.00090850   -0.00377420
     atom   61 type  1   force =    -0.00000296   -0.00000175    0.00003492
     atom   62 type  1   force =     0.00001142    0.00000353   -0.00000729
     atom   63 type  1   force =    -0.00005881   -0.00005614    0.00007397
     atom   64 type  1   force =    -0.00000873   -0.00000199    0.00002456
     atom   65 type  2   force =     0.00000133   -0.00000566    0.00007633

     Total force =     0.000401     Total SCF correction =     0.000050
     SCF correction compared to forces is large: reduce conv_thr to get better values

     bfgs converged in  11 scf cycles and  10 bfgs steps
     (criteria: energy <  7.3E-07 Ry, force <  3.9E-04 Ry/Bohr)

     End of BFGS Geometry Optimization

     Final energy   =  -21092.5590821923 Ry
Begin final coordinates

ATOMIC_POSITIONS (angstrom)
Fe       1.654912953   1.170200133   0.000000000    0   0   0
Fe       0.000000000   0.000000000   2.026984232    0   0   0
Fe       4.964738858   3.510600399   0.000000000    0   0   0
Fe       3.309825906   2.340400266   2.026984232    0   0   0
Fe       1.679584266   1.167627430   4.028607107
Fe       3.335837652   9.325435238   6.018362211
Fe       4.960706983   3.533291367   4.043666682
Fe       3.388962819   2.340903037   6.025492173
Fe       2.482363858   3.510600399   0.000000000    0   0   0
Fe       4.137287953   1.170200133   0.000000000    0   0   0
Fe       0.827450906   2.340400266   2.026984232    0   0   0
Fe       2.482375000   0.000000000   2.026984232    0   0   0
Fe       2.482594629   3.510839546   4.046849330
Fe       4.161835533   1.187905427   4.032145037
Fe       0.910626817   2.305542045   6.030254841
Fe       2.512999457   0.021880251   6.025757689
Fe       6.619662953   1.170200133   0.000000000    0   0   0
Fe       4.964750000   0.000000000   2.026984232    0   0   0
Fe       9.929488858   3.510600399   0.000000000    0   0   0
Fe       8.274575906   2.340400266   2.026984232    0   0   0
Fe       6.639302562   1.158743654   4.043308582
Fe       4.991367278   0.074933996   6.025775297
Fe       9.934208514   3.488554586   4.043334768
Fe       8.453494221   2.088074455   5.983336663
Fe       7.447113858   3.510600399   0.000000000    0   0   0
Fe       9.102037953   1.170200133   0.000000000    0   0   0
Fe       5.792200906   2.340400266   2.026984232    0   0   0
Fe       7.447125000   0.000000000   2.026984232    0   0   0
Fe       7.447518050   3.510551064   4.056398222
Fe       9.131097811   1.129543708   3.999832898
Fe       5.879982645   2.402215501   6.013682337
Fe      10.762753915   9.272048349   6.030210003
Fe       3.309814764   5.851000664   0.000000000    0   0   0
Fe       1.654901811   4.680800531   2.026984232    0   0   0
Fe       6.619640670   8.191400930   0.000000000    0   0   0
Fe       4.964727717   7.021200797   2.026984232    0   0   0
Fe       3.285524587   5.853872747   4.028767562
Fe      11.505679356   4.681131115   6.025800607
Fe       6.625426009   8.215559066   4.028776443
Fe       4.939027382   7.058103975   6.019106596
Fe       4.137265670   8.191400930   0.000000000    0   0   0
Fe       5.792189764   5.851000664   0.000000000    0   0   0
Fe       2.482352717   7.021200797   2.026984232    0   0   0
Fe       4.137276811   4.680800531   2.026984232    0   0   0
Fe       4.137439188   8.191582303   4.017350839
Fe       5.763373508   5.892187507   4.000137653
Fe      12.381581519   7.000103334   6.025658501
Fe       4.054811508   4.716640182   6.030748849
Fe       8.274564764   5.851000664   0.000000000    0   0   0
Fe       6.619651811   4.680800531   2.026984232    0   0   0
Fe      11.584390670   8.191400930   0.000000000    0   0   0
Fe       9.929477717   7.021200797   2.026984232    0   0   0
Fe       8.254948549   5.862697835   4.043733000
Fe       6.441543320   4.933454504   5.983290747
Fe      11.578990646   8.167600292   4.028549373
Fe       9.903248987   6.947284111   6.025455020
Fe       9.102015670   8.191400930   0.000000000    0   0   0
Fe      10.756939764   5.851000664   0.000000000    0   0   0
Fe       7.447102717   7.021200797   2.026984232    0   0   0
Fe       9.102026811   4.680800531   2.026984232    0   0   0
Fe       9.102116261   8.191606172   4.046836225
Fe      10.732492264   5.834045949   4.032174115
Fe       7.441401158   7.111504356   6.030814423
Fe       9.015299524   4.619130299   6.013769432
N        7.447537372   3.510796170   6.362797461
End final coordinates



     Writing output data file Fe_N_paper_480c_ESM_p25.save/

     init_run     :     80.60s CPU     81.84s WALL (       1 calls)
     electrons    :  78163.52s CPU  78789.71s WALL (      11 calls)
     update_pot   :    151.25s CPU    151.51s WALL (      10 calls)
     forces       :    469.64s CPU    474.11s WALL (      11 calls)

     Called by init_run:
     wfcinit      :     58.16s CPU     59.20s WALL (       1 calls)
     potinit      :      6.46s CPU      6.50s WALL (       1 calls)
     hinit0       :     12.94s CPU     13.00s WALL (       1 calls)

     Called by electrons:
     c_bands      :  71150.32s CPU  71680.50s WALL (     242 calls)
     sum_band     :   3865.32s CPU   3928.66s WALL (     242 calls)
     v_of_rho     :    400.88s CPU    402.37s WALL (     243 calls)
     newd         :     71.32s CPU     73.68s WALL (     243 calls)
     PAW_pot      :    113.25s CPU    113.66s WALL (     253 calls)
     mix_rho      :   2473.48s CPU   2496.81s WALL (     242 calls)

     Called by c_bands:
     init_us_2    :    112.01s CPU    114.13s WALL (    1518 calls)
     cegterg      :  57400.61s CPU  57775.51s WALL (     738 calls)

     Called by sum_band:
     sum_band:bec :      7.33s CPU      7.36s WALL (     756 calls)
     addusdens    :     90.19s CPU     94.45s WALL (     242 calls)

     Called by *egterg:
     h_psi        :  18251.43s CPU  18408.89s WALL (    5753 calls)
     s_psi        :   3781.94s CPU   3789.83s WALL (    5753 calls)
     g_psi        :     52.06s CPU     52.24s WALL (    5012 calls)
     cdiaghg      :  20094.94s CPU  20186.60s WALL (    5690 calls)

     Called by h_psi:
     h_psi:pot    :  18156.51s CPU  18258.04s WALL (    5753 calls)
     h_psi:calbec :   3823.59s CPU   3829.85s WALL (    5753 calls)
     vloc_psi     :  10546.67s CPU  10635.51s WALL (    5753 calls)
     add_vuspsi   :   3786.17s CPU   3792.63s WALL (    5753 calls)

     General routines
     calbec       :   5410.11s CPU   5418.94s WALL (    6641 calls)
     fft          :    249.50s CPU    251.16s WALL (    6248 calls)
     ffts         :   1255.45s CPU   1264.92s WALL (  150327 calls)
     fftw         :  10238.26s CPU  10329.53s WALL ( 2966190 calls)
     interpolate  :     25.09s CPU     25.30s WALL (     486 calls)
     davcio       :      1.20s CPU    153.85s WALL (    6331 calls)

     Parallel routines
     fft_scatt_xy :   2045.38s CPU   2056.17s WALL ( 3122765 calls)
     fft_scatt_yz :   3279.11s CPU   3329.65s WALL ( 3122765 calls)

     PWSCF        :     21h56m CPU     22h 7m WALL


   This run was terminated on:   4:14:28  11Jun2022            

=------------------------------------------------------------------------------=
   JOB DONE.
=------------------------------------------------------------------------------=
