     Message from routine get_command_line:
     unexpected argument # 4     :-in

     Program PWSCF v.6.7MaX starts on  5Jul2022 at 22:16:18 

     This program is part of the open-source Quantum ESPRESSO suite
     for quantum simulation of materials; please cite
         "P. Giannozzi et al., J. Phys.:Condens. Matter 21 395502 (2009);
         "P. Giannozzi et al., J. Phys.:Condens. Matter 29 465901 (2017);
          URL http://www.quantum-espresso.org", 
     in publications or presentations arising from this work. More details at
     http://www.quantum-espresso.org/quote

     Parallel version (MPI), running on   120 processors

     MPI processes distributed on     1 nodes
     K-points division:     npool     =       8
     R & G space division:  proc/nbgrp/npool/nimage =      15
     Waiting for input...
     Reading input from standard input
Warning: card &CELL ignored
Warning: card / ignored

     Current dimensions of program PWSCF are:
     Max number of different atomic species (ntypx) = 10
     Max number of k-points (npk) =  40000
     Max angular momentum in pseudopotentials (lmaxx) =  3

     IMPORTANT: XC functional enforced from input :
     Exchange-correlation= PBE
                           (   1   4   3   4   0   0   0)
     Any further DFT definition will be discarded
     Please, verify this is what you really want


     -------------------------------------------------
     Parameters for Dispersion (Grimme-D2) Correction:
     -------------------------------------------------
       atom      VdW radius       C_6     

        H          1.892          4.857

     Subspace diagonalization in iterative solution of the eigenvalue problem:
     one sub-group per band group will be used
     scalapack distributed-memory algorithm (size of sub-group:  3*  3 procs)


     Parallelization info
     --------------------
     sticks:   dense  smooth     PW     G-vecs:    dense   smooth      PW
     Min        3636    1818    468               639190   225950   29545
     Max        3637    1819    470               639197   225953   29547
     Sum       54553   27281   7033              9587919  3389267  443191



     bravais-lattice index     =            0
     lattice parameter (alat)  =      37.7945  a.u.
     unit-cell volume          =   53986.6760 (a.u.)^3
     number of atoms/cell      =            2
     number of atomic types    =            1
     number of electrons       =         2.00
     number of Kohn-Sham states=            5
     kinetic-energy cutoff     =      60.0000  Ry
     charge density cutoff     =     480.0000  Ry
     scf convergence threshold =      1.0E-08
     mixing beta               =       0.7000
     number of iterations used =           10  plain     mixing
     energy convergence thresh.=      7.3E-07
     force convergence thresh. =      3.9E-04
     Exchange-correlation= PBE
                           (   1   4   3   4   0   0   0)
     nstep                     =           50


     Effective Screening Medium Method
     =================================
     Boundary Conditions: Metal-Slab-Metal
     field strength                   =     0.03 Ry/a.u.
     grid points for fit at edges     =        4 


     celldm(1)=  37.794522  celldm(2)=   0.000000  celldm(3)=   0.000000
     celldm(4)=   0.000000  celldm(5)=   0.000000  celldm(6)=   0.000000

     crystal axes: (cart. coord. in units of alat)
               a(1) = (   1.000000   0.000000   0.000000 )  
               a(2) = (   0.000000   1.000000   0.000000 )  
               a(3) = (   0.000000   0.000000   1.000000 )  

     reciprocal axes: (cart. coord. in units 2 pi/alat)
               b(1) = (  1.000000  0.000000  0.000000 )  
               b(2) = (  0.000000  1.000000  0.000000 )  
               b(3) = (  0.000000  0.000000  1.000000 )  


     PseudoPot. # 1 for H  read from file:
     ../../SSSP/H.pbe-rrkjus_psl.1.0.0.UPF
     MD5 check sum: f52b6d4d1c606e5624b1dc7b2218f220
     Pseudo is Ultrasoft, Zval =  1.0
     Generated using "atomic" code by A. Dal Corso  v.5.1
     Using radial grid of  929 points,  2 beta functions with: 
                l(1) =   0
                l(2) =   0
     Q(r) pseudized with 0 coefficients 


     atomic species   valence    mass     pseudopotential
        H              1.00     1.00800     H ( 1.00)

     Starting magnetic structure 
     atomic species   magnetization
        H            0.100

     No symmetry found



   Cartesian axes

     site n.     atom                  positions (alat units)
         1           H   tau(   1) = (   0.5000000   0.5000000   0.0000000  )
         2           H   tau(   2) = (   0.5000000   0.5000000  -0.0369000  )

     number of k points=    10  Methfessel-Paxton smearing, width (Ry)=  0.0100
                       cart. coord. in units 2pi/alat
        k(    1) = (   0.0000000   0.0000000   0.0000000), wk =   0.0625000
        k(    2) = (   0.0000000   0.2500000   0.0000000), wk =   0.1250000
        k(    3) = (   0.0000000  -0.5000000   0.0000000), wk =   0.0625000
        k(    4) = (   0.2500000   0.0000000   0.0000000), wk =   0.1250000
        k(    5) = (   0.2500000   0.2500000   0.0000000), wk =   0.1250000
        k(    6) = (   0.2500000  -0.5000000   0.0000000), wk =   0.1250000
        k(    7) = (   0.2500000  -0.2500000   0.0000000), wk =   0.1250000
        k(    8) = (  -0.5000000   0.0000000   0.0000000), wk =   0.0625000
        k(    9) = (  -0.5000000   0.2500000   0.0000000), wk =   0.1250000
        k(   10) = (  -0.5000000  -0.5000000   0.0000000), wk =   0.0625000

     Dense  grid:  9587919 G-vectors     FFT dimensions: ( 270, 270, 270)

     Smooth grid:  3389267 G-vectors     FFT dimensions: ( 192, 192, 192)

     Estimated max dynamical RAM per process >     317.71 MB

     Estimated total dynamical RAM >      37.23 GB
     Generating pointlists ...
     new r_m :   0.0152 (alat units)  0.5753 (a.u.) for type    1

     Initial potential from superposition of free atoms

     starting charge    1.99998, renormalised to    2.00000

     negative rho (up, down):  2.630E-05 2.152E-05
     Starting wfcs are    2 randomized atomic wfcs +    3 random wfcs

     total cpu time spent up to now is       22.3 secs

     Self-consistent Calculation

     iteration #  1     ecut=    60.00 Ry     beta= 0.70
     CG style diagonalization
     c_bands:  1 eigenvalues not converged
     c_bands:  4 eigenvalues not converged
     c_bands:  1 eigenvalues not converged
     ethr =  1.00E-04,  avg # of iterations = 17.2

     negative rho (up, down):  5.261E-05 5.091E-05

     total cpu time spent up to now is       51.4 secs

     total energy              =      -2.32572612 Ry
     estimated scf accuracy    <       0.12046524 Ry

     total magnetization       =    -0.00 Bohr mag/cell
     absolute magnetization    =     0.01 Bohr mag/cell

     iteration #  2     ecut=    60.00 Ry     beta= 0.70
     CG style diagonalization
     ethr =  6.02E-03,  avg # of iterations =  3.0

     negative rho (up, down):  6.020E-05 5.961E-05

     total cpu time spent up to now is       65.9 secs

     total energy              =      -2.33422672 Ry
     estimated scf accuracy    <       0.00130139 Ry

     total magnetization       =     0.00 Bohr mag/cell
     absolute magnetization    =     0.00 Bohr mag/cell

     iteration #  3     ecut=    60.00 Ry     beta= 0.70
     CG style diagonalization
     ethr =  6.51E-05,  avg # of iterations =  3.4

     negative rho (up, down):  6.221E-05 6.194E-05

     total cpu time spent up to now is       81.0 secs

     total energy              =      -2.33476092 Ry
     estimated scf accuracy    <       0.00004080 Ry

     total magnetization       =    -0.00 Bohr mag/cell
     absolute magnetization    =     0.00 Bohr mag/cell

     iteration #  4     ecut=    60.00 Ry     beta= 0.70
     CG style diagonalization
     ethr =  2.04E-06,  avg # of iterations =  6.3

     negative rho (up, down):  6.293E-05 6.277E-05

     total cpu time spent up to now is       99.3 secs

     total energy              =      -2.33476471 Ry
     estimated scf accuracy    <       0.00000110 Ry

     total magnetization       =    -0.00 Bohr mag/cell
     absolute magnetization    =     0.00 Bohr mag/cell

     iteration #  5     ecut=    60.00 Ry     beta= 0.70
     CG style diagonalization
     ethr =  5.48E-08,  avg # of iterations =  3.2

     negative rho (up, down):  6.285E-05 6.282E-05

     total cpu time spent up to now is      114.3 secs

     total energy              =      -2.33476514 Ry
     estimated scf accuracy    <       0.00000014 Ry

     total magnetization       =     0.00 Bohr mag/cell
     absolute magnetization    =     0.00 Bohr mag/cell

     iteration #  6     ecut=    60.00 Ry     beta= 0.70
     CG style diagonalization
     ethr =  7.22E-09,  avg # of iterations =  3.2

     negative rho (up, down):  6.293E-05 6.291E-05

     total cpu time spent up to now is      129.4 secs

     total energy              =      -2.33476511 Ry
     estimated scf accuracy    <       0.00000015 Ry

     total magnetization       =     0.00 Bohr mag/cell
     absolute magnetization    =     0.00 Bohr mag/cell

     iteration #  7     ecut=    60.00 Ry     beta= 0.70
     CG style diagonalization
     ethr =  7.22E-09,  avg # of iterations =  3.2

     negative rho (up, down):  6.292E-05 6.292E-05

     Magnetic moment per site:
     atom:    1    charge:    0.2122    magn:   -0.0000    constr:    0.0000
     atom:    2    charge:    0.2038    magn:    0.0000    constr:    0.0000

     total cpu time spent up to now is      142.5 secs

     End of self-consistent calculation

 ------ SPIN UP ------------


          k = 0.0000 0.0000 0.0000 (423701 PWs)   bands (ev):

    -1.9817   2.7170   3.0931   3.0933   3.0935

          k = 0.0000 0.2500 0.0000 (423725 PWs)   bands (ev):

    -1.9817   2.7406   2.9286   3.1165   3.1167

          k = 0.0000-0.5000 0.0000 (423542 PWs)   bands (ev):

    -1.9817   2.8101   2.8122   3.1874   3.1883

          k = 0.2500 0.0000 0.0000 (423725 PWs)   bands (ev):

    -1.9817   2.7406   2.9286   3.1165   3.1171

          k = 0.2500 0.2500 0.0000 (423766 PWs)   bands (ev):

    -1.9817   2.7640   2.9521   2.9522   3.1403

          k = 0.2500-0.5000 0.0000 (423782 PWs)   bands (ev):

    -1.9817   2.8335   2.8357   3.0217   3.0238

          k = 0.2500-0.2500 0.0000 (423766 PWs)   bands (ev):

    -1.9817   2.7640   2.9521   2.9521   3.1403

          k =-0.5000 0.0000 0.0000 (423542 PWs)   bands (ev):

    -1.9817   2.8100   2.8123   3.1864   3.1885

          k =-0.5000 0.2500 0.0000 (423782 PWs)   bands (ev):

    -1.9817   2.8335   2.8356   3.0216   3.0237

          k =-0.5000-0.5000 0.0000 (423708 PWs)   bands (ev):

    -1.9817   2.9029   2.9051   2.9051   2.9072

 ------ SPIN DOWN ----------


          k = 0.0000 0.0000 0.0000 (423701 PWs)   bands (ev):

    -1.9816   2.7170   3.0931   3.0933   3.0934

          k = 0.0000 0.2500 0.0000 (423725 PWs)   bands (ev):

    -1.9816   2.7405   2.9286   3.1166   3.1170

          k = 0.0000-0.5000 0.0000 (423542 PWs)   bands (ev):

    -1.9816   2.8100   2.8123   3.1864   3.1881

          k = 0.2500 0.0000 0.0000 (423725 PWs)   bands (ev):

    -1.9816   2.7405   2.9286   3.1167   3.1169

          k = 0.2500 0.2500 0.0000 (423766 PWs)   bands (ev):

    -1.9816   2.7640   2.9521   2.9525   3.1404

          k = 0.2500-0.5000 0.0000 (423782 PWs)   bands (ev):

    -1.9816   2.8334   2.8356   3.0215   3.0238

          k = 0.2500-0.2500 0.0000 (423766 PWs)   bands (ev):

    -1.9816   2.7640   2.9521   2.9521   3.1403

          k =-0.5000 0.0000 0.0000 (423542 PWs)   bands (ev):

    -1.9816   2.8100   2.8123   3.1864   3.1885

          k =-0.5000 0.2500 0.0000 (423782 PWs)   bands (ev):

    -1.9816   2.8335   2.8357   3.0215   3.0238

          k =-0.5000-0.5000 0.0000 (423708 PWs)   bands (ev):

    -1.9816   2.9029   2.9051   2.9051   2.9073

     the Fermi energy is     0.6034 ev

!    total energy              =      -2.33476514 Ry
     estimated scf accuracy    <          4.2E-09 Ry
     smearing contrib. (-TS)   =       0.00000000 Ry
     internal energy E=F+TS    =      -2.33476514 Ry

     The total energy is F=E-TS. E is the sum of the following terms:
     one-electron contribution =      -3.60866932 Ry
     hartree contribution      =       2.54562445 Ry
     xc contribution           =      -1.38165582 Ry
     ewald contribution        =       0.10993720 Ry
     Dispersion Correction     =      -0.00000164 Ry

     total magnetization       =     0.00 Bohr mag/cell
     absolute magnetization    =     0.00 Bohr mag/cell

     convergence has been achieved in   7 iterations

     Forces acting on atoms (cartesian axes, Ry/au):

     atom    1 type  1   force =     0.00000000    0.00000000    0.01900870
     atom    2 type  1   force =    -0.00000000   -0.00000000   -0.01900889

     Total force =     0.019009     Total SCF correction =     0.000017

     BFGS Geometry Optimization
     Energy error            =      0.0E+00
     Gradient error          =      1.9E-02

     number of scf cycles    =   1
     number of bfgs steps    =   0

     energy   new            =      -2.3347651374 Ry

     new trust radius        =       0.0190088892 bohr
     new conv_thr            =       0.0000000100 Ry


ATOMIC_POSITIONS (angstrom)
H            10.0000000000       10.0000000000        0.0000000000    0   0   0
H            10.0000000000       10.0000000000       -0.7480590709



     Writing output data file ./H2_ESM_p5.save/
     NEW-OLD atomic charge density approx. for the potential

     negative rho (up, down):  6.245E-05 6.245E-05
     Generating pointlists ...

     total cpu time spent up to now is      155.6 secs

     Self-consistent Calculation

     iteration #  1     ecut=    60.00 Ry     beta= 0.70
     CG style diagonalization
     ethr =  1.00E-06,  avg # of iterations =  2.4

     negative rho (up, down):  6.224E-05 6.224E-05

     total cpu time spent up to now is      169.5 secs

     total energy              =      -2.33498643 Ry
     estimated scf accuracy    <       0.00003953 Ry

     total magnetization       =     0.00 Bohr mag/cell
     absolute magnetization    =     0.00 Bohr mag/cell

     iteration #  2     ecut=    60.00 Ry     beta= 0.70
     CG style diagonalization
     ethr =  1.98E-06,  avg # of iterations =  3.2

     negative rho (up, down):  6.231E-05 6.231E-05

     total cpu time spent up to now is      184.2 secs

     total energy              =      -2.33499095 Ry
     estimated scf accuracy    <       0.00000046 Ry

     total magnetization       =     0.00 Bohr mag/cell
     absolute magnetization    =     0.00 Bohr mag/cell

     iteration #  3     ecut=    60.00 Ry     beta= 0.70
     CG style diagonalization
     ethr =  2.30E-08,  avg # of iterations =  3.0

     negative rho (up, down):  6.236E-05 6.236E-05

     total cpu time spent up to now is      198.7 secs

     total energy              =      -2.33499099 Ry
     estimated scf accuracy    <       0.00000004 Ry

     total magnetization       =     0.00 Bohr mag/cell
     absolute magnetization    =     0.00 Bohr mag/cell

     iteration #  4     ecut=    60.00 Ry     beta= 0.70
     CG style diagonalization
     ethr =  1.79E-09,  avg # of iterations =  3.0

     negative rho (up, down):  6.237E-05 6.237E-05

     Magnetic moment per site:
     atom:    1    charge:    0.2096    magn:   -0.0000    constr:    0.0000
     atom:    2    charge:    0.2009    magn:    0.0000    constr:    0.0000

     total cpu time spent up to now is      211.5 secs

     End of self-consistent calculation

 ------ SPIN UP ------------


          k = 0.0000 0.0000 0.0000 (423701 PWs)   bands (ev):

    -1.9289   2.7172   3.0929   3.0934   3.0937

          k = 0.0000 0.2500 0.0000 (423725 PWs)   bands (ev):

    -1.9289   2.7407   2.9287   3.1167   3.1168

          k = 0.0000-0.5000 0.0000 (423542 PWs)   bands (ev):

    -1.9289   2.8100   2.8126   3.1874   3.1886

          k = 0.2500 0.0000 0.0000 (423725 PWs)   bands (ev):

    -1.9289   2.7407   2.9288   3.1169   3.1171

          k = 0.2500 0.2500 0.0000 (423766 PWs)   bands (ev):

    -1.9289   2.7642   2.9521   2.9525   3.1404

          k = 0.2500-0.5000 0.0000 (423782 PWs)   bands (ev):

    -1.9289   2.8335   2.8360   3.0216   3.0241

          k = 0.2500-0.2500 0.0000 (423766 PWs)   bands (ev):

    -1.9289   2.7642   2.9521   2.9524   3.1404

          k =-0.5000 0.0000 0.0000 (423542 PWs)   bands (ev):

    -1.9289   2.8100   2.8126   3.1865   3.1886

          k =-0.5000 0.2500 0.0000 (423782 PWs)   bands (ev):

    -1.9289   2.8335   2.8360   3.0216   3.0240

          k =-0.5000-0.5000 0.0000 (423708 PWs)   bands (ev):

    -1.9289   2.9025   2.9054   2.9054   2.9076

 ------ SPIN DOWN ----------


          k = 0.0000 0.0000 0.0000 (423701 PWs)   bands (ev):

    -1.9289   2.7172   3.0929   3.0934   3.0936

          k = 0.0000 0.2500 0.0000 (423725 PWs)   bands (ev):

    -1.9289   2.7407   2.9287   3.1169   3.1170

          k = 0.0000-0.5000 0.0000 (423542 PWs)   bands (ev):

    -1.9289   2.8100   2.8126   3.1865   3.1884

          k = 0.2500 0.0000 0.0000 (423725 PWs)   bands (ev):

    -1.9289   2.7407   2.9287   3.1167   3.1172

          k = 0.2500 0.2500 0.0000 (423766 PWs)   bands (ev):

    -1.9289   2.7642   2.9522   2.9526   3.1405

          k = 0.2500-0.5000 0.0000 (423782 PWs)   bands (ev):

    -1.9289   2.8334   2.8360   3.0215   3.0241

          k = 0.2500-0.2500 0.0000 (423766 PWs)   bands (ev):

    -1.9289   2.7642   2.9521   2.9524   3.1404

          k =-0.5000 0.0000 0.0000 (423542 PWs)   bands (ev):

    -1.9289   2.8100   2.8126   3.1865   3.1886

          k =-0.5000 0.2500 0.0000 (423782 PWs)   bands (ev):

    -1.9289   2.8335   2.8360   3.0215   3.0241

          k =-0.5000-0.5000 0.0000 (423708 PWs)   bands (ev):

    -1.9289   2.9025   2.9054   2.9055   2.9076

     the Fermi energy is     0.6299 ev

!    total energy              =      -2.33499100 Ry
     estimated scf accuracy    <          4.0E-10 Ry
     smearing contrib. (-TS)   =       0.00000000 Ry
     internal energy E=F+TS    =      -2.33499100 Ry

     The total energy is F=E-TS. E is the sum of the following terms:
     one-electron contribution =      -3.58159531 Ry
     hartree contribution      =       2.53180759 Ry
     xc contribution           =      -1.37522936 Ry
     ewald contribution        =       0.09002775 Ry
     Dispersion Correction     =      -0.00000167 Ry

     total magnetization       =    -0.00 Bohr mag/cell
     absolute magnetization    =     0.00 Bohr mag/cell

     convergence has been achieved in   4 iterations

     Forces acting on atoms (cartesian axes, Ry/au):

     atom    1 type  1   force =     0.00000000   -0.00000000    0.00490653
     atom    2 type  1   force =    -0.00000000    0.00000000   -0.00489937

     Total force =     0.004899     Total SCF correction =     0.000000
     Energy error            =      2.3E-04
     Gradient error          =      4.9E-03

     number of scf cycles    =   2
     number of bfgs steps    =   1

     energy   old            =      -2.3347651374 Ry
     energy   new            =      -2.3349910001 Ry

     CASE: energy  _new < energy  _old

     new trust radius        =       0.0066006187 bohr
     new conv_thr            =       0.0000000013 Ry


ATOMIC_POSITIONS (angstrom)
H            10.0000000000       10.0000000000        0.0000000000    0   0   0
H            10.0000000000       10.0000000000       -0.7515519679



     Writing output data file ./H2_ESM_p5.save/
     NEW-OLD atomic charge density approx. for the potential

     negative rho (up, down):  6.225E-05 6.225E-05
     Generating pointlists ...

     total cpu time spent up to now is      225.0 secs

     Self-consistent Calculation

     iteration #  1     ecut=    60.00 Ry     beta= 0.70
     CG style diagonalization
     ethr =  1.00E-06,  avg # of iterations =  2.2

     negative rho (up, down):  6.221E-05 6.221E-05

     total cpu time spent up to now is      238.6 secs

     total energy              =      -2.33500728 Ry
     estimated scf accuracy    <       0.00000443 Ry

     total magnetization       =    -0.00 Bohr mag/cell
     absolute magnetization    =     0.00 Bohr mag/cell

     iteration #  2     ecut=    60.00 Ry     beta= 0.70
     CG style diagonalization
     ethr =  2.22E-07,  avg # of iterations =  3.0

     negative rho (up, down):  6.220E-05 6.220E-05

     total cpu time spent up to now is      253.1 secs

     total energy              =      -2.33500772 Ry
     estimated scf accuracy    <       0.00000008 Ry

     total magnetization       =     0.00 Bohr mag/cell
     absolute magnetization    =     0.00 Bohr mag/cell

     iteration #  3     ecut=    60.00 Ry     beta= 0.70
     CG style diagonalization
     ethr =  3.83E-09,  avg # of iterations =  3.2

     negative rho (up, down):  6.221E-05 6.221E-05

     total cpu time spent up to now is      268.0 secs

     total energy              =      -2.33500776 Ry
     estimated scf accuracy    <          7.3E-09 Ry

     total magnetization       =     0.00 Bohr mag/cell
     absolute magnetization    =     0.00 Bohr mag/cell

     iteration #  4     ecut=    60.00 Ry     beta= 0.70
     CG style diagonalization
     ethr =  3.63E-10,  avg # of iterations =  3.2

     negative rho (up, down):  6.221E-05 6.221E-05

     Magnetic moment per site:
     atom:    1    charge:    0.2087    magn:   -0.0000    constr:    0.0000
     atom:    2    charge:    0.1999    magn:    0.0000    constr:    0.0000

     total cpu time spent up to now is      281.0 secs

     End of self-consistent calculation

 ------ SPIN UP ------------


          k = 0.0000 0.0000 0.0000 (423701 PWs)   bands (ev):

    -1.9106   2.7172   3.0927   3.0935   3.0937

          k = 0.0000 0.2500 0.0000 (423725 PWs)   bands (ev):

    -1.9106   2.7407   2.9288   3.1166   3.1169

          k = 0.0000-0.5000 0.0000 (423542 PWs)   bands (ev):

    -1.9106   2.8100   2.8126   3.1873   3.1887

          k = 0.2500 0.0000 0.0000 (423725 PWs)   bands (ev):

    -1.9106   2.7407   2.9288   3.1169   3.1171

          k = 0.2500 0.2500 0.0000 (423766 PWs)   bands (ev):

    -1.9106   2.7642   2.9520   2.9526   3.1404

          k = 0.2500-0.5000 0.0000 (423782 PWs)   bands (ev):

    -1.9106   2.8334   2.8361   3.0215   3.0242

          k = 0.2500-0.2500 0.0000 (423766 PWs)   bands (ev):

    -1.9106   2.7642   2.9520   2.9525   3.1404

          k =-0.5000 0.0000 0.0000 (423542 PWs)   bands (ev):

    -1.9106   2.8099   2.8127   3.1864   3.1885

          k =-0.5000 0.2500 0.0000 (423782 PWs)   bands (ev):

    -1.9106   2.8334   2.8361   3.0215   3.0241

          k =-0.5000-0.5000 0.0000 (423708 PWs)   bands (ev):

    -1.9106   2.9023   2.9055   2.9055   2.9077

 ------ SPIN DOWN ----------


          k = 0.0000 0.0000 0.0000 (423701 PWs)   bands (ev):

    -1.9106   2.7172   3.0927   3.0935   3.0937

          k = 0.0000 0.2500 0.0000 (423725 PWs)   bands (ev):

    -1.9106   2.7407   2.9288   3.1168   3.1171

          k = 0.0000-0.5000 0.0000 (423542 PWs)   bands (ev):

    -1.9106   2.8099   2.8127   3.1865   3.1884

          k = 0.2500 0.0000 0.0000 (423725 PWs)   bands (ev):

    -1.9106   2.7407   2.9288   3.1167   3.1172

          k = 0.2500 0.2500 0.0000 (423766 PWs)   bands (ev):

    -1.9106   2.7642   2.9521   2.9527   3.1405

          k = 0.2500-0.5000 0.0000 (423782 PWs)   bands (ev):

    -1.9106   2.8334   2.8361   3.0215   3.0242

          k = 0.2500-0.2500 0.0000 (423766 PWs)   bands (ev):

    -1.9106   2.7642   2.9520   2.9525   3.1404

          k =-0.5000 0.0000 0.0000 (423542 PWs)   bands (ev):

    -1.9106   2.8099   2.8127   3.1864   3.1885

          k =-0.5000 0.2500 0.0000 (423782 PWs)   bands (ev):

    -1.9106   2.8334   2.8361   3.0215   3.0242

          k =-0.5000-0.5000 0.0000 (423708 PWs)   bands (ev):

    -1.9106   2.9023   2.9055   2.9056   2.9077

     the Fermi energy is     0.6391 ev

!    total energy              =      -2.33500777 Ry
     estimated scf accuracy    <          3.6E-10 Ry
     smearing contrib. (-TS)   =       0.00000000 Ry
     internal energy E=F+TS    =      -2.33500777 Ry

     The total energy is F=E-TS. E is the sum of the following terms:
     one-electron contribution =      -3.57227803 Ry
     hartree contribution      =       2.52706222 Ry
     xc contribution           =      -1.37302537 Ry
     ewald contribution        =       0.08323509 Ry
     Dispersion Correction     =      -0.00000169 Ry

     total magnetization       =     0.00 Bohr mag/cell
     absolute magnetization    =     0.00 Bohr mag/cell

     convergence has been achieved in   4 iterations

     Forces acting on atoms (cartesian axes, Ry/au):

     atom    1 type  1   force =     0.00000000    0.00000000    0.00020539
     atom    2 type  1   force =    -0.00000000   -0.00000000   -0.00020664

     Total force =     0.000207     Total SCF correction =     0.000004
     Energy error            =      1.7E-05
     Gradient error          =      2.1E-04

     number of scf cycles    =   3
     number of bfgs steps    =   2

     energy   old            =      -2.3349910001 Ry
     energy   new            =      -2.3350077670 Ry

     CASE: energy  _new < energy  _old

     new trust radius        =       0.0002906495 bohr
     new conv_thr            =            1.0E-10 Ry


ATOMIC_POSITIONS (angstrom)
H            10.0000000000       10.0000000000        0.0000000000    0   0   0
H            10.0000000000       10.0000000000       -0.7517057730



     Writing output data file ./H2_ESM_p5.save/
     NEW-OLD atomic charge density approx. for the potential

     negative rho (up, down):  6.221E-05 6.221E-05
     Generating pointlists ...

     total cpu time spent up to now is      294.5 secs

     Self-consistent Calculation

     iteration #  1     ecut=    60.00 Ry     beta= 0.70
     CG style diagonalization
     ethr =  1.00E-06,  avg # of iterations =  2.0

     Threshold (ethr) on eigenvalues was too large:
     Diagonalizing with lowered threshold

     CG style diagonalization
     ethr =  2.09E-10,  avg # of iterations =  2.2

     negative rho (up, down):  6.220E-05 6.220E-05

     total cpu time spent up to now is      312.2 secs

     total energy              =      -2.33500779 Ry
     estimated scf accuracy    <          8.2E-09 Ry

     total magnetization       =     0.00 Bohr mag/cell
     absolute magnetization    =     0.00 Bohr mag/cell

     iteration #  2     ecut=    60.00 Ry     beta= 0.70
     CG style diagonalization
     ethr =  4.08E-10,  avg # of iterations =  3.0

     negative rho (up, down):  6.220E-05 6.220E-05

     total cpu time spent up to now is      326.6 secs

     total energy              =      -2.33500780 Ry
     estimated scf accuracy    <          1.3E-10 Ry

     total magnetization       =     0.00 Bohr mag/cell
     absolute magnetization    =     0.00 Bohr mag/cell

     iteration #  3     ecut=    60.00 Ry     beta= 0.70
     CG style diagonalization
     ethr =  6.75E-12,  avg # of iterations =  3.2

     negative rho (up, down):  6.221E-05 6.221E-05

     Magnetic moment per site:
     atom:    1    charge:    0.2086    magn:   -0.0000    constr:    0.0000
     atom:    2    charge:    0.1998    magn:    0.0000    constr:    0.0000

     total cpu time spent up to now is      339.7 secs

     End of self-consistent calculation

 ------ SPIN UP ------------


          k = 0.0000 0.0000 0.0000 (423701 PWs)   bands (ev):

    -1.9098   2.7172   3.0927   3.0935   3.0937

          k = 0.0000 0.2500 0.0000 (423725 PWs)   bands (ev):

    -1.9098   2.7407   2.9288   3.1166   3.1169

          k = 0.0000-0.5000 0.0000 (423542 PWs)   bands (ev):

    -1.9098   2.8100   2.8126   3.1872   3.1887

          k = 0.2500 0.0000 0.0000 (423725 PWs)   bands (ev):

    -1.9098   2.7407   2.9288   3.1168   3.1170

          k = 0.2500 0.2500 0.0000 (423766 PWs)   bands (ev):

    -1.9098   2.7642   2.9520   2.9526   3.1404

          k = 0.2500-0.5000 0.0000 (423782 PWs)   bands (ev):

    -1.9098   2.8334   2.8361   3.0215   3.0242

          k = 0.2500-0.2500 0.0000 (423766 PWs)   bands (ev):

    -1.9098   2.7642   2.9520   2.9525   3.1404

          k =-0.5000 0.0000 0.0000 (423542 PWs)   bands (ev):

    -1.9098   2.8099   2.8127   3.1864   3.1884

          k =-0.5000 0.2500 0.0000 (423782 PWs)   bands (ev):

    -1.9098   2.8334   2.8361   3.0215   3.0241

          k =-0.5000-0.5000 0.0000 (423708 PWs)   bands (ev):

    -1.9098   2.9023   2.9055   2.9055   2.9077

 ------ SPIN DOWN ----------


          k = 0.0000 0.0000 0.0000 (423701 PWs)   bands (ev):

    -1.9098   2.7172   3.0927   3.0935   3.0936

          k = 0.0000 0.2500 0.0000 (423725 PWs)   bands (ev):

    -1.9098   2.7407   2.9288   3.1168   3.1170

          k = 0.0000-0.5000 0.0000 (423542 PWs)   bands (ev):

    -1.9098   2.8099   2.8127   3.1864   3.1884

          k = 0.2500 0.0000 0.0000 (423725 PWs)   bands (ev):

    -1.9098   2.7407   2.9288   3.1167   3.1172

          k = 0.2500 0.2500 0.0000 (423766 PWs)   bands (ev):

    -1.9098   2.7642   2.9521   2.9526   3.1405

          k = 0.2500-0.5000 0.0000 (423782 PWs)   bands (ev):

    -1.9098   2.8334   2.8361   3.0215   3.0242

          k = 0.2500-0.2500 0.0000 (423766 PWs)   bands (ev):

    -1.9098   2.7642   2.9520   2.9525   3.1404

          k =-0.5000 0.0000 0.0000 (423542 PWs)   bands (ev):

    -1.9098   2.8099   2.8127   3.1864   3.1884

          k =-0.5000 0.2500 0.0000 (423782 PWs)   bands (ev):

    -1.9098   2.8334   2.8361   3.0215   3.0242

          k =-0.5000-0.5000 0.0000 (423708 PWs)   bands (ev):

    -1.9098   2.9023   2.9055   2.9055   2.9077

     the Fermi energy is     0.6395 ev

!    total energy              =      -2.33500780 Ry
     estimated scf accuracy    <          8.6E-12 Ry
     smearing contrib. (-TS)   =       0.00000000 Ry
     internal energy E=F+TS    =      -2.33500780 Ry

     The total energy is F=E-TS. E is the sum of the following terms:
     one-electron contribution =      -3.57187041 Ry
     hartree contribution      =       2.52685719 Ry
     xc contribution           =      -1.37293027 Ry
     ewald contribution        =       0.08293739 Ry
     Dispersion Correction     =      -0.00000169 Ry

     total magnetization       =    -0.00 Bohr mag/cell
     absolute magnetization    =     0.00 Bohr mag/cell

     convergence has been achieved in   3 iterations

     Forces acting on atoms (cartesian axes, Ry/au):

     atom    1 type  1   force =     0.00000000   -0.00000000    0.00000108
     atom    2 type  1   force =    -0.00000000    0.00000000   -0.00000090

     Total force =     0.000001     Total SCF correction =     0.000001
     SCF correction compared to forces is large: reduce conv_thr to get better values
     Energy error            =      2.9E-08
     Gradient error          =      9.0E-07
Begin final coordinates

ATOMIC_POSITIONS (angstrom)
H            10.0000000000       10.0000000000        0.0000000000    0   0   0
H            10.0000000000       10.0000000000       -0.7517057730
End final coordinates



     Writing output data file ./H2_ESM_p5.save/

     lsda relaxation :  a final configuration with zero
                        absolute magnetization has been found

     the program is checking if it is really the minimum energy structure
     by performing a new scf iteration without any "electronic" history

     Initial potential from superposition of free atoms

     starting charge    1.99998, renormalised to    2.00000

     negative rho (up, down):  2.645E-05 2.164E-05

     total cpu time spent up to now is      351.9 secs

     Self-consistent Calculation

     iteration #  1     ecut=    60.00 Ry     beta= 0.70
     CG style diagonalization
     ethr =  1.00E-06,  avg # of iterations =  2.6

     negative rho (up, down):  5.225E-05 5.068E-05

     total cpu time spent up to now is      365.9 secs

     total energy              =      -2.32640911 Ry
     estimated scf accuracy    <       0.11551343 Ry

     total magnetization       =     0.00 Bohr mag/cell
     absolute magnetization    =     0.01 Bohr mag/cell

     iteration #  2     ecut=    60.00 Ry     beta= 0.70
     CG style diagonalization
     ethr =  5.78E-03,  avg # of iterations =  3.0

     negative rho (up, down):  5.971E-05 5.928E-05

     total cpu time spent up to now is      380.4 secs

     total energy              =      -2.33448727 Ry
     estimated scf accuracy    <       0.00126475 Ry

     total magnetization       =    -0.00 Bohr mag/cell
     absolute magnetization    =     0.00 Bohr mag/cell

     iteration #  3     ecut=    60.00 Ry     beta= 0.70
     CG style diagonalization
     ethr =  6.32E-05,  avg # of iterations =  3.2

     negative rho (up, down):  6.162E-05 6.135E-05

     total cpu time spent up to now is      395.2 secs

     total energy              =      -2.33500367 Ry
     estimated scf accuracy    <       0.00004080 Ry

     total magnetization       =     0.00 Bohr mag/cell
     absolute magnetization    =     0.00 Bohr mag/cell

     iteration #  4     ecut=    60.00 Ry     beta= 0.70
     CG style diagonalization
     ethr =  2.04E-06,  avg # of iterations =  3.1

     negative rho (up, down):  6.224E-05 6.199E-05

     total cpu time spent up to now is      410.1 secs

     total energy              =      -2.33500762 Ry
     estimated scf accuracy    <       0.00000145 Ry

     total magnetization       =     0.00 Bohr mag/cell
     absolute magnetization    =     0.00 Bohr mag/cell

     iteration #  5     ecut=    60.00 Ry     beta= 0.70
     CG style diagonalization
     ethr =  7.25E-08,  avg # of iterations =  3.1

     negative rho (up, down):  6.217E-05 6.214E-05

     total cpu time spent up to now is      424.9 secs

     total energy              =      -2.33500779 Ry
     estimated scf accuracy    <       0.00000001 Ry

     total magnetization       =    -0.00 Bohr mag/cell
     absolute magnetization    =     0.00 Bohr mag/cell

     iteration #  6     ecut=    60.00 Ry     beta= 0.70
     CG style diagonalization
     ethr =  6.47E-10,  avg # of iterations =  3.3

     negative rho (up, down):  6.222E-05 6.219E-05

     total cpu time spent up to now is      440.1 secs

     total energy              =      -2.33500779 Ry
     estimated scf accuracy    <       0.00000001 Ry

     total magnetization       =    -0.00 Bohr mag/cell
     absolute magnetization    =     0.00 Bohr mag/cell

     iteration #  7     ecut=    60.00 Ry     beta= 0.70
     CG style diagonalization
     ethr =  5.81E-10,  avg # of iterations =  3.2

     negative rho (up, down):  6.219E-05 6.219E-05

     total cpu time spent up to now is      455.3 secs

     total energy              =      -2.33500780 Ry
     estimated scf accuracy    <          2.3E-10 Ry

     total magnetization       =    -0.00 Bohr mag/cell
     absolute magnetization    =     0.00 Bohr mag/cell

     iteration #  8     ecut=    60.00 Ry     beta= 0.70
     CG style diagonalization
     ethr =  1.13E-11,  avg # of iterations =  3.4

     negative rho (up, down):  6.220E-05 6.220E-05

     total cpu time spent up to now is      470.8 secs

     total energy              =      -2.33500780 Ry
     estimated scf accuracy    <          1.3E-10 Ry

     total magnetization       =    -0.00 Bohr mag/cell
     absolute magnetization    =     0.00 Bohr mag/cell

     iteration #  9     ecut=    60.00 Ry     beta= 0.70
     CG style diagonalization
     ethr =  6.28E-12,  avg # of iterations =  3.2

     negative rho (up, down):  6.221E-05 6.221E-05

     Magnetic moment per site:
     atom:    1    charge:    0.2086    magn:   -0.0000    constr:    0.0000
     atom:    2    charge:    0.1998    magn:    0.0000    constr:    0.0000

     total cpu time spent up to now is      483.8 secs

     End of self-consistent calculation

 ------ SPIN UP ------------


          k = 0.0000 0.0000 0.0000 (423701 PWs)   bands (ev):

    -1.9098   2.7172   3.0926   3.0934   3.0937

          k = 0.0000 0.2500 0.0000 (423725 PWs)   bands (ev):

    -1.9098   2.7407   2.9288   3.1166   3.1169

          k = 0.0000-0.5000 0.0000 (423542 PWs)   bands (ev):

    -1.9098   2.8099   2.8126   3.1871   3.1887

          k = 0.2500 0.0000 0.0000 (423725 PWs)   bands (ev):

    -1.9098   2.7407   2.9288   3.1168   3.1170

          k = 0.2500 0.2500 0.0000 (423766 PWs)   bands (ev):

    -1.9098   2.7642   2.9520   2.9525   3.1404

          k = 0.2500-0.5000 0.0000 (423782 PWs)   bands (ev):

    -1.9098   2.8334   2.8361   3.0215   3.0242

          k = 0.2500-0.2500 0.0000 (423766 PWs)   bands (ev):

    -1.9098   2.7642   2.9520   2.9525   3.1404

          k =-0.5000 0.0000 0.0000 (423542 PWs)   bands (ev):

    -1.9098   2.8099   2.8126   3.1863   3.1883

          k =-0.5000 0.2500 0.0000 (423782 PWs)   bands (ev):

    -1.9098   2.8334   2.8361   3.0215   3.0241

          k =-0.5000-0.5000 0.0000 (423708 PWs)   bands (ev):

    -1.9098   2.9023   2.9055   2.9055   2.9077

 ------ SPIN DOWN ----------


          k = 0.0000 0.0000 0.0000 (423701 PWs)   bands (ev):

    -1.9098   2.7172   3.0926   3.0934   3.0935

          k = 0.0000 0.2500 0.0000 (423725 PWs)   bands (ev):

    -1.9098   2.7407   2.9288   3.1168   3.1170

          k = 0.0000-0.5000 0.0000 (423542 PWs)   bands (ev):

    -1.9098   2.8099   2.8126   3.1863   3.1884

          k = 0.2500 0.0000 0.0000 (423725 PWs)   bands (ev):

    -1.9098   2.7407   2.9288   3.1167   3.1171

          k = 0.2500 0.2500 0.0000 (423766 PWs)   bands (ev):

    -1.9098   2.7642   2.9520   2.9526   3.1404

          k = 0.2500-0.5000 0.0000 (423782 PWs)   bands (ev):

    -1.9098   2.8334   2.8361   3.0214   3.0241

          k = 0.2500-0.2500 0.0000 (423766 PWs)   bands (ev):

    -1.9098   2.7642   2.9520   2.9525   3.1404

          k =-0.5000 0.0000 0.0000 (423542 PWs)   bands (ev):

    -1.9098   2.8099   2.8126   3.1863   3.1883

          k =-0.5000 0.2500 0.0000 (423782 PWs)   bands (ev):

    -1.9098   2.8334   2.8361   3.0214   3.0241

          k =-0.5000-0.5000 0.0000 (423708 PWs)   bands (ev):

    -1.9098   2.9023   2.9055   2.9055   2.9077

     the Fermi energy is     0.6395 ev

!    total energy              =      -2.33500780 Ry
     estimated scf accuracy    <          5.7E-12 Ry
     smearing contrib. (-TS)   =       0.00000000 Ry
     internal energy E=F+TS    =      -2.33500780 Ry

     The total energy is F=E-TS. E is the sum of the following terms:
     one-electron contribution =      -3.57187104 Ry
     hartree contribution      =       2.52685840 Ry
     xc contribution           =      -1.37293086 Ry
     ewald contribution        =       0.08293739 Ry
     Dispersion Correction     =      -0.00000169 Ry

     total magnetization       =     0.00 Bohr mag/cell
     absolute magnetization    =     0.00 Bohr mag/cell

     convergence has been achieved in   9 iterations

     Forces acting on atoms (cartesian axes, Ry/au):

     atom    1 type  1   force =     0.00000000    0.00000000    0.00000035
     atom    2 type  1   force =    -0.00000000   -0.00000000   -0.00000069

     Total force =     0.000001     Total SCF correction =     0.000000
     SCF correction compared to forces is large: reduce conv_thr to get better values
     Energy error            =      2.9E-08
     Gradient error          =      6.9E-07

     bfgs converged in   4 scf cycles and   3 bfgs steps
     (criteria: energy <  7.3E-07 Ry, force <  3.9E-04 Ry/Bohr)

     End of BFGS Geometry Optimization

     Final energy   =      -2.3350077961 Ry

     File ./H2_ESM_p5.bfgs deleted, as requested
Begin final coordinates

ATOMIC_POSITIONS (angstrom)
H            10.0000000000       10.0000000000        0.0000000000    0   0   0
H            10.0000000000       10.0000000000       -0.7517057730
End final coordinates



     Writing output data file ./H2_ESM_p5.save/

     init_run     :     18.33s CPU     22.15s WALL (       1 calls)
     electrons    :    385.84s CPU    418.35s WALL (       5 calls)
     update_pot   :     21.34s CPU     22.91s WALL (       3 calls)
     forces       :     10.15s CPU     10.34s WALL (       5 calls)

     Called by init_run:
     wfcinit      :      0.40s CPU      3.16s WALL (       1 calls)
     potinit      :     14.75s CPU     15.95s WALL (       2 calls)
     hinit0       :      0.93s CPU      1.08s WALL (       1 calls)

     Called by electrons:
     c_bands      :    105.40s CPU    107.18s WALL (      28 calls)
     sum_band     :     46.89s CPU     47.62s WALL (      28 calls)
     v_of_rho     :    185.83s CPU    202.20s WALL (      32 calls)
     newd         :     17.96s CPU     18.49s WALL (      32 calls)
     mix_rho      :     30.81s CPU     37.49s WALL (      28 calls)

     Called by c_bands:
     init_us_2    :      0.31s CPU      0.34s WALL (     186 calls)
     ccgdiagg     :     79.33s CPU     80.27s WALL (      84 calls)
     wfcrot       :     22.73s CPU     23.00s WALL (      69 calls)

     Called by *cgdiagg:
     h_psi        :     97.17s CPU     98.29s WALL (    1247 calls)
     s_psi        :      0.45s CPU      0.46s WALL (    2425 calls)

     Called by h_psi:
     h_psi:calbec :      1.78s CPU      1.81s WALL (    1247 calls)
     vloc_psi     :     93.73s CPU     94.79s WALL (    1247 calls)
     add_vuspsi   :      1.28s CPU      1.30s WALL (    1247 calls)
     hs_1psi      :     75.71s CPU     76.60s WALL (    1178 calls)
     s_1psi       :      0.97s CPU      0.98s WALL (    1178 calls)

     General routines
     calbec       :      2.65s CPU      2.69s WALL (    2569 calls)
     fft          :    183.03s CPU    188.09s WALL (     789 calls)
     ffts         :      9.57s CPU      9.66s WALL (     120 calls)
     fftw         :     88.48s CPU     89.45s WALL (    3466 calls)
     interpolate  :     21.93s CPU     23.71s WALL (      64 calls)
     davcio       :      0.08s CPU      6.07s WALL (     451 calls)

     Parallel routines
     fft_scatt_xy :     41.54s CPU     42.00s WALL (    4375 calls)
     fft_scatt_yz :    104.01s CPU    105.27s WALL (    4375 calls)

     PWSCF        :   7m30.41s CPU   8m10.09s WALL


   This run was terminated on:  22:24:28   5Jul2022            

=------------------------------------------------------------------------------=
   JOB DONE.
=------------------------------------------------------------------------------=
