
     Program PHONON v.6.7MaX starts on 20Sep2022 at 22:24: 3 

     This program is part of the open-source Quantum ESPRESSO suite
     for quantum simulation of materials; please cite
         "P. Giannozzi et al., J. Phys.:Condens. Matter 21 395502 (2009);
         "P. Giannozzi et al., J. Phys.:Condens. Matter 29 465901 (2017);
          URL http://www.quantum-espresso.org", 
     in publications or presentations arising from this work. More details at
     http://www.quantum-espresso.org/quote

     Parallel version (MPI), running on   120 processors

     MPI processes distributed on     1 nodes
     K-points division:     npool     =       8
     R & G space division:  proc/nbgrp/npool/nimage =      15
     Waiting for input...
     Reading input from standard input

     Reading xml data from directory:

     ./H2_ESM_p5.save/

     IMPORTANT: XC functional enforced from input :
     Exchange-correlation= PBE
                           (   1   4   3   4   0   0   0)
     Any further DFT definition will be discarded
     Please, verify this is what you really want


     Parallelization info
     --------------------
     sticks:   dense  smooth     PW     G-vecs:    dense   smooth      PW
     Min        3636    1818    468               639190   225950   29545
     Max        3637    1819    470               639197   225953   29547
     Sum       54553   27281   7033              9587919  3389267  443191


     negative rho (up, down):  6.221E-05 6.221E-05
     Reading collected, re-writing distributed wavefunctions

     Calculation of q =    0.0000000   0.0000000   0.0000000

     phonons (vibrational modes) for H2                                         

     bravais-lattice index     =            0
     lattice parameter (alat)  =      37.7945  a.u.
     unit-cell volume          =   53986.6760 (a.u.)^3
     number of atoms/cell      =            2
     number of atomic types    =            1
     kinetic-energy cut-off    =      60.0000  Ry
     charge density cut-off    =     480.0000  Ry
     convergence threshold     =      1.0E-12
     beta                      =       0.7000
     number of iterations used =            4
     Exchange-correlation= PBE
                           (   1   4   3   4   0   0   0)


     celldm(1)=   37.79452  celldm(2)=    0.00000  celldm(3)=    0.00000
     celldm(4)=    0.00000  celldm(5)=    0.00000  celldm(6)=    0.00000

     crystal axes: (cart. coord. in units of alat)
               a(1) = (  1.0000  0.0000  0.0000 )  
               a(2) = (  0.0000  1.0000  0.0000 )  
               a(3) = (  0.0000  0.0000  1.0000 )  

     reciprocal axes: (cart. coord. in units 2 pi/alat)
               b(1) = (  1.0000  0.0000  0.0000 )  
               b(2) = (  0.0000  1.0000  0.0000 )  
               b(3) = (  0.0000  0.0000  1.0000 )  


     Atoms inside the unit cell: 

     Cartesian axes

     site n.  atom      mass           positions (alat units)
        1     H    1.0078   tau(    1) = (    0.50000    0.50000    0.00000  )
        2     H    1.0078   tau(    2) = (    0.50000    0.50000   -0.03759  )

     Computing dynamical matrix for 
                    q = (   0.0000000   0.0000000   0.0000000 )

      2 Sym.Ops. (with q -> -q+G )


     G cutoff =17367.5767  ( 639197 G-vectors)     FFT grid: (270,270,270)
     G cutoff = 8683.7884  ( 225950 G-vectors)  smooth grid: (192,192,192)

     number of k points=    20  Methfessel-Paxton smearing, width (Ry)=  0.0100
                       cart. coord. in units 2pi/alat
        k(    1) = (   0.0000000   0.0000000   0.0000000), wk =   0.0625000
        k(    2) = (   0.0000000   0.2500000   0.0000000), wk =   0.1250000
        k(    3) = (   0.0000000  -0.5000000   0.0000000), wk =   0.0625000
        k(    4) = (   0.2500000   0.0000000   0.0000000), wk =   0.1250000
        k(    5) = (   0.2500000   0.2500000   0.0000000), wk =   0.1250000
        k(    6) = (   0.2500000  -0.5000000   0.0000000), wk =   0.1250000
        k(    7) = (   0.2500000  -0.2500000   0.0000000), wk =   0.1250000
        k(    8) = (  -0.5000000   0.0000000   0.0000000), wk =   0.0625000
        k(    9) = (  -0.5000000   0.2500000   0.0000000), wk =   0.1250000
        k(   10) = (  -0.5000000  -0.5000000   0.0000000), wk =   0.0625000
        k(   11) = (   0.0000000   0.0000000   0.0000000), wk =   0.0625000
        k(   12) = (   0.0000000   0.2500000   0.0000000), wk =   0.1250000
        k(   13) = (   0.0000000  -0.5000000   0.0000000), wk =   0.0625000
        k(   14) = (   0.2500000   0.0000000   0.0000000), wk =   0.1250000
        k(   15) = (   0.2500000   0.2500000   0.0000000), wk =   0.1250000
        k(   16) = (   0.2500000  -0.5000000   0.0000000), wk =   0.1250000
        k(   17) = (   0.2500000  -0.2500000   0.0000000), wk =   0.1250000
        k(   18) = (  -0.5000000   0.0000000   0.0000000), wk =   0.0625000
        k(   19) = (  -0.5000000   0.2500000   0.0000000), wk =   0.1250000
        k(   20) = (  -0.5000000  -0.5000000   0.0000000), wk =   0.0625000

     PseudoPot. # 1 for H  read from file:
     ../../SSSP/H.pbe-rrkjus_psl.1.0.0.UPF
     MD5 check sum: f52b6d4d1c606e5624b1dc7b2218f220
     Pseudo is Ultrasoft, Zval =  1.0
     Generated using "atomic" code by A. Dal Corso  v.5.1
     Using radial grid of  929 points,  2 beta functions with: 
                l(1) =   0
                l(2) =   0
     Q(r) pseudized with 0 coefficients 


     Mode symmetry, C_1 (1)     point group:


     Atomic displacements:
     There are    6 irreducible representations

     Representation     1      1 modes -  To be done

     Representation     2      1 modes -  To be done

     Representation     3      1 modes -  To be done

     Representation     4      1 modes -  To be done

     Representation     5      1 modes -  To be done

     Representation     6      1 modes -  To be done



     Alpha used in Ewald sum =   2.8000

     -------------------------------------------------
     Parameters for Dispersion (Grimme-D2) Correction:
     -------------------------------------------------
       atom      VdW radius       C_6     

        H          1.892          4.857

     Calculating the D2 contribution to the dynamical matrix.
     D2 energy =       -0.00000169 Ry
     Done.

     PHONON       :     56.17s CPU   1m 1.66s WALL



     Representation #   1 mode #   1

     Self-consistent Calculation

     Pert. #  1: Fermi energy shift (Ry) =     0.0000E+00     0.0000E+00

      iter #   1 total cpu time :    85.7 secs   av.it.:   7.0
      thresh= 1.000E-02 alpha_mix =  0.700 |ddv_scf|^2 =  2.155E-07

     Pert. #  1: Fermi energy shift (Ry) =     0.0000E+00     0.0000E+00

      iter #   2 total cpu time :   111.1 secs   av.it.:  14.5
      thresh= 4.642E-05 alpha_mix =  0.700 |ddv_scf|^2 =  1.938E-08

     Pert. #  1: Fermi energy shift (Ry) =     0.0000E+00     0.0000E+00

      iter #   3 total cpu time :   140.4 secs   av.it.:  11.8
      thresh= 1.392E-05 alpha_mix =  0.700 |ddv_scf|^2 =  1.247E-14

     End of self-consistent calculation

     Convergence has been achieved 


     Representation #   2 mode #   2

     Self-consistent Calculation

     Pert. #  1: Fermi energy shift (Ry) =     0.0000E+00     0.0000E+00

      iter #   1 total cpu time :   169.1 secs   av.it.:   7.0
      thresh= 1.000E-02 alpha_mix =  0.700 |ddv_scf|^2 =  2.155E-07

     Pert. #  1: Fermi energy shift (Ry) =     0.0000E+00     0.0000E+00

      iter #   2 total cpu time :   193.2 secs   av.it.:  14.5
      thresh= 4.642E-05 alpha_mix =  0.700 |ddv_scf|^2 =  1.938E-08

     Pert. #  1: Fermi energy shift (Ry) =     0.0000E+00     0.0000E+00

      iter #   3 total cpu time :   217.7 secs   av.it.:  11.8
      thresh= 1.392E-05 alpha_mix =  0.700 |ddv_scf|^2 =  1.247E-14

     End of self-consistent calculation

     Convergence has been achieved 


     Representation #   3 mode #   3

     Self-consistent Calculation

     Pert. #  1: Fermi energy shift (Ry) =     0.0000E+00     0.0000E+00

      iter #   1 total cpu time :   252.5 secs   av.it.:  11.0
      thresh= 1.000E-02 alpha_mix =  0.700 |ddv_scf|^2 =  1.879E-07

     Pert. #  1: Fermi energy shift (Ry) =     0.0000E+00     0.0000E+00

      iter #   2 total cpu time :   279.2 secs   av.it.:  19.0
      thresh= 4.335E-05 alpha_mix =  0.700 |ddv_scf|^2 =  3.886E-08

     Pert. #  1: Fermi energy shift (Ry) =     0.0000E+00     0.0000E+00

      iter #   3 total cpu time :   304.5 secs   av.it.:  19.9
      thresh= 1.971E-05 alpha_mix =  0.700 |ddv_scf|^2 =  1.996E-08

     Pert. #  1: Fermi energy shift (Ry) =     0.0000E+00     0.0000E+00

      iter #   4 total cpu time :   333.4 secs   av.it.:  19.9
      thresh= 1.413E-05 alpha_mix =  0.700 |ddv_scf|^2 =  3.483E-12

     Pert. #  1: Fermi energy shift (Ry) =     0.0000E+00     0.0000E+00

      iter #   5 total cpu time :   359.9 secs   av.it.:  22.9
      thresh= 1.866E-07 alpha_mix =  0.700 |ddv_scf|^2 =  6.527E-15

     End of self-consistent calculation

     Convergence has been achieved 


     Representation #   4 mode #   4

     Self-consistent Calculation

     Pert. #  1: Fermi energy shift (Ry) =     0.0000E+00     0.0000E+00

      iter #   1 total cpu time :   388.8 secs   av.it.:   7.0
      thresh= 1.000E-02 alpha_mix =  0.700 |ddv_scf|^2 =  8.515E-08

     Pert. #  1: Fermi energy shift (Ry) =     0.0000E+00     0.0000E+00

      iter #   2 total cpu time :   417.5 secs   av.it.:  15.2
      thresh= 2.918E-05 alpha_mix =  0.700 |ddv_scf|^2 =  7.670E-09

     Pert. #  1: Fermi energy shift (Ry) =     0.0000E+00     0.0000E+00

      iter #   3 total cpu time :   444.0 secs   av.it.:  12.8
      thresh= 8.758E-06 alpha_mix =  0.700 |ddv_scf|^2 =  8.888E-15

     End of self-consistent calculation

     Convergence has been achieved 


     Representation #   5 mode #   5

     Self-consistent Calculation

     Pert. #  1: Fermi energy shift (Ry) =     0.0000E+00     0.0000E+00

      iter #   1 total cpu time :   473.4 secs   av.it.:   7.0
      thresh= 1.000E-02 alpha_mix =  0.700 |ddv_scf|^2 =  8.515E-08

     Pert. #  1: Fermi energy shift (Ry) =     0.0000E+00     0.0000E+00

      iter #   2 total cpu time :   499.8 secs   av.it.:  15.2
      thresh= 2.918E-05 alpha_mix =  0.700 |ddv_scf|^2 =  7.670E-09

     Pert. #  1: Fermi energy shift (Ry) =     0.0000E+00     0.0000E+00

      iter #   3 total cpu time :   523.5 secs   av.it.:  12.8
      thresh= 8.758E-06 alpha_mix =  0.700 |ddv_scf|^2 =  8.888E-15

     End of self-consistent calculation

     Convergence has been achieved 


     Representation #   6 mode #   6

     Self-consistent Calculation

     Pert. #  1: Fermi energy shift (Ry) =     0.0000E+00     0.0000E+00

      iter #   1 total cpu time :   554.1 secs   av.it.:  11.0
      thresh= 1.000E-02 alpha_mix =  0.700 |ddv_scf|^2 =  2.239E-07

     Pert. #  1: Fermi energy shift (Ry) =     0.0000E+00     0.0000E+00

      iter #   2 total cpu time :   580.4 secs   av.it.:  19.0
      thresh= 4.732E-05 alpha_mix =  0.700 |ddv_scf|^2 =  1.670E-08

     Pert. #  1: Fermi energy shift (Ry) =     0.0000E+00     0.0000E+00

      iter #   3 total cpu time :   605.5 secs   av.it.:  21.0
      thresh= 1.292E-05 alpha_mix =  0.700 |ddv_scf|^2 =  9.347E-09

     Pert. #  1: Fermi energy shift (Ry) =     0.0000E+00     0.0000E+00

      iter #   4 total cpu time :   635.7 secs   av.it.:  20.1
      thresh= 9.668E-06 alpha_mix =  0.700 |ddv_scf|^2 =  1.250E-12

     Pert. #  1: Fermi energy shift (Ry) =     0.0000E+00     0.0000E+00

      iter #   5 total cpu time :   669.2 secs   av.it.:  22.9
      thresh= 1.118E-07 alpha_mix =  0.700 |ddv_scf|^2 =  1.501E-14

     End of self-consistent calculation

     Convergence has been achieved 

     Number of q in the star =    1
     List of q in the star:
          1   0.000000000   0.000000000   0.000000000

     Diagonalizing the dynamical matrix

     q = (    0.000000000   0.000000000   0.000000000 ) 

 **************************************************************************
     freq (    1) =     -99.144751 [THz] =   -3307.112915 [cm-1]
     freq (    2) =     -99.144751 [THz] =   -3307.112912 [cm-1]
     freq (    3) =     -85.879249 [THz] =   -2864.623399 [cm-1]
     freq (    4) =     -42.396213 [THz] =   -1414.185446 [cm-1]
     freq (    5) =     -42.396213 [THz] =   -1414.185442 [cm-1]
     freq (    6) =      92.184837 [THz] =    3074.955161 [cm-1]
 **************************************************************************

     Mode symmetry, C_1 (1)     point group:

     freq (   1-   1) =      -3307.1  [cm-1]   --> A               I+R
     freq (   2-   2) =      -3307.1  [cm-1]   --> A               I+R
     freq (   3-   3) =      -2864.6  [cm-1]   --> A               I+R
     freq (   4-   4) =      -1414.2  [cm-1]   --> A               I+R
     freq (   5-   5) =      -1414.2  [cm-1]   --> A               I+R
     freq (   6-   6) =       3075.0  [cm-1]   --> A               I+R

     PHONON       :   9m26.17s CPU  11m20.54s WALL

     INITIALIZATION: 
     phq_setup    :     12.68s CPU     14.22s WALL (       1 calls)
     phq_init     :     26.55s CPU     28.28s WALL (       1 calls)

     phq_init     :     26.55s CPU     28.28s WALL (       1 calls)
     init_vloc    :      0.14s CPU      0.14s WALL (       1 calls)
     init_us_1    :      0.02s CPU      0.02s WALL (       1 calls)
     newd         :      1.12s CPU      1.16s WALL (       1 calls)
     dvanqq       :      6.97s CPU      7.12s WALL (       1 calls)
     drho         :     12.11s CPU     13.60s WALL (       1 calls)

     DYNAMICAL MATRIX:
     dynmat0      :      0.83s CPU      0.89s WALL (       1 calls)
     phqscf       :    509.93s CPU    613.45s WALL (       1 calls)
     dynmatrix    :      0.07s CPU      0.11s WALL (       1 calls)

     phqscf       :    509.93s CPU    613.45s WALL (       1 calls)
     solve_linter :    506.01s CPU    599.62s WALL (       6 calls)
     drhodv       :      3.92s CPU      4.07s WALL (       6 calls)

     dynmat0      :      0.83s CPU      0.89s WALL (       1 calls)
     dynmat_us    :      0.63s CPU      0.65s WALL (       1 calls)
     d2ionq       :      0.20s CPU      0.20s WALL (       1 calls)

     dynmat_us    :      0.63s CPU      0.65s WALL (       1 calls)
     addusdynmat  :      0.00s CPU      0.00s WALL (       1 calls)

     phqscf       :    509.93s CPU    613.45s WALL (       1 calls)
     solve_linter :    506.01s CPU    599.62s WALL (       6 calls)

     solve_linter :    506.01s CPU    599.62s WALL (       6 calls)
     dvqpsi_us    :      8.54s CPU      8.75s WALL (      18 calls)
     ortho        :      0.75s CPU      0.79s WALL (      66 calls)
     cgsolve      :     75.43s CPU     76.66s WALL (      66 calls)
     incdrhoscf   :      5.22s CPU      5.34s WALL (      66 calls)
     addusddens   :     14.95s CPU     17.11s WALL (      28 calls)
     vpsifft      :      4.87s CPU      5.04s WALL (      48 calls)
     dv_of_drho   :    167.32s CPU    173.18s WALL (      22 calls)
     mix_pot      :      6.71s CPU     26.55s WALL (      22 calls)
     ef_shift     :     20.62s CPU     21.02s WALL (      28 calls)
     localdos     :     12.74s CPU     13.49s WALL (       6 calls)
     psymdvscf    :    114.61s CPU    144.85s WALL (      22 calls)
     newdq        :     17.85s CPU     19.60s WALL (      22 calls)
     adddvscf     :      0.10s CPU      0.11s WALL (      48 calls)
     drhodvus     :      5.79s CPU     17.86s WALL (       6 calls)

     dvqpsi_us    :      8.54s CPU      8.75s WALL (      18 calls)
     dvqpsi_us_on :      0.08s CPU      0.09s WALL (      18 calls)

     cgsolve      :     75.43s CPU     76.66s WALL (      66 calls)
     ch_psi       :     73.95s CPU     75.15s WALL (     957 calls)

     ch_psi       :     73.95s CPU     75.15s WALL (     957 calls)
     h_psi        :     71.87s CPU     73.04s WALL (     957 calls)
     last         :      1.75s CPU      1.78s WALL (     957 calls)

     h_psi        :     71.87s CPU     73.04s WALL (     957 calls)
     add_vuspsi   :      0.81s CPU      0.83s WALL (     957 calls)

     incdrhoscf   :      5.22s CPU      5.34s WALL (      66 calls)
     addusdbec    :      0.25s CPU      0.25s WALL (      84 calls)

     drhodvus     :      5.79s CPU     17.86s WALL (       6 calls)

      General routines
     calbec       :      2.90s CPU      3.04s WALL (    2184 calls)
     fft          :    215.20s CPU    220.11s WALL (     805 calls)
     ffts         :     14.51s CPU     14.98s WALL (     192 calls)
     fftw         :     70.95s CPU     72.10s WALL (    2355 calls)
     davcio       :      0.09s CPU     25.14s WALL (     496 calls)
     write_rec    :      0.00s CPU     23.03s WALL (      28 calls)


     PHONON       :   9m26.17s CPU  11m20.54s WALL


   This run was terminated on:  22:35:23  20Sep2022            

=------------------------------------------------------------------------------=
   JOB DONE.
=------------------------------------------------------------------------------=
