
     Program PHONON v.6.7MaX starts on 29Sep2022 at  0:52: 9 

     This program is part of the open-source Quantum ESPRESSO suite
     for quantum simulation of materials; please cite
         "P. Giannozzi et al., J. Phys.:Condens. Matter 21 395502 (2009);
         "P. Giannozzi et al., J. Phys.:Condens. Matter 29 465901 (2017);
          URL http://www.quantum-espresso.org", 
     in publications or presentations arising from this work. More details at
     http://www.quantum-espresso.org/quote

     Parallel version (MPI), running on   120 processors

     MPI processes distributed on     1 nodes
     K-points division:     npool     =       8
     R & G space division:  proc/nbgrp/npool/nimage =      15
     Waiting for input...
     Reading input from standard input

     Reading xml data from directory:

     ./N2_ESM_VA16.save/

     IMPORTANT: XC functional enforced from input :
     Exchange-correlation= PBE
                           (   1   4   3   4   0   0   0)
     Any further DFT definition will be discarded
     Please, verify this is what you really want


     Parallelization info
     --------------------
     sticks:   dense  smooth     PW     G-vecs:    dense   smooth      PW
     Min        3636    1818    468               639190   225950   29545
     Max        3637    1819    470               639197   225953   29547
     Sum       54553   27281   7033              9587919  3389267  443191


     Adding external electric field
        E field amplitude [Ha a.u.]: -3.1525E-02
        Potential amp.       -2.1446 Ry
        Total length         34.0151 bohr


     negative rho (up, down):  3.022E-04 3.022E-04
     Reading collected, re-writing distributed wavefunctions

     Calculation of q =    0.0000000   0.0000000   0.0000000

     phonons (vibrational modes) for N2                                         

     bravais-lattice index     =            0
     lattice parameter (alat)  =      37.7945  a.u.
     unit-cell volume          =   53986.6760 (a.u.)^3
     number of atoms/cell      =            2
     number of atomic types    =            1
     kinetic-energy cut-off    =      60.0000  Ry
     charge density cut-off    =     480.0000  Ry
     convergence threshold     =      1.0E-12
     beta                      =       0.7000
     number of iterations used =            4
     Exchange-correlation= PBE
                           (   1   4   3   4   0   0   0)


     celldm(1)=   37.79452  celldm(2)=    0.00000  celldm(3)=    0.00000
     celldm(4)=    0.00000  celldm(5)=    0.00000  celldm(6)=    0.00000

     crystal axes: (cart. coord. in units of alat)
               a(1) = (  1.0000  0.0000  0.0000 )  
               a(2) = (  0.0000  1.0000  0.0000 )  
               a(3) = (  0.0000  0.0000  1.0000 )  

     reciprocal axes: (cart. coord. in units 2 pi/alat)
               b(1) = (  1.0000  0.0000  0.0000 )  
               b(2) = (  0.0000  1.0000  0.0000 )  
               b(3) = (  0.0000  0.0000  1.0000 )  


     Atoms inside the unit cell: 

     Cartesian axes

     site n.  atom      mass           positions (alat units)
        1     N   14.0067   tau(    1) = (    0.50000    0.50000    0.00000  )
        2     N   14.0067   tau(    2) = (    0.50000    0.50000   -0.05535  )

     Computing dynamical matrix for 
                    q = (   0.0000000   0.0000000   0.0000000 )

      2 Sym.Ops. (with q -> -q+G )


     G cutoff =17367.5767  ( 639197 G-vectors)     FFT grid: (270,270,270)
     G cutoff = 8683.7884  ( 225950 G-vectors)  smooth grid: (192,192,192)

     number of k points=    20  Methfessel-Paxton smearing, width (Ry)=  0.0100
                       cart. coord. in units 2pi/alat
        k(    1) = (   0.0000000   0.0000000   0.0000000), wk =   0.0625000
        k(    2) = (   0.0000000   0.2500000   0.0000000), wk =   0.1250000
        k(    3) = (   0.0000000  -0.5000000   0.0000000), wk =   0.0625000
        k(    4) = (   0.2500000   0.0000000   0.0000000), wk =   0.1250000
        k(    5) = (   0.2500000   0.2500000   0.0000000), wk =   0.1250000
        k(    6) = (   0.2500000  -0.5000000   0.0000000), wk =   0.1250000
        k(    7) = (   0.2500000  -0.2500000   0.0000000), wk =   0.1250000
        k(    8) = (  -0.5000000   0.0000000   0.0000000), wk =   0.0625000
        k(    9) = (  -0.5000000   0.2500000   0.0000000), wk =   0.1250000
        k(   10) = (  -0.5000000  -0.5000000   0.0000000), wk =   0.0625000
        k(   11) = (   0.0000000   0.0000000   0.0000000), wk =   0.0625000
        k(   12) = (   0.0000000   0.2500000   0.0000000), wk =   0.1250000
        k(   13) = (   0.0000000  -0.5000000   0.0000000), wk =   0.0625000
        k(   14) = (   0.2500000   0.0000000   0.0000000), wk =   0.1250000
        k(   15) = (   0.2500000   0.2500000   0.0000000), wk =   0.1250000
        k(   16) = (   0.2500000  -0.5000000   0.0000000), wk =   0.1250000
        k(   17) = (   0.2500000  -0.2500000   0.0000000), wk =   0.1250000
        k(   18) = (  -0.5000000   0.0000000   0.0000000), wk =   0.0625000
        k(   19) = (  -0.5000000   0.2500000   0.0000000), wk =   0.1250000
        k(   20) = (  -0.5000000  -0.5000000   0.0000000), wk =   0.0625000

     PseudoPot. # 1 for N  read from file:
     ../../SSSP/N.pbe-n-radius_5.UPF
     MD5 check sum: 16739722b17309cd8fe442a2ace49922
     Pseudo is Ultrasoft + core correction, Zval =  5.0
     Generated using "atomic" code by A. Dal Corso  v.5.1
     Using radial grid of 1085 points,  4 beta functions with: 
                l(1) =   0
                l(2) =   0
                l(3) =   1
                l(4) =   1
     Q(r) pseudized with 0 coefficients 


     Mode symmetry, C_1 (1)     point group:


     Atomic displacements:
     There are    6 irreducible representations

     Representation     1      1 modes -  To be done

     Representation     2      1 modes -  To be done

     Representation     3      1 modes -  To be done

     Representation     4      1 modes -  To be done

     Representation     5      1 modes -  To be done

     Representation     6      1 modes -  To be done



     Alpha used in Ewald sum =   2.8000

     -------------------------------------------------
     Parameters for Dispersion (Grimme-D2) Correction:
     -------------------------------------------------
       atom      VdW radius       C_6     

        N          2.640         42.670

     Calculating the D2 contribution to the dynamical matrix.
     D2 energy =       -0.00000236 Ry
     Done.


     negative rho (up, down):  3.022E-04 3.022E-04
     PHONON       :   3m 6.43s CPU   3m14.06s WALL



     Representation #   1 mode #   1

     Self-consistent Calculation

     Pert. #  1: Fermi energy shift (Ry) =     0.0000E+00     0.0000E+00

      iter #   1 total cpu time :   243.5 secs   av.it.:   8.2
      thresh= 1.000E-02 alpha_mix =  0.700 |ddv_scf|^2 =  2.270E-09

     Pert. #  1: Fermi energy shift (Ry) =     0.0000E+00     0.0000E+00

      iter #   2 total cpu time :   292.3 secs   av.it.:  16.8
      thresh= 4.765E-06 alpha_mix =  0.700 |ddv_scf|^2 =  3.599E-10

     Pert. #  1: Fermi energy shift (Ry) =     0.0000E+00     0.0000E+00

      iter #   3 total cpu time :   344.6 secs   av.it.:  16.6
      thresh= 1.897E-06 alpha_mix =  0.700 |ddv_scf|^2 =  1.507E-11

     Pert. #  1: Fermi energy shift (Ry) =     0.0000E+00     0.0000E+00

      iter #   4 total cpu time :   402.5 secs   av.it.:  17.6
      thresh= 3.882E-07 alpha_mix =  0.700 |ddv_scf|^2 =  1.731E-13

     End of self-consistent calculation

     Convergence has been achieved 


     Representation #   2 mode #   2

     Self-consistent Calculation

     Pert. #  1: Fermi energy shift (Ry) =     0.0000E+00     0.0000E+00

      iter #   1 total cpu time :   463.1 secs   av.it.:   8.2
      thresh= 1.000E-02 alpha_mix =  0.700 |ddv_scf|^2 =  2.270E-09

     Pert. #  1: Fermi energy shift (Ry) =     0.0000E+00     0.0000E+00

      iter #   2 total cpu time :   513.4 secs   av.it.:  16.8
      thresh= 4.765E-06 alpha_mix =  0.700 |ddv_scf|^2 =  3.599E-10

     Pert. #  1: Fermi energy shift (Ry) =     0.0000E+00     0.0000E+00

      iter #   3 total cpu time :   563.5 secs   av.it.:  16.6
      thresh= 1.897E-06 alpha_mix =  0.700 |ddv_scf|^2 =  1.507E-11

     Pert. #  1: Fermi energy shift (Ry) =     0.0000E+00     0.0000E+00

      iter #   4 total cpu time :   620.5 secs   av.it.:  17.6
      thresh= 3.882E-07 alpha_mix =  0.700 |ddv_scf|^2 =  1.731E-13

     End of self-consistent calculation

     Convergence has been achieved 


     Representation #   3 mode #   3

     Self-consistent Calculation

     Pert. #  1: Fermi energy shift (Ry) =     0.0000E+00     0.0000E+00

      iter #   1 total cpu time :   682.5 secs   av.it.:   8.0
      thresh= 1.000E-02 alpha_mix =  0.700 |ddv_scf|^2 =  5.921E-09

     Pert. #  1: Fermi energy shift (Ry) =     0.0000E+00     0.0000E+00

      iter #   2 total cpu time :   733.0 secs   av.it.:  18.0
      thresh= 7.695E-06 alpha_mix =  0.700 |ddv_scf|^2 =  7.273E-09

     Pert. #  1: Fermi energy shift (Ry) =     0.0000E+00     0.0000E+00

      iter #   3 total cpu time :   783.2 secs   av.it.:  17.0
      thresh= 8.528E-06 alpha_mix =  0.700 |ddv_scf|^2 =  4.904E-10

     Pert. #  1: Fermi energy shift (Ry) =     0.0000E+00     0.0000E+00

      iter #   4 total cpu time :   840.6 secs   av.it.:  19.0
      thresh= 2.215E-06 alpha_mix =  0.700 |ddv_scf|^2 =  1.254E-09

     Pert. #  1: Fermi energy shift (Ry) =     0.0000E+00     0.0000E+00

      iter #   5 total cpu time :   897.1 secs   av.it.:  18.0
      thresh= 3.541E-06 alpha_mix =  0.700 |ddv_scf|^2 =  4.004E-11

     Pert. #  1: Fermi energy shift (Ry) =     0.0000E+00     0.0000E+00

      iter #   6 total cpu time :   953.0 secs   av.it.:  17.0
      thresh= 6.328E-07 alpha_mix =  0.700 |ddv_scf|^2 =  9.105E-15

     End of self-consistent calculation

     Convergence has been achieved 


     Representation #   4 mode #   4

     Self-consistent Calculation

     Pert. #  1: Fermi energy shift (Ry) =     0.0000E+00     0.0000E+00

      iter #   1 total cpu time :  1013.9 secs   av.it.:   8.0
      thresh= 1.000E-02 alpha_mix =  0.700 |ddv_scf|^2 =  1.974E-09

     Pert. #  1: Fermi energy shift (Ry) =     0.0000E+00     0.0000E+00

      iter #   2 total cpu time :  1063.1 secs   av.it.:  17.1
      thresh= 4.443E-06 alpha_mix =  0.700 |ddv_scf|^2 =  4.476E-10

     Pert. #  1: Fermi energy shift (Ry) =     0.0000E+00     0.0000E+00

      iter #   3 total cpu time :  1115.0 secs   av.it.:  16.6
      thresh= 2.116E-06 alpha_mix =  0.700 |ddv_scf|^2 =  2.077E-11

     Pert. #  1: Fermi energy shift (Ry) =     0.0000E+00     0.0000E+00

      iter #   4 total cpu time :  1172.1 secs   av.it.:  17.6
      thresh= 4.558E-07 alpha_mix =  0.700 |ddv_scf|^2 =  4.745E-14

     End of self-consistent calculation

     Convergence has been achieved 


     Representation #   5 mode #   5

     Self-consistent Calculation

     Pert. #  1: Fermi energy shift (Ry) =     0.0000E+00     0.0000E+00

      iter #   1 total cpu time :  1233.6 secs   av.it.:   8.0
      thresh= 1.000E-02 alpha_mix =  0.700 |ddv_scf|^2 =  1.974E-09

     Pert. #  1: Fermi energy shift (Ry) =     0.0000E+00     0.0000E+00

      iter #   2 total cpu time :  1282.8 secs   av.it.:  17.1
      thresh= 4.443E-06 alpha_mix =  0.700 |ddv_scf|^2 =  4.476E-10

     Pert. #  1: Fermi energy shift (Ry) =     0.0000E+00     0.0000E+00

      iter #   3 total cpu time :  1333.5 secs   av.it.:  16.6
      thresh= 2.116E-06 alpha_mix =  0.700 |ddv_scf|^2 =  2.077E-11

     Pert. #  1: Fermi energy shift (Ry) =     0.0000E+00     0.0000E+00

      iter #   4 total cpu time :  1389.3 secs   av.it.:  17.6
      thresh= 4.558E-07 alpha_mix =  0.700 |ddv_scf|^2 =  4.745E-14

     End of self-consistent calculation

     Convergence has been achieved 


     Representation #   6 mode #   6

     Self-consistent Calculation

     Pert. #  1: Fermi energy shift (Ry) =     0.0000E+00     0.0000E+00

      iter #   1 total cpu time :  1450.7 secs   av.it.:   8.0
      thresh= 1.000E-02 alpha_mix =  0.700 |ddv_scf|^2 =  5.258E-09

     Pert. #  1: Fermi energy shift (Ry) =     0.0000E+00     0.0000E+00

      iter #   2 total cpu time :  1500.9 secs   av.it.:  18.0
      thresh= 7.251E-06 alpha_mix =  0.700 |ddv_scf|^2 =  2.054E-09

     Pert. #  1: Fermi energy shift (Ry) =     0.0000E+00     0.0000E+00

      iter #   3 total cpu time :  1553.7 secs   av.it.:  18.6
      thresh= 4.533E-06 alpha_mix =  0.700 |ddv_scf|^2 =  3.693E-09

     Pert. #  1: Fermi energy shift (Ry) =     0.0000E+00     0.0000E+00

      iter #   4 total cpu time :  1609.9 secs   av.it.:  17.6
      thresh= 6.077E-06 alpha_mix =  0.700 |ddv_scf|^2 =  7.023E-11

     Pert. #  1: Fermi energy shift (Ry) =     0.0000E+00     0.0000E+00

      iter #   5 total cpu time :  1667.3 secs   av.it.:  16.4
      thresh= 8.380E-07 alpha_mix =  0.700 |ddv_scf|^2 =  1.810E-12

     Pert. #  1: Fermi energy shift (Ry) =     0.0000E+00     0.0000E+00

      iter #   6 total cpu time :  1722.8 secs   av.it.:  17.0
      thresh= 1.345E-07 alpha_mix =  0.700 |ddv_scf|^2 =  2.771E-14

     End of self-consistent calculation

     Convergence has been achieved 

     Number of q in the star =    1
     List of q in the star:
          1   0.000000000   0.000000000   0.000000000

     Diagonalizing the dynamical matrix

     q = (    0.000000000   0.000000000   0.000000000 ) 

 **************************************************************************
     freq (    1) =      -7.213747 [THz] =    -240.624688 [cm-1]
     freq (    2) =      -7.213746 [THz] =    -240.624677 [cm-1]
     freq (    3) =      -7.033426 [THz] =    -234.609844 [cm-1]
     freq (    4) =      10.570820 [THz] =     352.604591 [cm-1]
     freq (    5) =      10.570820 [THz] =     352.604602 [cm-1]
     freq (    6) =      71.294521 [THz] =    2378.129235 [cm-1]
 **************************************************************************

     Mode symmetry, C_1 (1)     point group:

     freq (   1-   1) =       -240.6  [cm-1]   --> A               I+R
     freq (   2-   2) =       -240.6  [cm-1]   --> A               I+R
     freq (   3-   3) =       -234.6  [cm-1]   --> A               I+R
     freq (   4-   4) =        352.6  [cm-1]   --> A               I+R
     freq (   5-   5) =        352.6  [cm-1]   --> A               I+R
     freq (   6-   6) =       2378.1  [cm-1]   --> A               I+R

     PHONON       :  26m 9.20s CPU  29m 3.22s WALL

     INITIALIZATION: 
     phq_setup    :     12.66s CPU     14.41s WALL (       1 calls)
     phq_init     :    156.21s CPU    159.65s WALL (       1 calls)

     phq_init     :    156.21s CPU    159.65s WALL (       1 calls)
     set_drhoc    :     24.02s CPU     24.12s WALL (       3 calls)
     init_vloc    :      0.17s CPU      0.17s WALL (       1 calls)
     init_us_1    :      0.04s CPU      0.04s WALL (       1 calls)
     newd         :      1.21s CPU      1.26s WALL (       1 calls)
     dvanqq       :     78.36s CPU     79.17s WALL (       1 calls)
     drho         :     38.78s CPU     40.60s WALL (       1 calls)

     DYNAMICAL MATRIX:
     dynmat0      :     23.11s CPU     23.84s WALL (       1 calls)
     phqscf       :   1382.53s CPU   1543.45s WALL (       1 calls)
     dynmatrix    :      0.24s CPU      0.36s WALL (       1 calls)

     phqscf       :   1382.53s CPU   1543.45s WALL (       1 calls)
     solve_linter :   1377.91s CPU   1524.85s WALL (       6 calls)
     drhodv       :      4.62s CPU      4.77s WALL (       6 calls)

     dynmat0      :     23.11s CPU     23.84s WALL (       1 calls)
     dynmat_us    :      1.04s CPU      1.09s WALL (       1 calls)
     d2ionq       :      0.20s CPU      0.20s WALL (       1 calls)
     dynmatcc     :     21.80s CPU     22.46s WALL (       1 calls)

     dynmat_us    :      1.04s CPU      1.09s WALL (       1 calls)
     addusdynmat  :      0.00s CPU      0.00s WALL (       1 calls)

     phqscf       :   1382.53s CPU   1543.45s WALL (       1 calls)
     solve_linter :   1377.91s CPU   1524.85s WALL (       6 calls)

     solve_linter :   1377.91s CPU   1524.85s WALL (       6 calls)
     dvqpsi_us    :     13.91s CPU     14.26s WALL (      18 calls)
     ortho        :      2.97s CPU      3.02s WALL (      84 calls)
     cgsolve      :    543.35s CPU    549.27s WALL (      84 calls)
     incdrhoscf   :     28.97s CPU     29.38s WALL (      84 calls)
     addusddens   :     85.29s CPU     90.06s WALL (      34 calls)
     vpsifft      :     23.73s CPU     24.09s WALL (      66 calls)
     dv_of_drho   :    190.75s CPU    199.61s WALL (      28 calls)
     mix_pot      :     14.12s CPU     36.35s WALL (      28 calls)
     ef_shift     :     26.64s CPU     27.10s WALL (      34 calls)
     localdos     :     38.17s CPU     39.45s WALL (       6 calls)
     psymdvscf    :    154.87s CPU    212.92s WALL (      28 calls)
     newdq        :    112.34s CPU    116.72s WALL (      28 calls)
     adddvscf     :      0.86s CPU      0.87s WALL (      66 calls)
     drhodvus     :      5.55s CPU     14.93s WALL (       6 calls)

     dvqpsi_us    :     13.91s CPU     14.26s WALL (      18 calls)
     dvqpsi_us_on :      0.31s CPU      0.32s WALL (      18 calls)

     cgsolve      :    543.35s CPU    549.27s WALL (      84 calls)
     ch_psi       :    524.35s CPU    530.09s WALL (    1566 calls)

     ch_psi       :    524.35s CPU    530.09s WALL (    1566 calls)
     h_psi        :    468.83s CPU    473.99s WALL (    1566 calls)
     last         :     39.76s CPU     40.14s WALL (    1566 calls)

     h_psi        :    468.83s CPU    473.99s WALL (    1566 calls)
     add_vuspsi   :      9.99s CPU     10.10s WALL (    1566 calls)

     incdrhoscf   :     28.97s CPU     29.38s WALL (      84 calls)
     addusdbec    :      1.33s CPU      1.34s WALL (     102 calls)

     drhodvus     :      5.55s CPU     14.93s WALL (       6 calls)

      General routines
     calbec       :     22.54s CPU     22.86s WALL (    3438 calls)
     fft          :    325.01s CPU    331.61s WALL (    1185 calls)
     ffts         :     22.11s CPU     22.68s WALL (     288 calls)
     fftw         :    425.68s CPU    430.43s WALL (   15105 calls)
     davcio       :      0.12s CPU     28.26s WALL (     630 calls)
     write_rec    :      0.00s CPU     32.18s WALL (      34 calls)


     PHONON       :  26m 9.20s CPU  29m 3.22s WALL


   This run was terminated on:   1:21:12  29Sep2022            

=------------------------------------------------------------------------------=
   JOB DONE.
=------------------------------------------------------------------------------=
