     Message from routine get_command_line:
     unexpected argument # 4     :-in

     Program PWSCF v.6.7MaX starts on 28Sep2022 at 20:55:10 

     This program is part of the open-source Quantum ESPRESSO suite
     for quantum simulation of materials; please cite
         "P. Giannozzi et al., J. Phys.:Condens. Matter 21 395502 (2009);
         "P. Giannozzi et al., J. Phys.:Condens. Matter 29 465901 (2017);
          URL http://www.quantum-espresso.org", 
     in publications or presentations arising from this work. More details at
     http://www.quantum-espresso.org/quote

     Parallel version (MPI), running on   120 processors

     MPI processes distributed on     1 nodes
     K-points division:     npool     =       8
     R & G space division:  proc/nbgrp/npool/nimage =      15
     Waiting for input...
     Reading input from standard input
Warning: card &CELL ignored
Warning: card / ignored

     Current dimensions of program PWSCF are:
     Max number of different atomic species (ntypx) = 10
     Max number of k-points (npk) =  40000
     Max angular momentum in pseudopotentials (lmaxx) =  3

     IMPORTANT: XC functional enforced from input :
     Exchange-correlation= PBE
                           (   1   4   3   4   0   0   0)
     Any further DFT definition will be discarded
     Please, verify this is what you really want


     -------------------------------------------------
     Parameters for Dispersion (Grimme-D2) Correction:
     -------------------------------------------------
       atom      VdW radius       C_6     

        N          2.640         42.670

     Subspace diagonalization in iterative solution of the eigenvalue problem:
     one sub-group per band group will be used
     scalapack distributed-memory algorithm (size of sub-group:  3*  3 procs)


     Parallelization info
     --------------------
     sticks:   dense  smooth     PW     G-vecs:    dense   smooth      PW
     Min        3636    1818    468               639190   225950   29545
     Max        3637    1819    470               639197   225953   29547
     Sum       54553   27281   7033              9587919  3389267  443191



     bravais-lattice index     =            0
     lattice parameter (alat)  =      37.7945  a.u.
     unit-cell volume          =   53986.6760 (a.u.)^3
     number of atoms/cell      =            2
     number of atomic types    =            1
     number of electrons       =        10.00
     number of Kohn-Sham states=            9
     kinetic-energy cutoff     =      60.0000  Ry
     charge density cutoff     =     480.0000  Ry
     scf convergence threshold =      1.0E-08
     mixing beta               =       0.7000
     number of iterations used =           10  plain     mixing
     energy convergence thresh.=      7.3E-07
     force convergence thresh. =      3.9E-04
     Exchange-correlation= PBE
                           (   1   4   3   4   0   0   0)
     nstep                     =           50


     celldm(1)=  37.794522  celldm(2)=   0.000000  celldm(3)=   0.000000
     celldm(4)=   0.000000  celldm(5)=   0.000000  celldm(6)=   0.000000

     crystal axes: (cart. coord. in units of alat)
               a(1) = (   1.000000   0.000000   0.000000 )  
               a(2) = (   0.000000   1.000000   0.000000 )  
               a(3) = (   0.000000   0.000000   1.000000 )  

     reciprocal axes: (cart. coord. in units 2 pi/alat)
               b(1) = (  1.000000  0.000000  0.000000 )  
               b(2) = (  0.000000  1.000000  0.000000 )  
               b(3) = (  0.000000  0.000000  1.000000 )  


     PseudoPot. # 1 for N  read from file:
     ../../SSSP/N.pbe-n-radius_5.UPF
     MD5 check sum: 16739722b17309cd8fe442a2ace49922
     Pseudo is Ultrasoft + core correction, Zval =  5.0
     Generated using "atomic" code by A. Dal Corso  v.5.1
     Using radial grid of 1085 points,  4 beta functions with: 
                l(1) =   0
                l(2) =   0
                l(3) =   1
                l(4) =   1
     Q(r) pseudized with 0 coefficients 


     atomic species   valence    mass     pseudopotential
        N              5.00    14.00700     N ( 1.00)

     Starting magnetic structure 
     atomic species   magnetization
        N            0.100

     No symmetry found



   Cartesian axes

     site n.     atom                  positions (alat units)
         1           N   tau(   1) = (   0.5000000   0.5000000   0.0000000  )
         2           N   tau(   2) = (   0.5000000   0.5000000  -0.0565000  )

     number of k points=    10  Methfessel-Paxton smearing, width (Ry)=  0.0100
                       cart. coord. in units 2pi/alat
        k(    1) = (   0.0000000   0.0000000   0.0000000), wk =   0.0625000
        k(    2) = (   0.0000000   0.2500000   0.0000000), wk =   0.1250000
        k(    3) = (   0.0000000  -0.5000000   0.0000000), wk =   0.0625000
        k(    4) = (   0.2500000   0.0000000   0.0000000), wk =   0.1250000
        k(    5) = (   0.2500000   0.2500000   0.0000000), wk =   0.1250000
        k(    6) = (   0.2500000  -0.5000000   0.0000000), wk =   0.1250000
        k(    7) = (   0.2500000  -0.2500000   0.0000000), wk =   0.1250000
        k(    8) = (  -0.5000000   0.0000000   0.0000000), wk =   0.0625000
        k(    9) = (  -0.5000000   0.2500000   0.0000000), wk =   0.1250000
        k(   10) = (  -0.5000000  -0.5000000   0.0000000), wk =   0.0625000

     Dense  grid:  9587919 G-vectors     FFT dimensions: ( 270, 270, 270)

     Smooth grid:  3389267 G-vectors     FFT dimensions: ( 192, 192, 192)

     Estimated max dynamical RAM per process >     370.17 MB

     Estimated total dynamical RAM >      43.38 GB

     Adding external electric field
        E field amplitude [Ha a.u.]: -3.1525E-02
        Potential amp.       -2.1446 Ry
        Total length         34.0151 bohr

     Generating pointlists ...
     new r_m :   0.0233 (alat units)  0.8808 (a.u.) for type    1

     Initial potential from superposition of free atoms

     starting charge    9.99999, renormalised to   10.00000

     negative rho (up, down):  1.327E-04 1.086E-04
     Starting wfcs are    8 randomized atomic wfcs +    1 random wfcs

     total cpu time spent up to now is       21.2 secs

     Self-consistent Calculation

     iteration #  1     ecut=    60.00 Ry     beta= 0.70
     CG style diagonalization
     c_bands:  1 eigenvalues not converged
     c_bands:  2 eigenvalues not converged
     c_bands:  2 eigenvalues not converged
     ethr =  1.00E-04,  avg # of iterations = 10.5

     negative rho (up, down):  2.335E-04 2.262E-04

     total cpu time spent up to now is       57.2 secs

     total energy              =     -40.29610572 Ry
     estimated scf accuracy    <       0.25252187 Ry

     total magnetization       =     0.00 Bohr mag/cell
     absolute magnetization    =     0.06 Bohr mag/cell

     iteration #  2     ecut=    60.00 Ry     beta= 0.70
     CG style diagonalization
     ethr =  2.53E-03,  avg # of iterations =  3.6

     negative rho (up, down):  3.915E-04 3.897E-04

     total cpu time spent up to now is       77.0 secs

     total energy              =     -40.26735872 Ry
     estimated scf accuracy    <       0.61502479 Ry

     total magnetization       =     0.00 Bohr mag/cell
     absolute magnetization    =     0.03 Bohr mag/cell

     iteration #  3     ecut=    60.00 Ry     beta= 0.70
     CG style diagonalization
     ethr =  2.53E-03,  avg # of iterations =  3.6

     negative rho (up, down):  2.807E-04 2.800E-04

     total cpu time spent up to now is       97.0 secs

     total energy              =     -40.39292547 Ry
     estimated scf accuracy    <       0.01499704 Ry

     total magnetization       =     0.00 Bohr mag/cell
     absolute magnetization    =     0.03 Bohr mag/cell

     iteration #  4     ecut=    60.00 Ry     beta= 0.70
     CG style diagonalization
     ethr =  1.50E-04,  avg # of iterations =  3.2

     negative rho (up, down):  2.780E-04 2.764E-04

     total cpu time spent up to now is      116.2 secs

     total energy              =     -40.39564085 Ry
     estimated scf accuracy    <       0.00040623 Ry

     total magnetization       =    -0.00 Bohr mag/cell
     absolute magnetization    =     0.01 Bohr mag/cell

     iteration #  5     ecut=    60.00 Ry     beta= 0.70
     CG style diagonalization
     ethr =  4.06E-06,  avg # of iterations =  6.8

     negative rho (up, down):  2.785E-04 2.780E-04

     total cpu time spent up to now is      143.9 secs

     total energy              =     -40.39582299 Ry
     estimated scf accuracy    <       0.00010716 Ry

     total magnetization       =    -0.00 Bohr mag/cell
     absolute magnetization    =     0.00 Bohr mag/cell

     iteration #  6     ecut=    60.00 Ry     beta= 0.70
     CG style diagonalization
     ethr =  1.07E-06,  avg # of iterations =  4.4

     negative rho (up, down):  2.789E-04 2.788E-04

     total cpu time spent up to now is      166.1 secs

     total energy              =     -40.39586621 Ry
     estimated scf accuracy    <       0.00001025 Ry

     total magnetization       =     0.00 Bohr mag/cell
     absolute magnetization    =     0.00 Bohr mag/cell

     iteration #  7     ecut=    60.00 Ry     beta= 0.70
     CG style diagonalization
     ethr =  1.03E-07,  avg # of iterations =  4.2

     negative rho (up, down):  2.786E-04 2.786E-04

     total cpu time spent up to now is      187.9 secs

     total energy              =     -40.39586767 Ry
     estimated scf accuracy    <       0.00000601 Ry

     total magnetization       =    -0.00 Bohr mag/cell
     absolute magnetization    =     0.00 Bohr mag/cell

     iteration #  8     ecut=    60.00 Ry     beta= 0.70
     CG style diagonalization
     ethr =  6.01E-08,  avg # of iterations =  3.6

     negative rho (up, down):  2.787E-04 2.787E-04

     total cpu time spent up to now is      208.4 secs

     total energy              =     -40.39587008 Ry
     estimated scf accuracy    <       0.00000077 Ry

     total magnetization       =    -0.00 Bohr mag/cell
     absolute magnetization    =     0.00 Bohr mag/cell

     iteration #  9     ecut=    60.00 Ry     beta= 0.70
     CG style diagonalization
     ethr =  7.69E-09,  avg # of iterations =  3.3

     negative rho (up, down):  2.787E-04 2.787E-04

     total cpu time spent up to now is      228.2 secs

     total energy              =     -40.39587013 Ry
     estimated scf accuracy    <       0.00000013 Ry

     total magnetization       =    -0.00 Bohr mag/cell
     absolute magnetization    =     0.00 Bohr mag/cell

     iteration # 10     ecut=    60.00 Ry     beta= 0.70
     CG style diagonalization
     ethr =  1.34E-09,  avg # of iterations =  3.3

     negative rho (up, down):  2.787E-04 2.787E-04

     Magnetic moment per site:
     atom:    1    charge:    1.6957    magn:    0.0001    constr:    0.0000
     atom:    2    charge:    1.6659    magn:   -0.0000    constr:    0.0000

     total cpu time spent up to now is      246.0 secs

     End of self-consistent calculation

 ------ SPIN UP ------------


          k = 0.0000 0.0000 0.0000 (423701 PWs)   bands (ev):

   -38.3765 -24.2920 -21.8954 -21.8954 -20.5925 -12.8806 -12.8806 -11.3030
   -10.9365

          k = 0.0000 0.2500 0.0000 (423725 PWs)   bands (ev):

   -38.3765 -24.2920 -21.8954 -21.8954 -20.5925 -12.8806 -12.8806 -11.2902
   -11.0139

          k = 0.0000-0.5000 0.0000 (423542 PWs)   bands (ev):

   -38.3765 -24.2920 -21.8954 -21.8954 -20.5925 -12.8806 -12.8806 -11.2759
   -11.0698

          k = 0.2500 0.0000 0.0000 (423725 PWs)   bands (ev):

   -38.3765 -24.2920 -21.8954 -21.8954 -20.5925 -12.8806 -12.8806 -11.2905
   -11.0156

          k = 0.2500 0.2500 0.0000 (423766 PWs)   bands (ev):

   -38.3765 -24.2920 -21.8954 -21.8954 -20.5925 -12.8806 -12.8806 -11.2795
   -11.0120

          k = 0.2500-0.5000 0.0000 (423782 PWs)   bands (ev):

   -38.3765 -24.2920 -21.8954 -21.8954 -20.5925 -12.8806 -12.8806 -11.2656
   -11.0464

          k = 0.2500-0.2500 0.0000 (423766 PWs)   bands (ev):

   -38.3765 -24.2920 -21.8954 -21.8954 -20.5925 -12.8806 -12.8806 -11.2795
   -11.0140

          k =-0.5000 0.0000 0.0000 (423542 PWs)   bands (ev):

   -38.3765 -24.2920 -21.8954 -21.8954 -20.5925 -12.8806 -12.8806 -11.2759
   -11.0689

          k =-0.5000 0.2500 0.0000 (423782 PWs)   bands (ev):

   -38.3765 -24.2920 -21.8954 -21.8954 -20.5925 -12.8806 -12.8806 -11.2659
   -11.0478

          k =-0.5000-0.5000 0.0000 (423708 PWs)   bands (ev):

   -38.3765 -24.2920 -21.8954 -21.8954 -20.5925 -12.8806 -12.8806 -11.2540
   -10.9535

 ------ SPIN DOWN ----------


          k = 0.0000 0.0000 0.0000 (423701 PWs)   bands (ev):

   -38.3764 -24.2919 -21.8953 -21.8953 -20.5925 -12.8805 -12.8805 -11.3029
   -10.9296

          k = 0.0000 0.2500 0.0000 (423725 PWs)   bands (ev):

   -38.3764 -24.2919 -21.8953 -21.8953 -20.5925 -12.8805 -12.8805 -11.2905
   -11.0149

          k = 0.0000-0.5000 0.0000 (423542 PWs)   bands (ev):

   -38.3764 -24.2919 -21.8953 -21.8953 -20.5925 -12.8805 -12.8805 -11.2755
   -11.0698

          k = 0.2500 0.0000 0.0000 (423725 PWs)   bands (ev):

   -38.3764 -24.2919 -21.8953 -21.8953 -20.5925 -12.8805 -12.8805 -11.2906
   -11.0150

          k = 0.2500 0.2500 0.0000 (423766 PWs)   bands (ev):

   -38.3764 -24.2919 -21.8953 -21.8953 -20.5925 -12.8805 -12.8805 -11.2796
   -11.0140

          k = 0.2500-0.5000 0.0000 (423782 PWs)   bands (ev):

   -38.3764 -24.2919 -21.8953 -21.8953 -20.5925 -12.8805 -12.8805 -11.2658
   -11.0461

          k = 0.2500-0.2500 0.0000 (423766 PWs)   bands (ev):

   -38.3764 -24.2919 -21.8953 -21.8953 -20.5925 -12.8805 -12.8805 -11.2794
   -11.0141

          k =-0.5000 0.0000 0.0000 (423542 PWs)   bands (ev):

   -38.3764 -24.2919 -21.8953 -21.8953 -20.5925 -12.8805 -12.8805 -11.2754
   -11.0695

          k =-0.5000 0.2500 0.0000 (423782 PWs)   bands (ev):

   -38.3764 -24.2919 -21.8953 -21.8953 -20.5925 -12.8805 -12.8805 -11.2654
   -11.0478

          k =-0.5000-0.5000 0.0000 (423708 PWs)   bands (ev):

   -38.3764 -24.2919 -21.8953 -21.8953 -20.5925 -12.8805 -12.8805 -11.2541
   -10.9924

     the Fermi energy is   -17.6553 ev

!    total energy              =     -40.39587017 Ry
     estimated scf accuracy    <          2.8E-09 Ry
     smearing contrib. (-TS)   =       0.00000000 Ry
     internal energy E=F+TS    =     -40.39587017 Ry

     The total energy is F=E-TS. E is the sum of the following terms:
     one-electron contribution =    -101.17654028 Ry
     hartree contribution      =      47.64832139 Ry
     xc contribution           =     -10.45135943 Ry
     ewald contribution        =      15.91664191 Ry
     Dispersion Correction     =      -0.00000245 Ry
     electric field correction =       7.66706869 Ry

     total magnetization       =     0.00 Bohr mag/cell
     absolute magnetization    =     0.00 Bohr mag/cell

     convergence has been achieved in  10 iterations

     negative rho (up, down):  2.787E-04 2.787E-04

     Forces acting on atoms (cartesian axes, Ry/au):

     atom    1 type  1   force =     0.00000000    0.00000000   -0.11898932
     atom    2 type  1   force =    -0.00000000   -0.00000000    0.11898932

     Total force =     0.118989     Total SCF correction =     0.000071

     BFGS Geometry Optimization
     Energy error            =      0.0E+00
     Gradient error          =      1.2E-01

     number of scf cycles    =   1
     number of bfgs steps    =   0

     energy   new            =     -40.3958701672 Ry

     new trust radius        =       0.1189893233 bohr
     new conv_thr            =       0.0000000100 Ry


ATOMIC_POSITIONS (angstrom)
N            10.0000000000       10.0000000000        0.0000000000    0   0   0
N             9.9999999999        9.9999999991       -1.0670335618



     Writing output data file ./N2_ESM_VA16.save/
     NEW-OLD atomic charge density approx. for the potential

     negative rho (up, down):  2.419E-04 2.419E-04

     Adding external electric field
        E field amplitude [Ha a.u.]: -3.1525E-02
        Potential amp.       -2.1446 Ry
        Total length         34.0151 bohr

     Generating pointlists ...
     new r_m :   0.0220 (alat units)  0.8318 (a.u.) for type    1

     total cpu time spent up to now is      266.6 secs

     Self-consistent Calculation

     iteration #  1     ecut=    60.00 Ry     beta= 0.70
     CG style diagonalization
     ethr =  1.00E-06,  avg # of iterations =  9.5

     negative rho (up, down):  2.905E-04 2.905E-04

     total cpu time spent up to now is      300.7 secs

     total energy              =     -40.38651215 Ry
     estimated scf accuracy    <       0.00967142 Ry

     total magnetization       =     0.00 Bohr mag/cell
     absolute magnetization    =     0.00 Bohr mag/cell

     iteration #  2     ecut=    60.00 Ry     beta= 0.70
     CG style diagonalization
     ethr =  9.67E-05,  avg # of iterations =  3.6

     negative rho (up, down):  3.235E-04 3.235E-04

     total cpu time spent up to now is      320.6 secs

     total energy              =     -40.38782680 Ry
     estimated scf accuracy    <       0.00197775 Ry

     total magnetization       =     0.00 Bohr mag/cell
     absolute magnetization    =     0.00 Bohr mag/cell

     iteration #  3     ecut=    60.00 Ry     beta= 0.70
     CG style diagonalization
     ethr =  1.98E-05,  avg # of iterations =  4.0

     negative rho (up, down):  3.396E-04 3.396E-04

     total cpu time spent up to now is      341.6 secs

     total energy              =     -40.38869440 Ry
     estimated scf accuracy    <       0.00124304 Ry

     total magnetization       =    -0.00 Bohr mag/cell
     absolute magnetization    =     0.00 Bohr mag/cell

     iteration #  4     ecut=    60.00 Ry     beta= 0.70
     CG style diagonalization
     ethr =  1.24E-05,  avg # of iterations =  3.0

     negative rho (up, down):  3.357E-04 3.357E-04

     total cpu time spent up to now is      360.3 secs

     total energy              =     -40.38890726 Ry
     estimated scf accuracy    <       0.00001279 Ry

     total magnetization       =     0.00 Bohr mag/cell
     absolute magnetization    =     0.00 Bohr mag/cell

     iteration #  5     ecut=    60.00 Ry     beta= 0.70
     CG style diagonalization
     ethr =  1.28E-07,  avg # of iterations =  4.4

     negative rho (up, down):  3.377E-04 3.377E-04

     total cpu time spent up to now is      382.5 secs

     total energy              =     -40.38891867 Ry
     estimated scf accuracy    <       0.00001810 Ry

     total magnetization       =     0.00 Bohr mag/cell
     absolute magnetization    =     0.00 Bohr mag/cell

     iteration #  6     ecut=    60.00 Ry     beta= 0.70
     CG style diagonalization
     ethr =  1.28E-07,  avg # of iterations =  3.2

     negative rho (up, down):  3.381E-04 3.381E-04

     total cpu time spent up to now is      402.0 secs

     total energy              =     -40.38892116 Ry
     estimated scf accuracy    <       0.00000047 Ry

     total magnetization       =     0.00 Bohr mag/cell
     absolute magnetization    =     0.00 Bohr mag/cell

     iteration #  7     ecut=    60.00 Ry     beta= 0.70
     CG style diagonalization
     ethr =  4.68E-09,  avg # of iterations =  3.7

     negative rho (up, down):  3.382E-04 3.382E-04

     total cpu time spent up to now is      422.5 secs

     total energy              =     -40.38892148 Ry
     estimated scf accuracy    <       0.00000005 Ry

     total magnetization       =     0.00 Bohr mag/cell
     absolute magnetization    =     0.00 Bohr mag/cell

     iteration #  8     ecut=    60.00 Ry     beta= 0.70
     CG style diagonalization
     ethr =  4.72E-10,  avg # of iterations =  3.9

     negative rho (up, down):  3.382E-04 3.382E-04

     total cpu time spent up to now is      443.7 secs

     total energy              =     -40.38892152 Ry
     estimated scf accuracy    <       0.00000013 Ry

     total magnetization       =    -0.00 Bohr mag/cell
     absolute magnetization    =     0.00 Bohr mag/cell

     iteration #  9     ecut=    60.00 Ry     beta= 0.70
     CG style diagonalization
     ethr =  4.72E-10,  avg # of iterations =  3.6

     negative rho (up, down):  3.383E-04 3.383E-04

     Magnetic moment per site:
     atom:    1    charge:    1.5328    magn:    0.0000    constr:    0.0000
     atom:    2    charge:    1.5091    magn:   -0.0000    constr:    0.0000

     total cpu time spent up to now is      461.9 secs

     End of self-consistent calculation

 ------ SPIN UP ------------


          k = 0.0000 0.0000 0.0000 (423701 PWs)   bands (ev):

   -39.3852 -23.9246 -22.4588 -22.4588 -20.6471 -12.2245 -12.2245 -11.3004
   -10.9364

          k = 0.0000 0.2500 0.0000 (423725 PWs)   bands (ev):

   -39.3852 -23.9246 -22.4588 -22.4588 -20.6471 -12.2245 -12.2245 -11.2871
   -11.0127

          k = 0.0000-0.5000 0.0000 (423542 PWs)   bands (ev):

   -39.3852 -23.9246 -22.4588 -22.4588 -20.6471 -12.2246 -12.2245 -11.2717
   -11.0689

          k = 0.2500 0.0000 0.0000 (423725 PWs)   bands (ev):

   -39.3852 -23.9246 -22.4588 -22.4588 -20.6471 -12.2245 -12.2245 -11.2874
   -11.0142

          k = 0.2500 0.2500 0.0000 (423766 PWs)   bands (ev):

   -39.3852 -23.9246 -22.4588 -22.4588 -20.6471 -12.2245 -12.2245 -11.2757
   -11.0111

          k = 0.2500-0.5000 0.0000 (423782 PWs)   bands (ev):

   -39.3852 -23.9246 -22.4588 -22.4588 -20.6471 -12.2246 -12.2245 -11.2611
   -11.0453

          k = 0.2500-0.2500 0.0000 (423766 PWs)   bands (ev):

   -39.3852 -23.9246 -22.4588 -22.4588 -20.6471 -12.2245 -12.2245 -11.2758
   -11.0125

          k =-0.5000 0.0000 0.0000 (423542 PWs)   bands (ev):

   -39.3852 -23.9246 -22.4588 -22.4588 -20.6471 -12.2246 -12.2245 -11.2718
   -11.0681

          k =-0.5000 0.2500 0.0000 (423782 PWs)   bands (ev):

   -39.3852 -23.9246 -22.4588 -22.4588 -20.6471 -12.2246 -12.2245 -11.2613
   -11.0470

          k =-0.5000-0.5000 0.0000 (423708 PWs)   bands (ev):

   -39.3852 -23.9246 -22.4588 -22.4588 -20.6471 -12.2245 -12.2245 -11.2489
   -10.9573

 ------ SPIN DOWN ----------


          k = 0.0000 0.0000 0.0000 (423701 PWs)   bands (ev):

   -39.3852 -23.9246 -22.4588 -22.4588 -20.6471 -12.2245 -12.2245 -11.3003
   -10.9364

          k = 0.0000 0.2500 0.0000 (423725 PWs)   bands (ev):

   -39.3852 -23.9246 -22.4588 -22.4588 -20.6471 -12.2245 -12.2245 -11.2872
   -11.0133

          k = 0.0000-0.5000 0.0000 (423542 PWs)   bands (ev):

   -39.3852 -23.9246 -22.4588 -22.4588 -20.6471 -12.2246 -12.2245 -11.2713
   -11.0688

          k = 0.2500 0.0000 0.0000 (423725 PWs)   bands (ev):

   -39.3852 -23.9246 -22.4588 -22.4588 -20.6471 -12.2245 -12.2245 -11.2874
   -11.0136

          k = 0.2500 0.2500 0.0000 (423766 PWs)   bands (ev):

   -39.3852 -23.9246 -22.4588 -22.4588 -20.6471 -12.2245 -12.2245 -11.2758
   -11.0126

          k = 0.2500-0.5000 0.0000 (423782 PWs)   bands (ev):

   -39.3852 -23.9246 -22.4588 -22.4588 -20.6471 -12.2246 -12.2245 -11.2611
   -11.0452

          k = 0.2500-0.2500 0.0000 (423766 PWs)   bands (ev):

   -39.3852 -23.9246 -22.4588 -22.4588 -20.6471 -12.2245 -12.2245 -11.2758
   -11.0128

          k =-0.5000 0.0000 0.0000 (423542 PWs)   bands (ev):

   -39.3852 -23.9246 -22.4588 -22.4588 -20.6471 -12.2246 -12.2245 -11.2712
   -11.0686

          k =-0.5000 0.2500 0.0000 (423782 PWs)   bands (ev):

   -39.3852 -23.9246 -22.4588 -22.4588 -20.6471 -12.2246 -12.2245 -11.2609
   -11.0467

          k =-0.5000-0.5000 0.0000 (423708 PWs)   bands (ev):

   -39.3852 -23.9246 -22.4588 -22.4588 -20.6471 -12.2245 -12.2245 -11.2490
   -10.9895

     the Fermi energy is   -17.9125 ev

!    total energy              =     -40.38892153 Ry
     estimated scf accuracy    <          2.9E-09 Ry
     smearing contrib. (-TS)   =       0.00000000 Ry
     internal energy E=F+TS    =     -40.38892153 Ry

     The total energy is F=E-TS. E is the sum of the following terms:
     one-electron contribution =    -103.62195646 Ry
     hartree contribution      =      48.83339076 Ry
     xc contribution           =     -10.60234023 Ry
     ewald contribution        =      17.29740681 Ry
     Dispersion Correction     =      -0.00000222 Ry
     electric field correction =       7.70457981 Ry

     total magnetization       =    -0.00 Bohr mag/cell
     absolute magnetization    =     0.00 Bohr mag/cell

     convergence has been achieved in   9 iterations

     negative rho (up, down):  3.383E-04 3.383E-04

     Forces acting on atoms (cartesian axes, Ry/au):

     atom    1 type  1   force =     0.00000000   -0.00000000    0.26451091
     atom    2 type  1   force =    -0.00000000    0.00000000   -0.26451091

     Total force =     0.264511     Total SCF correction =     0.000110
     Energy error            =      6.9E-03
     Gradient error          =      2.6E-01

     number of scf cycles    =   2
     number of bfgs steps    =   1

     energy   old            =     -40.3958701672 Ry
     energy   new            =     -40.3889215341 Ry

     CASE: energy  _new > energy  _old

     new trust radius        =       0.0399085161 bohr
     new conv_thr            =       0.0000000100 Ry


ATOMIC_POSITIONS (angstrom)
N            10.0000000000       10.0000000000        0.0000000000    0   0   0
N            10.0000000000        9.9999999997       -1.1088813227



     Writing output data file ./N2_ESM_VA16.save/
     NEW-OLD atomic charge density approx. for the potential

     negative rho (up, down):  3.486E-04 3.486E-04

     Adding external electric field
        E field amplitude [Ha a.u.]: -3.1525E-02
        Potential amp.       -2.1446 Ry
        Total length         34.0151 bohr

     Generating pointlists ...

     total cpu time spent up to now is      483.1 secs

     Self-consistent Calculation

     iteration #  1     ecut=    60.00 Ry     beta= 0.70
     CG style diagonalization
     ethr =  1.00E-06,  avg # of iterations =  8.9

     negative rho (up, down):  2.995E-04 2.995E-04

     total cpu time spent up to now is      515.6 secs

     total energy              =     -40.39730728 Ry
     estimated scf accuracy    <       0.00452258 Ry

     total magnetization       =    -0.00 Bohr mag/cell
     absolute magnetization    =     0.00 Bohr mag/cell

     iteration #  2     ecut=    60.00 Ry     beta= 0.70
     CG style diagonalization
     ethr =  4.52E-05,  avg # of iterations =  3.6

     negative rho (up, down):  3.054E-04 3.054E-04

     total cpu time spent up to now is      535.5 secs

     total energy              =     -40.39785811 Ry
     estimated scf accuracy    <       0.00114800 Ry

     total magnetization       =     0.00 Bohr mag/cell
     absolute magnetization    =     0.00 Bohr mag/cell

     iteration #  3     ecut=    60.00 Ry     beta= 0.70
     CG style diagonalization
     ethr =  1.15E-05,  avg # of iterations =  4.0

     negative rho (up, down):  3.059E-04 3.059E-04

     total cpu time spent up to now is      556.5 secs

     total energy              =     -40.39831876 Ry
     estimated scf accuracy    <       0.00090237 Ry

     total magnetization       =    -0.00 Bohr mag/cell
     absolute magnetization    =     0.00 Bohr mag/cell

     iteration #  4     ecut=    60.00 Ry     beta= 0.70
     CG style diagonalization
     ethr =  9.02E-06,  avg # of iterations =  3.0

     negative rho (up, down):  3.007E-04 3.007E-04

     total cpu time spent up to now is      575.2 secs

     total energy              =     -40.39845973 Ry
     estimated scf accuracy    <       0.00000756 Ry

     total magnetization       =     0.00 Bohr mag/cell
     absolute magnetization    =     0.00 Bohr mag/cell

     iteration #  5     ecut=    60.00 Ry     beta= 0.70
     CG style diagonalization
     ethr =  7.56E-08,  avg # of iterations =  4.4

     negative rho (up, down):  3.002E-04 3.002E-04

     total cpu time spent up to now is      597.3 secs

     total energy              =     -40.39846772 Ry
     estimated scf accuracy    <       0.00001180 Ry

     total magnetization       =    -0.00 Bohr mag/cell
     absolute magnetization    =     0.00 Bohr mag/cell

     iteration #  6     ecut=    60.00 Ry     beta= 0.70
     CG style diagonalization
     ethr =  7.56E-08,  avg # of iterations =  3.1

     negative rho (up, down):  3.002E-04 3.002E-04

     total cpu time spent up to now is      616.4 secs

     total energy              =     -40.39846882 Ry
     estimated scf accuracy    <       0.00000067 Ry

     total magnetization       =     0.00 Bohr mag/cell
     absolute magnetization    =     0.00 Bohr mag/cell

     iteration #  7     ecut=    60.00 Ry     beta= 0.70
     CG style diagonalization
     ethr =  6.71E-09,  avg # of iterations =  3.5

     negative rho (up, down):  3.002E-04 3.002E-04

     total cpu time spent up to now is      636.7 secs

     total energy              =     -40.39846918 Ry
     estimated scf accuracy    <       0.00000007 Ry

     total magnetization       =     0.00 Bohr mag/cell
     absolute magnetization    =     0.00 Bohr mag/cell

     iteration #  8     ecut=    60.00 Ry     beta= 0.70
     CG style diagonalization
     ethr =  6.62E-10,  avg # of iterations =  4.0

     negative rho (up, down):  3.002E-04 3.002E-04

     total cpu time spent up to now is      658.2 secs

     total energy              =     -40.39846923 Ry
     estimated scf accuracy    <       0.00000015 Ry

     total magnetization       =    -0.00 Bohr mag/cell
     absolute magnetization    =     0.00 Bohr mag/cell

     iteration #  9     ecut=    60.00 Ry     beta= 0.70
     CG style diagonalization
     ethr =  6.62E-10,  avg # of iterations =  3.2

     negative rho (up, down):  3.002E-04 3.002E-04

     total cpu time spent up to now is      677.9 secs

     total energy              =     -40.39846924 Ry
     estimated scf accuracy    <       0.00000002 Ry

     total magnetization       =     0.00 Bohr mag/cell
     absolute magnetization    =     0.00 Bohr mag/cell

     iteration # 10     ecut=    60.00 Ry     beta= 0.70
     CG style diagonalization
     ethr =  2.08E-10,  avg # of iterations =  3.6

     negative rho (up, down):  3.002E-04 3.002E-04

     Magnetic moment per site:
     atom:    1    charge:    1.4966    magn:   -0.0000    constr:    0.0000
     atom:    2    charge:    1.4709    magn:    0.0000    constr:    0.0000

     total cpu time spent up to now is      696.2 secs

     End of self-consistent calculation

 ------ SPIN UP ------------


          k = 0.0000 0.0000 0.0000 (423701 PWs)   bands (ev):

   -38.7129 -24.1691 -22.0768 -22.0768 -20.6123 -12.6656 -12.6656 -11.3025
   -10.9368

          k = 0.0000 0.2500 0.0000 (423725 PWs)   bands (ev):

   -38.7129 -24.1691 -22.0768 -22.0768 -20.6123 -12.6656 -12.6656 -11.2900
   -11.0147

          k = 0.0000-0.5000 0.0000 (423542 PWs)   bands (ev):

   -38.7129 -24.1691 -22.0768 -22.0767 -20.6123 -12.6656 -12.6656 -11.2747
   -11.0704

          k = 0.2500 0.0000 0.0000 (423725 PWs)   bands (ev):

   -38.7129 -24.1691 -22.0768 -22.0768 -20.6123 -12.6656 -12.6656 -11.2901
   -11.0158

          k = 0.2500 0.2500 0.0000 (423766 PWs)   bands (ev):

   -38.7129 -24.1691 -22.0768 -22.0768 -20.6123 -12.6656 -12.6656 -11.2786
   -11.0127

          k = 0.2500-0.5000 0.0000 (423782 PWs)   bands (ev):

   -38.7129 -24.1691 -22.0768 -22.0768 -20.6123 -12.6656 -12.6656 -11.2645
   -11.0470

          k = 0.2500-0.2500 0.0000 (423766 PWs)   bands (ev):

   -38.7129 -24.1691 -22.0768 -22.0768 -20.6123 -12.6656 -12.6656 -11.2787
   -11.0144

          k =-0.5000 0.0000 0.0000 (423542 PWs)   bands (ev):

   -38.7129 -24.1691 -22.0768 -22.0767 -20.6123 -12.6656 -12.6656 -11.2747
   -11.0701

          k =-0.5000 0.2500 0.0000 (423782 PWs)   bands (ev):

   -38.7129 -24.1691 -22.0768 -22.0768 -20.6123 -12.6656 -12.6656 -11.2646
   -11.0482

          k =-0.5000-0.5000 0.0000 (423708 PWs)   bands (ev):

   -38.7129 -24.1691 -22.0768 -22.0768 -20.6123 -12.6656 -12.6656 -11.2527
   -10.9549

 ------ SPIN DOWN ----------


          k = 0.0000 0.0000 0.0000 (423701 PWs)   bands (ev):

   -38.7129 -24.1691 -22.0768 -22.0768 -20.6123 -12.6656 -12.6656 -11.3024
   -10.9368

          k = 0.0000 0.2500 0.0000 (423725 PWs)   bands (ev):

   -38.7129 -24.1691 -22.0768 -22.0768 -20.6123 -12.6656 -12.6656 -11.2900
   -11.0153

          k = 0.0000-0.5000 0.0000 (423542 PWs)   bands (ev):

   -38.7129 -24.1691 -22.0768 -22.0767 -20.6123 -12.6656 -12.6656 -11.2745
   -11.0705

          k = 0.2500 0.0000 0.0000 (423725 PWs)   bands (ev):

   -38.7129 -24.1691 -22.0768 -22.0768 -20.6123 -12.6656 -12.6656 -11.2901
   -11.0154

          k = 0.2500 0.2500 0.0000 (423766 PWs)   bands (ev):

   -38.7129 -24.1691 -22.0768 -22.0768 -20.6123 -12.6656 -12.6656 -11.2788
   -11.0145

          k = 0.2500-0.5000 0.0000 (423782 PWs)   bands (ev):

   -38.7129 -24.1691 -22.0768 -22.0768 -20.6123 -12.6656 -12.6656 -11.2645
   -11.0469

          k = 0.2500-0.2500 0.0000 (423766 PWs)   bands (ev):

   -38.7129 -24.1691 -22.0768 -22.0768 -20.6123 -12.6656 -12.6656 -11.2787
   -11.0146

          k =-0.5000 0.0000 0.0000 (423542 PWs)   bands (ev):

   -38.7129 -24.1691 -22.0768 -22.0767 -20.6123 -12.6656 -12.6656 -11.2745
   -11.0703

          k =-0.5000 0.2500 0.0000 (423782 PWs)   bands (ev):

   -38.7129 -24.1691 -22.0768 -22.0768 -20.6123 -12.6656 -12.6656 -11.2644
   -11.0481

          k =-0.5000-0.5000 0.0000 (423708 PWs)   bands (ev):

   -38.7129 -24.1691 -22.0768 -22.0768 -20.6123 -12.6656 -12.6656 -11.2527
   -10.9931

     the Fermi energy is   -17.7447 ev

!    total energy              =     -40.39846924 Ry
     estimated scf accuracy    <          8.1E-10 Ry
     smearing contrib. (-TS)   =       0.00000000 Ry
     internal energy E=F+TS    =     -40.39846924 Ry

     The total energy is F=E-TS. E is the sum of the following terms:
     one-electron contribution =    -101.97513958 Ry
     hartree contribution      =      48.03459026 Ry
     xc contribution           =     -10.49981651 Ry
     ewald contribution        =      16.36224919 Ry
     Dispersion Correction     =      -0.00000237 Ry
     electric field correction =       7.67964976 Ry

     total magnetization       =    -0.00 Bohr mag/cell
     absolute magnetization    =     0.00 Bohr mag/cell

     convergence has been achieved in  10 iterations

     negative rho (up, down):  3.002E-04 3.002E-04

     Forces acting on atoms (cartesian axes, Ry/au):

     atom    1 type  1   force =     0.00000000   -0.00000000   -0.01066938
     atom    2 type  1   force =    -0.00000000    0.00000000    0.01066938

     Total force =     0.010669     Total SCF correction =     0.000077
     Energy error            =      2.6E-03
     Gradient error          =      1.1E-02

     number of scf cycles    =   3
     number of bfgs steps    =   1

     energy   old            =     -40.3958701672 Ry
     energy   new            =     -40.3984692437 Ry

     CASE: energy  _new < energy  _old

     new trust radius        =       0.0039309406 bohr
     new conv_thr            =       0.0000000027 Ry


ATOMIC_POSITIONS (angstrom)
N            10.0000000000       10.0000000000        0.0000000000    0   0   0
N             9.9999999996       10.0000000006       -1.1068011585



     Writing output data file ./N2_ESM_VA16.save/
     NEW-OLD atomic charge density approx. for the potential

     negative rho (up, down):  2.988E-04 2.988E-04

     Adding external electric field
        E field amplitude [Ha a.u.]: -3.1525E-02
        Potential amp.       -2.1446 Ry
        Total length         34.0151 bohr

     Generating pointlists ...

     total cpu time spent up to now is      717.6 secs

     Self-consistent Calculation

     iteration #  1     ecut=    60.00 Ry     beta= 0.70
     CG style diagonalization
     ethr =  1.00E-06,  avg # of iterations =  2.8

     negative rho (up, down):  3.015E-04 3.015E-04

     total cpu time spent up to now is      736.1 secs

     total energy              =     -40.39845845 Ry
     estimated scf accuracy    <       0.00001815 Ry

     total magnetization       =    -0.00 Bohr mag/cell
     absolute magnetization    =     0.00 Bohr mag/cell

     iteration #  2     ecut=    60.00 Ry     beta= 0.70
     CG style diagonalization
     ethr =  1.81E-07,  avg # of iterations =  4.1

     negative rho (up, down):  3.020E-04 3.020E-04

     total cpu time spent up to now is      757.3 secs

     total energy              =     -40.39847519 Ry
     estimated scf accuracy    <       0.00005932 Ry

     total magnetization       =    -0.00 Bohr mag/cell
     absolute magnetization    =     0.00 Bohr mag/cell

     iteration #  3     ecut=    60.00 Ry     beta= 0.70
     CG style diagonalization
     ethr =  1.81E-07,  avg # of iterations =  3.2

     negative rho (up, down):  3.024E-04 3.024E-04

     total cpu time spent up to now is      776.4 secs

     total energy              =     -40.39848301 Ry
     estimated scf accuracy    <       0.00000127 Ry

     total magnetization       =     0.00 Bohr mag/cell
     absolute magnetization    =     0.00 Bohr mag/cell

     iteration #  4     ecut=    60.00 Ry     beta= 0.70
     CG style diagonalization
     ethr =  1.27E-08,  avg # of iterations =  3.3

     negative rho (up, down):  3.023E-04 3.023E-04

     total cpu time spent up to now is      795.8 secs

     total energy              =     -40.39848343 Ry
     estimated scf accuracy    <       0.00000015 Ry

     total magnetization       =    -0.00 Bohr mag/cell
     absolute magnetization    =     0.00 Bohr mag/cell

     iteration #  5     ecut=    60.00 Ry     beta= 0.70
     CG style diagonalization
     ethr =  1.47E-09,  avg # of iterations =  3.8

     negative rho (up, down):  3.024E-04 3.024E-04

     total cpu time spent up to now is      816.4 secs

     total energy              =     -40.39848360 Ry
     estimated scf accuracy    <       0.00000005 Ry

     total magnetization       =    -0.00 Bohr mag/cell
     absolute magnetization    =     0.00 Bohr mag/cell

     iteration #  6     ecut=    60.00 Ry     beta= 0.70
     CG style diagonalization
     ethr =  5.20E-10,  avg # of iterations =  3.4

     negative rho (up, down):  3.024E-04 3.024E-04

     total cpu time spent up to now is      836.4 secs

     total energy              =     -40.39848362 Ry
     estimated scf accuracy    <       0.00000001 Ry

     total magnetization       =    -0.00 Bohr mag/cell
     absolute magnetization    =     0.00 Bohr mag/cell

     iteration #  7     ecut=    60.00 Ry     beta= 0.70
     CG style diagonalization
     ethr =  1.04E-10,  avg # of iterations =  3.3

     negative rho (up, down):  3.024E-04 3.024E-04

     Magnetic moment per site:
     atom:    1    charge:    1.4982    magn:    0.0000    constr:    0.0000
     atom:    2    charge:    1.4726    magn:    0.0000    constr:    0.0000

     total cpu time spent up to now is      854.2 secs

     End of self-consistent calculation

 ------ SPIN UP ------------


          k = 0.0000 0.0000 0.0000 (423701 PWs)   bands (ev):

   -38.7464 -24.1570 -22.0952 -22.0952 -20.6142 -12.6442 -12.6442 -11.3025
   -10.9368

          k = 0.0000 0.2500 0.0000 (423725 PWs)   bands (ev):

   -38.7464 -24.1570 -22.0952 -22.0952 -20.6142 -12.6442 -12.6442 -11.2900
   -11.0149

          k = 0.0000-0.5000 0.0000 (423542 PWs)   bands (ev):

   -38.7464 -24.1570 -22.0952 -22.0952 -20.6142 -12.6442 -12.6442 -11.2746
   -11.0705

          k = 0.2500 0.0000 0.0000 (423725 PWs)   bands (ev):

   -38.7464 -24.1570 -22.0952 -22.0952 -20.6142 -12.6442 -12.6442 -11.2901
   -11.0158

          k = 0.2500 0.2500 0.0000 (423766 PWs)   bands (ev):

   -38.7464 -24.1570 -22.0952 -22.0952 -20.6142 -12.6442 -12.6442 -11.2786
   -11.0128

          k = 0.2500-0.5000 0.0000 (423782 PWs)   bands (ev):

   -38.7464 -24.1570 -22.0952 -22.0952 -20.6142 -12.6442 -12.6442 -11.2645
   -11.0472

          k = 0.2500-0.2500 0.0000 (423766 PWs)   bands (ev):

   -38.7464 -24.1570 -22.0952 -22.0952 -20.6142 -12.6442 -12.6442 -11.2787
   -11.0145

          k =-0.5000 0.0000 0.0000 (423542 PWs)   bands (ev):

   -38.7464 -24.1570 -22.0952 -22.0952 -20.6142 -12.6442 -12.6442 -11.2746
   -11.0702

          k =-0.5000 0.2500 0.0000 (423782 PWs)   bands (ev):

   -38.7464 -24.1570 -22.0952 -22.0952 -20.6142 -12.6442 -12.6442 -11.2645
   -11.0482

          k =-0.5000-0.5000 0.0000 (423708 PWs)   bands (ev):

   -38.7464 -24.1570 -22.0952 -22.0952 -20.6142 -12.6442 -12.6442 -11.2526
   -10.9550

 ------ SPIN DOWN ----------


          k = 0.0000 0.0000 0.0000 (423701 PWs)   bands (ev):

   -38.7464 -24.1570 -22.0952 -22.0952 -20.6142 -12.6442 -12.6442 -11.3024
   -10.9368

          k = 0.0000 0.2500 0.0000 (423725 PWs)   bands (ev):

   -38.7464 -24.1570 -22.0952 -22.0952 -20.6142 -12.6442 -12.6442 -11.2901
   -11.0155

          k = 0.0000-0.5000 0.0000 (423542 PWs)   bands (ev):

   -38.7464 -24.1570 -22.0952 -22.0952 -20.6142 -12.6442 -12.6442 -11.2745
   -11.0705

          k = 0.2500 0.0000 0.0000 (423725 PWs)   bands (ev):

   -38.7464 -24.1570 -22.0952 -22.0952 -20.6142 -12.6442 -12.6442 -11.2901
   -11.0155

          k = 0.2500 0.2500 0.0000 (423766 PWs)   bands (ev):

   -38.7464 -24.1570 -22.0952 -22.0952 -20.6142 -12.6442 -12.6442 -11.2787
   -11.0146

          k = 0.2500-0.5000 0.0000 (423782 PWs)   bands (ev):

   -38.7464 -24.1570 -22.0952 -22.0952 -20.6142 -12.6442 -12.6442 -11.2645
   -11.0470

          k = 0.2500-0.2500 0.0000 (423766 PWs)   bands (ev):

   -38.7464 -24.1570 -22.0952 -22.0952 -20.6142 -12.6442 -12.6442 -11.2787
   -11.0146

          k =-0.5000 0.0000 0.0000 (423542 PWs)   bands (ev):

   -38.7464 -24.1570 -22.0952 -22.0952 -20.6142 -12.6442 -12.6442 -11.2745
   -11.0704

          k =-0.5000 0.2500 0.0000 (423782 PWs)   bands (ev):

   -38.7464 -24.1570 -22.0952 -22.0952 -20.6142 -12.6442 -12.6442 -11.2644
   -11.0481

          k =-0.5000-0.5000 0.0000 (423708 PWs)   bands (ev):

   -38.7464 -24.1570 -22.0952 -22.0952 -20.6142 -12.6442 -12.6442 -11.2526
   -10.9932

     the Fermi energy is   -17.7532 ev

!    total energy              =     -40.39848362 Ry
     estimated scf accuracy    <          2.7E-10 Ry
     smearing contrib. (-TS)   =       0.00000000 Ry
     internal energy E=F+TS    =     -40.39848362 Ry

     The total energy is F=E-TS. E is the sum of the following terms:
     one-electron contribution =    -102.05503618 Ry
     hartree contribution      =      48.07332387 Ry
     xc contribution           =     -10.50471991 Ry
     ewald contribution        =      16.40706198 Ry
     Dispersion Correction     =      -0.00000236 Ry
     electric field correction =       7.68088898 Ry

     total magnetization       =    -0.00 Bohr mag/cell
     absolute magnetization    =     0.00 Bohr mag/cell

     convergence has been achieved in   7 iterations

     negative rho (up, down):  3.024E-04 3.024E-04

     Forces acting on atoms (cartesian axes, Ry/au):

     atom    1 type  1   force =    -0.00000000    0.00000000    0.00099667
     atom    2 type  1   force =     0.00000000   -0.00000000   -0.00099667

     Total force =     0.000997     Total SCF correction =     0.000003
     Energy error            =      1.4E-05
     Gradient error          =      1.0E-03

     number of scf cycles    =   4
     number of bfgs steps    =   2

     energy   old            =     -40.3984692437 Ry
     energy   new            =     -40.3984836221 Ry

     CASE: energy  _new < energy  _old

     new trust radius        =       0.0003358346 bohr
     new conv_thr            =       0.0000000003 Ry


ATOMIC_POSITIONS (angstrom)
N            10.0000000000       10.0000000000        0.0000000000    0   0   0
N             9.9999999999        9.9999999999       -1.1069788746



     Writing output data file ./N2_ESM_VA16.save/
     NEW-OLD atomic charge density approx. for the potential

     negative rho (up, down):  3.025E-04 3.025E-04

     Adding external electric field
        E field amplitude [Ha a.u.]: -3.1525E-02
        Potential amp.       -2.1446 Ry
        Total length         34.0151 bohr

     Generating pointlists ...

     total cpu time spent up to now is      874.9 secs

     Self-consistent Calculation

     iteration #  1     ecut=    60.00 Ry     beta= 0.70
     CG style diagonalization
     ethr =  1.00E-06,  avg # of iterations =  2.0

     Threshold (ethr) on eigenvalues was too large:
     Diagonalizing with lowered threshold

     CG style diagonalization
     ethr =  1.34E-09,  avg # of iterations =  3.1

     negative rho (up, down):  3.023E-04 3.023E-04

     total cpu time spent up to now is      901.5 secs

     total energy              =     -40.39848416 Ry
     estimated scf accuracy    <       0.00000008 Ry

     total magnetization       =    -0.00 Bohr mag/cell
     absolute magnetization    =     0.00 Bohr mag/cell

     iteration #  2     ecut=    60.00 Ry     beta= 0.70
     CG style diagonalization
     ethr =  8.11E-10,  avg # of iterations =  3.6

     negative rho (up, down):  3.023E-04 3.023E-04

     total cpu time spent up to now is      921.4 secs

     total energy              =     -40.39848417 Ry
     estimated scf accuracy    <       0.00000007 Ry

     total magnetization       =     0.00 Bohr mag/cell
     absolute magnetization    =     0.00 Bohr mag/cell

     iteration #  3     ecut=    60.00 Ry     beta= 0.70
     CG style diagonalization
     ethr =  7.07E-10,  avg # of iterations =  3.1

     negative rho (up, down):  3.022E-04 3.022E-04

     total cpu time spent up to now is      940.2 secs

     total energy              =     -40.39848419 Ry
     estimated scf accuracy    <       0.00000001 Ry

     total magnetization       =     0.00 Bohr mag/cell
     absolute magnetization    =     0.00 Bohr mag/cell

     iteration #  4     ecut=    60.00 Ry     beta= 0.70
     CG style diagonalization
     ethr =  1.10E-10,  avg # of iterations =  3.0

     negative rho (up, down):  3.022E-04 3.022E-04

     Magnetic moment per site:
     atom:    1    charge:    1.4981    magn:    0.0000    constr:    0.0000
     atom:    2    charge:    1.4725    magn:   -0.0000    constr:    0.0000

     total cpu time spent up to now is      957.2 secs

     End of self-consistent calculation

 ------ SPIN UP ------------


          k = 0.0000 0.0000 0.0000 (423701 PWs)   bands (ev):

   -38.7437 -24.1582 -22.0937 -22.0937 -20.6142 -12.6462 -12.6462 -11.3025
   -10.9369

          k = 0.0000 0.2500 0.0000 (423725 PWs)   bands (ev):

   -38.7437 -24.1582 -22.0937 -22.0937 -20.6142 -12.6462 -12.6462 -11.2901
   -11.0151

          k = 0.0000-0.5000 0.0000 (423542 PWs)   bands (ev):

   -38.7437 -24.1582 -22.0937 -22.0937 -20.6142 -12.6462 -12.6462 -11.2747
   -11.0705

          k = 0.2500 0.0000 0.0000 (423725 PWs)   bands (ev):

   -38.7437 -24.1582 -22.0937 -22.0937 -20.6142 -12.6462 -12.6462 -11.2902
   -11.0158

          k = 0.2500 0.2500 0.0000 (423766 PWs)   bands (ev):

   -38.7437 -24.1582 -22.0937 -22.0937 -20.6142 -12.6462 -12.6462 -11.2787
   -11.0129

          k = 0.2500-0.5000 0.0000 (423782 PWs)   bands (ev):

   -38.7437 -24.1582 -22.0937 -22.0937 -20.6142 -12.6462 -12.6462 -11.2646
   -11.0473

          k = 0.2500-0.2500 0.0000 (423766 PWs)   bands (ev):

   -38.7437 -24.1582 -22.0937 -22.0937 -20.6142 -12.6462 -12.6462 -11.2788
   -11.0146

          k =-0.5000 0.0000 0.0000 (423542 PWs)   bands (ev):

   -38.7437 -24.1582 -22.0937 -22.0937 -20.6142 -12.6462 -12.6462 -11.2747
   -11.0703

          k =-0.5000 0.2500 0.0000 (423782 PWs)   bands (ev):

   -38.7437 -24.1582 -22.0937 -22.0937 -20.6142 -12.6462 -12.6462 -11.2646
   -11.0482

          k =-0.5000-0.5000 0.0000 (423708 PWs)   bands (ev):

   -38.7437 -24.1582 -22.0937 -22.0937 -20.6142 -12.6462 -12.6462 -11.2527
   -10.9550

 ------ SPIN DOWN ----------


          k = 0.0000 0.0000 0.0000 (423701 PWs)   bands (ev):

   -38.7437 -24.1582 -22.0937 -22.0937 -20.6142 -12.6462 -12.6462 -11.3025
   -10.9369

          k = 0.0000 0.2500 0.0000 (423725 PWs)   bands (ev):

   -38.7437 -24.1582 -22.0937 -22.0937 -20.6142 -12.6462 -12.6462 -11.2901
   -11.0155

          k = 0.0000-0.5000 0.0000 (423542 PWs)   bands (ev):

   -38.7437 -24.1582 -22.0937 -22.0937 -20.6142 -12.6462 -12.6462 -11.2746
   -11.0706

          k = 0.2500 0.0000 0.0000 (423725 PWs)   bands (ev):

   -38.7437 -24.1582 -22.0937 -22.0937 -20.6142 -12.6462 -12.6462 -11.2902
   -11.0156

          k = 0.2500 0.2500 0.0000 (423766 PWs)   bands (ev):

   -38.7437 -24.1582 -22.0937 -22.0937 -20.6142 -12.6462 -12.6462 -11.2788
   -11.0146

          k = 0.2500-0.5000 0.0000 (423782 PWs)   bands (ev):

   -38.7437 -24.1582 -22.0937 -22.0937 -20.6142 -12.6462 -12.6462 -11.2645
   -11.0471

          k = 0.2500-0.2500 0.0000 (423766 PWs)   bands (ev):

   -38.7437 -24.1582 -22.0937 -22.0937 -20.6142 -12.6462 -12.6462 -11.2788
   -11.0147

          k =-0.5000 0.0000 0.0000 (423542 PWs)   bands (ev):

   -38.7437 -24.1582 -22.0937 -22.0937 -20.6142 -12.6462 -12.6462 -11.2746
   -11.0705

          k =-0.5000 0.2500 0.0000 (423782 PWs)   bands (ev):

   -38.7437 -24.1582 -22.0937 -22.0937 -20.6142 -12.6462 -12.6462 -11.2645
   -11.0481

          k =-0.5000-0.5000 0.0000 (423708 PWs)   bands (ev):

   -38.7437 -24.1582 -22.0937 -22.0937 -20.6142 -12.6462 -12.6462 -11.2527
   -10.9934

     the Fermi energy is   -17.7525 ev

!    total energy              =     -40.39848419 Ry
     estimated scf accuracy    <          1.0E-10 Ry
     smearing contrib. (-TS)   =       0.00000000 Ry
     internal energy E=F+TS    =     -40.39848419 Ry

     The total energy is F=E-TS. E is the sum of the following terms:
     one-electron contribution =    -102.04823979 Ry
     hartree contribution      =      48.07005671 Ry
     xc contribution           =     -10.50430873 Ry
     ewald contribution        =      16.40322687 Ry
     Dispersion Correction     =      -0.00000236 Ry
     electric field correction =       7.68078311 Ry

     total magnetization       =     0.00 Bohr mag/cell
     absolute magnetization    =     0.00 Bohr mag/cell

     convergence has been achieved in   4 iterations

     negative rho (up, down):  3.022E-04 3.022E-04

     Forces acting on atoms (cartesian axes, Ry/au):

     atom    1 type  1   force =    -0.00000000    0.00000000   -0.00000610
     atom    2 type  1   force =     0.00000000   -0.00000000    0.00000610

     Total force =     0.000006     Total SCF correction =     0.000013
     SCF correction compared to forces is large: reduce conv_thr to get better values
     Energy error            =      5.7E-07
     Gradient error          =      6.1E-06
Begin final coordinates

ATOMIC_POSITIONS (angstrom)
N            10.0000000000       10.0000000000        0.0000000000    0   0   0
N             9.9999999999        9.9999999999       -1.1069788746
End final coordinates



     Writing output data file ./N2_ESM_VA16.save/

     lsda relaxation :  a final configuration with zero
                        absolute magnetization has been found

     the program is checking if it is really the minimum energy structure
     by performing a new scf iteration without any "electronic" history

     Initial potential from superposition of free atoms

     starting charge    9.99999, renormalised to   10.00000

     negative rho (up, down):  1.334E-04 1.091E-04

     total cpu time spent up to now is      975.9 secs

     Self-consistent Calculation

     iteration #  1     ecut=    60.00 Ry     beta= 0.70
     CG style diagonalization
     ethr =  1.00E-06,  avg # of iterations = 11.3

     negative rho (up, down):  2.493E-04 2.423E-04

     total cpu time spent up to now is     1014.5 secs

     total energy              =     -40.31200834 Ry
     estimated scf accuracy    <       0.24740171 Ry

     total magnetization       =    -0.00 Bohr mag/cell
     absolute magnetization    =     0.06 Bohr mag/cell

     iteration #  2     ecut=    60.00 Ry     beta= 0.70
     CG style diagonalization
     ethr =  2.47E-03,  avg # of iterations =  3.6

     negative rho (up, down):  3.716E-04 3.693E-04

     total cpu time spent up to now is     1034.4 secs

     total energy              =     -40.29347950 Ry
     estimated scf accuracy    <       0.42177952 Ry

     total magnetization       =    -0.00 Bohr mag/cell
     absolute magnetization    =     0.03 Bohr mag/cell

     iteration #  3     ecut=    60.00 Ry     beta= 0.70
     CG style diagonalization
     ethr =  2.47E-03,  avg # of iterations =  3.5

     negative rho (up, down):  3.000E-04 3.013E-04

     total cpu time spent up to now is     1054.4 secs

     total energy              =     -40.39412150 Ry
     estimated scf accuracy    <       0.02603495 Ry

     total magnetization       =    -0.00 Bohr mag/cell
     absolute magnetization    =     0.02 Bohr mag/cell

     iteration #  4     ecut=    60.00 Ry     beta= 0.70
     CG style diagonalization
     ethr =  2.60E-04,  avg # of iterations =  3.1

     negative rho (up, down):  2.998E-04 3.001E-04

     total cpu time spent up to now is     1073.4 secs

     total energy              =     -40.39808518 Ry
     estimated scf accuracy    <       0.00045905 Ry

     total magnetization       =     0.00 Bohr mag/cell
     absolute magnetization    =     0.01 Bohr mag/cell

     iteration #  5     ecut=    60.00 Ry     beta= 0.70
     CG style diagonalization
     ethr =  4.59E-06,  avg # of iterations =  6.1

     negative rho (up, down):  3.021E-04 3.022E-04

     total cpu time spent up to now is     1099.6 secs

     total energy              =     -40.39842378 Ry
     estimated scf accuracy    <       0.00017319 Ry

     total magnetization       =    -0.00 Bohr mag/cell
     absolute magnetization    =     0.01 Bohr mag/cell

     iteration #  6     ecut=    60.00 Ry     beta= 0.70
     CG style diagonalization
     ethr =  1.73E-06,  avg # of iterations =  4.2

     negative rho (up, down):  3.023E-04 3.023E-04

     total cpu time spent up to now is     1121.4 secs

     total energy              =     -40.39847241 Ry
     estimated scf accuracy    <       0.00003624 Ry

     total magnetization       =     0.00 Bohr mag/cell
     absolute magnetization    =     0.00 Bohr mag/cell

     iteration #  7     ecut=    60.00 Ry     beta= 0.70
     CG style diagonalization
     ethr =  3.62E-07,  avg # of iterations =  4.0

     negative rho (up, down):  3.023E-04 3.022E-04

     total cpu time spent up to now is     1142.8 secs

     total energy              =     -40.39848178 Ry
     estimated scf accuracy    <       0.00000717 Ry

     total magnetization       =    -0.00 Bohr mag/cell
     absolute magnetization    =     0.00 Bohr mag/cell

     iteration #  8     ecut=    60.00 Ry     beta= 0.70
     CG style diagonalization
     ethr =  7.17E-08,  avg # of iterations =  3.5

     negative rho (up, down):  3.022E-04 3.022E-04

     total cpu time spent up to now is     1163.0 secs

     total energy              =     -40.39848412 Ry
     estimated scf accuracy    <       0.00000056 Ry

     total magnetization       =    -0.00 Bohr mag/cell
     absolute magnetization    =     0.00 Bohr mag/cell

     iteration #  9     ecut=    60.00 Ry     beta= 0.70
     CG style diagonalization
     ethr =  5.62E-09,  avg # of iterations =  3.4

     negative rho (up, down):  3.022E-04 3.022E-04

     total cpu time spent up to now is     1183.1 secs

     total energy              =     -40.39848414 Ry
     estimated scf accuracy    <       0.00000016 Ry

     total magnetization       =    -0.00 Bohr mag/cell
     absolute magnetization    =     0.00 Bohr mag/cell

     iteration # 10     ecut=    60.00 Ry     beta= 0.70
     CG style diagonalization
     ethr =  1.57E-09,  avg # of iterations =  3.4

     negative rho (up, down):  3.022E-04 3.022E-04

     total cpu time spent up to now is     1203.4 secs

     total energy              =     -40.39848418 Ry
     estimated scf accuracy    <          6.0E-09 Ry

     total magnetization       =     0.00 Bohr mag/cell
     absolute magnetization    =     0.00 Bohr mag/cell

     iteration # 11     ecut=    60.00 Ry     beta= 0.70
     CG style diagonalization
     ethr =  6.01E-11,  avg # of iterations =  3.8

     negative rho (up, down):  3.022E-04 3.022E-04

     total cpu time spent up to now is     1224.8 secs

     total energy              =     -40.39848419 Ry
     estimated scf accuracy    <          2.6E-09 Ry

     total magnetization       =     0.00 Bohr mag/cell
     absolute magnetization    =     0.00 Bohr mag/cell

     iteration # 12     ecut=    60.00 Ry     beta= 0.70
     CG style diagonalization
     ethr =  2.56E-11,  avg # of iterations =  3.4

     negative rho (up, down):  3.022E-04 3.022E-04

     total cpu time spent up to now is     1245.3 secs

     total energy              =     -40.39848419 Ry
     estimated scf accuracy    <          6.8E-10 Ry

     total magnetization       =     0.00 Bohr mag/cell
     absolute magnetization    =     0.00 Bohr mag/cell

     iteration # 13     ecut=    60.00 Ry     beta= 0.70
     CG style diagonalization
     ethr =  6.81E-12,  avg # of iterations =  3.5

     negative rho (up, down):  3.022E-04 3.022E-04

     Magnetic moment per site:
     atom:    1    charge:    1.4981    magn:    0.0000    constr:    0.0000
     atom:    2    charge:    1.4725    magn:   -0.0000    constr:    0.0000

     total cpu time spent up to now is     1263.4 secs

     End of self-consistent calculation

 ------ SPIN UP ------------


          k = 0.0000 0.0000 0.0000 (423701 PWs)   bands (ev):

   -38.7436 -24.1581 -22.0936 -22.0936 -20.6141 -12.6461 -12.6461 -11.3025
   -10.9367

          k = 0.0000 0.2500 0.0000 (423725 PWs)   bands (ev):

   -38.7436 -24.1581 -22.0936 -22.0936 -20.6141 -12.6461 -12.6461 -11.2894
   -11.0154

          k = 0.0000-0.5000 0.0000 (423542 PWs)   bands (ev):

   -38.7436 -24.1581 -22.0936 -22.0936 -20.6141 -12.6461 -12.6461 -11.2745
   -11.0700

          k = 0.2500 0.0000 0.0000 (423725 PWs)   bands (ev):

   -38.7436 -24.1581 -22.0936 -22.0936 -20.6141 -12.6461 -12.6461 -11.2894
   -11.0150

          k = 0.2500 0.2500 0.0000 (423766 PWs)   bands (ev):

   -38.7436 -24.1581 -22.0936 -22.0936 -20.6141 -12.6461 -12.6461 -11.2783
   -11.0128

          k = 0.2500-0.5000 0.0000 (423782 PWs)   bands (ev):

   -38.7436 -24.1581 -22.0936 -22.0936 -20.6141 -12.6461 -12.6461 -11.2638
   -11.0471

          k = 0.2500-0.2500 0.0000 (423766 PWs)   bands (ev):

   -38.7436 -24.1581 -22.0936 -22.0936 -20.6141 -12.6461 -12.6461 -11.2784
   -11.0137

          k =-0.5000 0.0000 0.0000 (423542 PWs)   bands (ev):

   -38.7436 -24.1581 -22.0936 -22.0936 -20.6141 -12.6461 -12.6461 -11.2745
   -11.0700

          k =-0.5000 0.2500 0.0000 (423782 PWs)   bands (ev):

   -38.7436 -24.1581 -22.0936 -22.0936 -20.6141 -12.6461 -12.6461 -11.2638
   -11.0477

          k =-0.5000-0.5000 0.0000 (423708 PWs)   bands (ev):

   -38.7436 -24.1581 -22.0936 -22.0936 -20.6141 -12.6461 -12.6461 -11.2525
   -10.9550

 ------ SPIN DOWN ----------


          k = 0.0000 0.0000 0.0000 (423701 PWs)   bands (ev):

   -38.7436 -24.1581 -22.0936 -22.0936 -20.6141 -12.6461 -12.6461 -11.3023
   -10.9364

          k = 0.0000 0.2500 0.0000 (423725 PWs)   bands (ev):

   -38.7436 -24.1581 -22.0936 -22.0936 -20.6141 -12.6461 -12.6461 -11.2894
   -11.0155

          k = 0.0000-0.5000 0.0000 (423542 PWs)   bands (ev):

   -38.7436 -24.1581 -22.0936 -22.0936 -20.6141 -12.6461 -12.6461 -11.2739
   -11.0702

          k = 0.2500 0.0000 0.0000 (423725 PWs)   bands (ev):

   -38.7436 -24.1581 -22.0936 -22.0936 -20.6141 -12.6461 -12.6461 -11.2896
   -11.0155

          k = 0.2500 0.2500 0.0000 (423766 PWs)   bands (ev):

   -38.7436 -24.1581 -22.0936 -22.0936 -20.6141 -12.6461 -12.6461 -11.2784
   -11.0144

          k = 0.2500-0.5000 0.0000 (423782 PWs)   bands (ev):

   -38.7436 -24.1581 -22.0936 -22.0936 -20.6141 -12.6461 -12.6461 -11.2639
   -11.0474

          k = 0.2500-0.2500 0.0000 (423766 PWs)   bands (ev):

   -38.7436 -24.1581 -22.0936 -22.0936 -20.6141 -12.6461 -12.6461 -11.2784
   -11.0144

          k =-0.5000 0.0000 0.0000 (423542 PWs)   bands (ev):

   -38.7436 -24.1581 -22.0936 -22.0936 -20.6141 -12.6461 -12.6461 -11.2739
   -11.0702

          k =-0.5000 0.2500 0.0000 (423782 PWs)   bands (ev):

   -38.7436 -24.1581 -22.0936 -22.0936 -20.6141 -12.6461 -12.6461 -11.2641
   -11.0477

          k =-0.5000-0.5000 0.0000 (423708 PWs)   bands (ev):

   -38.7436 -24.1581 -22.0936 -22.0936 -20.6141 -12.6461 -12.6461 -11.2526
   -10.9952

     the Fermi energy is   -17.7521 ev

!    total energy              =     -40.39848419 Ry
     estimated scf accuracy    <          5.9E-11 Ry
     smearing contrib. (-TS)   =       0.00000000 Ry
     internal energy E=F+TS    =     -40.39848419 Ry

     The total energy is F=E-TS. E is the sum of the following terms:
     one-electron contribution =    -102.04822871 Ry
     hartree contribution      =      48.07004356 Ry
     xc contribution           =     -10.50430667 Ry
     ewald contribution        =      16.40322687 Ry
     Dispersion Correction     =      -0.00000236 Ry
     electric field correction =       7.68078311 Ry

     total magnetization       =    -0.00 Bohr mag/cell
     absolute magnetization    =     0.00 Bohr mag/cell

     convergence has been achieved in  13 iterations

     negative rho (up, down):  3.022E-04 3.022E-04

     Forces acting on atoms (cartesian axes, Ry/au):

     atom    1 type  1   force =     0.00000000   -0.00000000   -0.00000950
     atom    2 type  1   force =    -0.00000000    0.00000000    0.00000950

     Total force =     0.000010     Total SCF correction =     0.000012
     SCF correction compared to forces is large: reduce conv_thr to get better values
     Energy error            =      5.7E-07
     Gradient error          =      9.5E-06

     bfgs converged in   5 scf cycles and   3 bfgs steps
     (criteria: energy <  7.3E-07 Ry, force <  3.9E-04 Ry/Bohr)

     End of BFGS Geometry Optimization

     Final energy   =     -40.3984841899 Ry

     File ./N2_ESM_VA16.bfgs deleted, as requested
Begin final coordinates

ATOMIC_POSITIONS (angstrom)
N            10.0000000000       10.0000000000        0.0000000000    0   0   0
N             9.9999999999        9.9999999999       -1.1069788746
End final coordinates



     Writing output data file ./N2_ESM_VA16.save/

     init_run     :     19.88s CPU     21.08s WALL (       1 calls)
     electrons    :   1080.78s CPU   1156.14s WALL (       6 calls)
     update_pot   :     29.23s CPU     30.91s WALL (       4 calls)
     forces       :     46.55s CPU     50.03s WALL (       6 calls)

     Called by init_run:
     wfcinit      :      1.92s CPU      1.98s WALL (       1 calls)
     potinit      :     14.62s CPU     15.83s WALL (       2 calls)
     hinit0       :      1.03s CPU      1.19s WALL (       1 calls)

     Called by electrons:
     c_bands      :    488.76s CPU    496.04s WALL (      54 calls)
     sum_band     :    127.40s CPU    131.55s WALL (      54 calls)
     v_of_rho     :    333.19s CPU    363.88s WALL (      59 calls)
     newd         :     40.80s CPU     43.59s WALL (      59 calls)
     mix_rho      :     70.58s CPU     86.01s WALL (      54 calls)

     Called by c_bands:
     init_us_2    :      2.12s CPU      2.20s WALL (     345 calls)
     ccgdiagg     :    390.24s CPU    394.49s WALL (     162 calls)
     wfcrot       :     88.67s CPU     89.68s WALL (     144 calls)

     Called by *cgdiagg:
     h_psi        :    408.20s CPU    412.67s WALL (    4877 calls)
     s_psi        :     29.92s CPU     30.26s WALL (    9610 calls)

     Called by h_psi:
     h_psi:calbec :     19.59s CPU     19.83s WALL (    4877 calls)
     vloc_psi     :    363.63s CPU    367.60s WALL (    4877 calls)
     add_vuspsi   :     22.91s CPU     23.16s WALL (    4877 calls)
     hs_1psi      :    340.41s CPU    344.09s WALL (    4733 calls)
     s_1psi       :     31.93s CPU     32.29s WALL (    4733 calls)

     General routines
     calbec       :     37.14s CPU     37.61s WALL (    9844 calls)
     fft          :    363.27s CPU    373.86s WALL (    1557 calls)
     ffts         :     18.29s CPU     18.47s WALL (     226 calls)
     fftw         :    338.43s CPU    342.03s WALL (   13516 calls)
     interpolate  :     40.47s CPU     43.79s WALL (     118 calls)
     davcio       :      0.16s CPU      9.58s WALL (    1052 calls)

     Parallel routines
     fft_scatt_xy :    119.20s CPU    120.54s WALL (   15299 calls)
     fft_scatt_yz :    238.00s CPU    240.88s WALL (   15299 calls)

     PWSCF        :  19m53.50s CPU  21m17.11s WALL


   This run was terminated on:  21:16:27  28Sep2022            

=------------------------------------------------------------------------------=
   JOB DONE.
=------------------------------------------------------------------------------=
