     Message from routine get_command_line:
     unexpected argument # 4     :-in

     Program PWSCF v.6.4.1 starts on  1Jun2022 at 15: 8:24 

     This program is part of the open-source Quantum ESPRESSO suite
     for quantum simulation of materials; please cite
         "P. Giannozzi et al., J. Phys.:Condens. Matter 21 395502 (2009);
         "P. Giannozzi et al., J. Phys.:Condens. Matter 29 465901 (2017);
          URL http://www.quantum-espresso.org", 
     in publications or presentations arising from this work. More details at
     http://www.quantum-espresso.org/quote

     Parallel version (MPI), running on   160 processors

     MPI processes distributed on     8 nodes
     K-points division:     npool     =       8
     R & G space division:  proc/nbgrp/npool/nimage =      20
     Waiting for input...
     Reading input from standard input
Warning: card &CELL ignored
Warning: card / ignored

     Current dimensions of program PWSCF are:
     Max number of different atomic species (ntypx) = 10
     Max number of k-points (npk) =  40000
     Max angular momentum in pseudopotentials (lmaxx) =  3

     IMPORTANT: XC functional enforced from input :
     Exchange-correlation      = PBE ( 1  4  3  4 0 0)
     Any further DFT definition will be discarded
     Please, verify this is what you really want

               file Fe.pbe-spn-kjpaw_psl.0.2.1.UPF: wavefunction(s)  3D renormalized

     -------------------------------------------------
     Parameters for Dispersion (Grimme-D2) Correction:
     -------------------------------------------------
       atom      VdW radius       C_6     

        Fe         2.952        374.666

     Subspace diagonalization in iterative solution of the eigenvalue problem:
     one sub-group per band group will be used
     scalapack distributed-memory algorithm (size of sub-group:  3*  3 procs)


     Parallelization info
     --------------------
     sticks:   dense  smooth     PW     G-vecs:    dense   smooth      PW
     Min         634     317     83               145278    51361    6989
     Max         635     318     84               145287    51370    7000
     Sum       12685    6351   1677              2905599  1027285  139897



     bravais-lattice index     =            0
     lattice parameter (alat)  =      18.7640  a.u.
     unit-cell volume          =   16360.3163 (a.u.)^3
     number of atoms/cell      =           64
     number of atomic types    =            1
     number of electrons       =      1024.00
     number of Kohn-Sham states=          614
     kinetic-energy cutoff     =      60.0000  Ry
     charge density cutoff     =     480.0000  Ry
     convergence threshold     =      1.0E-08
     mixing beta               =       0.2000
     number of iterations used =           10  local-TF  mixing
     Exchange-correlation      = PBE ( 1  4  3  4 0 0)
     nstep                     =           50


     celldm(1)=  18.764036  celldm(2)=   0.000000  celldm(3)=   0.000000
     celldm(4)=   0.000000  celldm(5)=   0.000000  celldm(6)=   0.000000

     crystal axes: (cart. coord. in units of alat)
               a(1) = (   1.000000   0.000000   0.000000 )  
               a(2) = (   0.333330   0.942807   0.000000 )  
               a(3) = (   0.000000   0.000000   2.626577 )  

     reciprocal axes: (cart. coord. in units 2 pi/alat)
               b(1) = (  1.000000 -0.353551  0.000000 )  
               b(2) = (  0.000000  1.060663  0.000000 )  
               b(3) = (  0.000000  0.000000  0.380724 )  


     PseudoPot. # 1 for Fe read from file:
     ../SSSP/Fe.pbe-spn-kjpaw_psl.0.2.1.UPF
     MD5 check sum: e86618425769142926afa95317d90200
     Pseudo is Projector augmented-wave + core cor, Zval = 16.0
     Generated using "atomic" code by A. Dal Corso v.5.0.99 svn rev. 10869
     Shape of augmentation charge: PSQ
     Using radial grid of 1191 points,  6 beta functions with: 
                l(1) =   0
                l(2) =   0
                l(3) =   1
                l(4) =   1
                l(5) =   2
                l(6) =   2
     Q(r) pseudized with 0 coefficients 


     atomic species   valence    mass     pseudopotential
        Fe            16.00    55.84500     Fe( 1.00)

     Starting magnetic structure 
     atomic species   magnetization
        Fe           0.100

     No symmetry found



   Cartesian axes

     site n.     atom                  positions (alat units)
         1           Fe  tau(   1) = (   0.1666663   0.1178509   0.0000000  )
         2           Fe  tau(   2) = (   0.0000000   0.0000000   0.2041376  )
         3           Fe  tau(   3) = (   0.4999989   0.3535526   0.0000000  )
         4           Fe  tau(   4) = (   0.3333326   0.2357017   0.2041376  )
         5           Fe  tau(   5) = (   0.1686230   0.1179829   0.4050445  )
         6           Fe  tau(   6) = (   0.3342103   0.9416755   0.6029308  )
         7           Fe  tau(   7) = (   0.5009022   0.3550045   0.4066992  )
         8           Fe  tau(   8) = (   0.3393326   0.2351643   0.6044805  )
         9           Fe  tau(   9) = (   0.2499989   0.3535526   0.0000000  )
        10           Fe  tau(  10) = (   0.4166663   0.1178509   0.0000000  )
        11           Fe  tau(  11) = (   0.0833326   0.2357017   0.2041376  )
        12           Fe  tau(  12) = (   0.2500000   0.0000000   0.2041376  )
        13           Fe  tau(  13) = (   0.2499889   0.3536657   0.4067255  )
        14           Fe  tau(  14) = (   0.4191296   0.1197270   0.4058587  )
        15           Fe  tau(  15) = (   0.0867593   0.2337124   0.6031147  )
        16           Fe  tau(  16) = (   0.2513067   0.0011502   0.6041391  )
        17           Fe  tau(  17) = (   0.6666663   0.1178509   0.0000000  )
        18           Fe  tau(  18) = (   0.5000000   0.0000000   0.2041376  )
        19           Fe  tau(  19) = (   0.9999989   0.3535526   0.0000000  )
        20           Fe  tau(  20) = (   0.8333326   0.2357017   0.2041376  )
        21           Fe  tau(  21) = (   0.6682130   0.1184071   0.4067255  )
        22           Fe  tau(  22) = (   0.5012700   0.0061660   0.6044805  )
        23           Fe  tau(  23) = (   0.9990789   0.3523364   0.4066992  )
        24           Fe  tau(  24) = (   0.8424893   0.2229927   0.6009609  )
        25           Fe  tau(  25) = (   0.7499989   0.3535526   0.0000000  )
        26           Fe  tau(  26) = (   0.9166663   0.1178509   0.0000000  )
        27           Fe  tau(  27) = (   0.5833326   0.2357017   0.2041376  )
        28           Fe  tau(  28) = (   0.7500000   0.0000000   0.2041376  )
        29           Fe  tau(  29) = (   0.7499855   0.3536846   0.4022603  )
        30           Fe  tau(  30) = (   0.9186130   0.1151827   0.4029958  )
        31           Fe  tau(  31) = (   0.5926559   0.2425842   0.6081315  )
        32           Fe  tau(  32) = (   1.0841970   0.9390922   0.6031147  )
        33           Fe  tau(  33) = (   0.3333315   0.5892543   0.0000000  )
        34           Fe  tau(  34) = (   0.1666652   0.4714034   0.2041376  )
        35           Fe  tau(  35) = (   0.6666640   0.8249560   0.0000000  )
        36           Fe  tau(  36) = (   0.4999978   0.7071052   0.2041376  )
        37           Fe  tau(  37) = (   0.3313348   0.5893486   0.4050445  )
        38           Fe  tau(  38) = (   1.1606152   0.4723368   0.6044805  )
        39           Fe  tau(  39) = (   0.6673207   0.8269265   0.4050445  )
        40           Fe  tau(  40) = (   0.4990111   0.7086137   0.6029834  )
        41           Fe  tau(  41) = (   0.4166640   0.8249560   0.0000000  )
        42           Fe  tau(  42) = (   0.5833315   0.5892543   0.0000000  )
        43           Fe  tau(  43) = (   0.2499978   0.7071052   0.2041376  )
        44           Fe  tau(  44) = (   0.4166652   0.4714034   0.2041376  )
        45           Fe  tau(  45) = (   0.4166474   0.8250503   0.4047293  )
        46           Fe  tau(  46) = (   0.5813348   0.5921487   0.4029958  )
        47           Fe  tau(  47) = (   1.2485844   0.7063321   0.6041391  )
        48           Fe  tau(  48) = (   0.4132018   0.4737699   0.6030884  )
        49           Fe  tau(  49) = (   0.8333315   0.5892543   0.0000000  )
        50           Fe  tau(  50) = (   0.6666652   0.4714034   0.2041376  )
        51           Fe  tau(  51) = (   1.1666640   0.8249560   0.0000000  )
        52           Fe  tau(  52) = (   0.9999978   0.7071052   0.2041376  )
        53           Fe  tau(  53) = (   0.8317515   0.5889715   0.4066992  )
        54           Fe  tau(  54) = (   0.6574885   0.4845933   0.6009609  )
        55           Fe  tau(  55) = (   1.1659707   0.8232213   0.4050708  )
        56           Fe  tau(  56) = (   0.9986444   0.7014389   0.6044543  )
        57           Fe  tau(  57) = (   0.9166640   0.8249560   0.0000000  )
        58           Fe  tau(  58) = (   1.0833315   0.5892543   0.0000000  )
        59           Fe  tau(  59) = (   0.7499978   0.7071052   0.2041376  )
        60           Fe  tau(  60) = (   0.9166652   0.4714034   0.2041376  )
        61           Fe  tau(  61) = (   0.9166507   0.8250880   0.4067255  )
        62           Fe  tau(  62) = (   1.0808448   0.5876233   0.4058587  )
        63           Fe  tau(  63) = (   0.7490544   0.7113384   0.6030884  )
        64           Fe  tau(  64) = (   0.9073419   0.4651149   0.6080264  )

     number of k points=    10  Methfessel-Paxton smearing, width (Ry)=  0.0100
                       cart. coord. in units 2pi/alat
        k(    1) = (   0.0000000   0.0000000   0.0000000), wk =   0.0625000
        k(    2) = (   0.0000000   0.2651656   0.0000000), wk =   0.1250000
        k(    3) = (   0.0000000  -0.5303313   0.0000000), wk =   0.0625000
        k(    4) = (   0.2500000  -0.0883878   0.0000000), wk =   0.1250000
        k(    5) = (   0.2500000   0.1767779   0.0000000), wk =   0.1250000
        k(    6) = (   0.2500000  -0.6187190   0.0000000), wk =   0.1250000
        k(    7) = (   0.2500000  -0.3535534   0.0000000), wk =   0.1250000
        k(    8) = (  -0.5000000   0.1767755   0.0000000), wk =   0.0625000
        k(    9) = (  -0.5000000   0.4419412   0.0000000), wk =   0.1250000
        k(   10) = (  -0.5000000  -0.3535558   0.0000000), wk =   0.0625000

     Dense  grid:  2905599 G-vectors     FFT dimensions: ( 135, 135, 360)

     Smooth grid:  1027285 G-vectors     FFT dimensions: (  96,  96, 243)

     Estimated max dynamical RAM per process >    1009.58 MB

     Estimated total dynamical RAM >     157.75 GB
     Generating pointlists ...
     new r_m :   0.0981 (alat units)  1.8408 (a.u.) for type    1

     Check: negative core charge=   -0.000039

     Initial potential from superposition of free atoms

     starting charge 1023.97194, renormalised to 1024.00000

     negative rho (up, down):  2.482E-02 2.533E-03
     Starting wfcs are  832 randomized atomic wfcs
     Checking if some PAW data can be deallocated... 

     total cpu time spent up to now is       80.0 secs

     Self-consistent Calculation

     iteration #  1     ecut=    60.00 Ry     beta= 0.20
     Davidson diagonalization with overlap
     ethr =  1.00E-04,  avg # of iterations =  8.1

     negative rho (up, down):  1.243E-02 4.269E-03

     total cpu time spent up to now is      545.8 secs

     total energy              =  -21072.17791604 Ry
     Harris-Foulkes estimate   =  -21072.62466816 Ry
     estimated scf accuracy    <      29.29739704 Ry

     total magnetization       =   135.21 Bohr mag/cell
     absolute magnetization    =   135.46 Bohr mag/cell

     iteration #  2     ecut=    60.00 Ry     beta= 0.20
     Davidson diagonalization with overlap
     ethr =  2.86E-03,  avg # of iterations =  1.0

     negative rho (up, down):  6.395E-03 3.113E-02

     total cpu time spent up to now is      697.8 secs

     total energy              =  -21072.35290852 Ry
     Harris-Foulkes estimate   =  -21072.46935286 Ry
     estimated scf accuracy    <       8.46091362 Ry

     total magnetization       =   137.74 Bohr mag/cell
     absolute magnetization    =   138.21 Bohr mag/cell

     iteration #  3     ecut=    60.00 Ry     beta= 0.20
     Davidson diagonalization with overlap
     ethr =  8.26E-04,  avg # of iterations =  1.0

     negative rho (up, down):  2.068E-02 2.388E-01

     total cpu time spent up to now is      839.3 secs

     total energy              =  -21070.92642238 Ry
     Harris-Foulkes estimate   =  -21072.44501788 Ry
     estimated scf accuracy    <      10.41674391 Ry

     total magnetization       =   144.68 Bohr mag/cell
     absolute magnetization    =   145.56 Bohr mag/cell

     iteration #  4     ecut=    60.00 Ry     beta= 0.20
     Davidson diagonalization with overlap
     ethr =  8.26E-04,  avg # of iterations =  3.8

     negative rho (up, down):  9.664E-03 1.907E-01

     total cpu time spent up to now is     1044.8 secs

     total energy              =  -21072.12847698 Ry
     Harris-Foulkes estimate   =  -21072.07006426 Ry
     estimated scf accuracy    <       1.37536636 Ry

     total magnetization       =   159.68 Bohr mag/cell
     absolute magnetization    =   164.98 Bohr mag/cell

     iteration #  5     ecut=    60.00 Ry     beta= 0.20
     Davidson diagonalization with overlap
     ethr =  1.34E-04,  avg # of iterations =  3.6

     negative rho (up, down):  3.411E-03 1.170E-01

     total cpu time spent up to now is     1217.4 secs

     total energy              =  -21072.26127191 Ry
     Harris-Foulkes estimate   =  -21072.19963199 Ry
     estimated scf accuracy    <       0.46664610 Ry

     total magnetization       =   156.44 Bohr mag/cell
     absolute magnetization    =   161.59 Bohr mag/cell

     iteration #  6     ecut=    60.00 Ry     beta= 0.20
     Davidson diagonalization with overlap
     ethr =  4.56E-05,  avg # of iterations =  4.8

     negative rho (up, down):  2.030E-03 6.385E-02

     total cpu time spent up to now is     1425.2 secs

     total energy              =  -21072.23717991 Ry
     Harris-Foulkes estimate   =  -21072.28258492 Ry
     estimated scf accuracy    <       0.44000624 Ry

     total magnetization       =   155.75 Bohr mag/cell
     absolute magnetization    =   161.18 Bohr mag/cell

     iteration #  7     ecut=    60.00 Ry     beta= 0.20
     Davidson diagonalization with overlap
     ethr =  4.30E-05,  avg # of iterations =  2.9

     negative rho (up, down):  1.007E-03 3.698E-02

     total cpu time spent up to now is     1594.8 secs

     total energy              =  -21072.23603633 Ry
     Harris-Foulkes estimate   =  -21072.26723827 Ry
     estimated scf accuracy    <       0.19072091 Ry

     total magnetization       =   159.72 Bohr mag/cell
     absolute magnetization    =   165.84 Bohr mag/cell

     iteration #  8     ecut=    60.00 Ry     beta= 0.20
     Davidson diagonalization with overlap
     ethr =  1.86E-05,  avg # of iterations =  4.8

     negative rho (up, down):  2.657E-04 2.283E-02

     total cpu time spent up to now is     1799.5 secs

     total energy              =  -21072.24700412 Ry
     Harris-Foulkes estimate   =  -21072.25044739 Ry
     estimated scf accuracy    <       0.13635431 Ry

     total magnetization       =   162.35 Bohr mag/cell
     absolute magnetization    =   168.95 Bohr mag/cell

     iteration #  9     ecut=    60.00 Ry     beta= 0.20
     Davidson diagonalization with overlap
     ethr =  1.33E-05,  avg # of iterations =  2.0

     negative rho (up, down):  1.465E-04 2.082E-02

     total cpu time spent up to now is     1948.6 secs

     total energy              =  -21072.23816923 Ry
     Harris-Foulkes estimate   =  -21072.25332445 Ry
     estimated scf accuracy    <       0.12796192 Ry

     total magnetization       =   162.16 Bohr mag/cell
     absolute magnetization    =   168.45 Bohr mag/cell

     iteration # 10     ecut=    60.00 Ry     beta= 0.20
     Davidson diagonalization with overlap
     ethr =  1.25E-05,  avg # of iterations =  1.1

     negative rho (up, down):  2.447E-04 1.930E-02

     total cpu time spent up to now is     2089.9 secs

     total energy              =  -21072.23425900 Ry
     Harris-Foulkes estimate   =  -21072.24186241 Ry
     estimated scf accuracy    <       0.10268320 Ry

     total magnetization       =   163.70 Bohr mag/cell
     absolute magnetization    =   170.10 Bohr mag/cell

     iteration # 11     ecut=    60.00 Ry     beta= 0.20
     Davidson diagonalization with overlap
     ethr =  1.00E-05,  avg # of iterations =  1.6

     negative rho (up, down):  6.527E-02 2.051E-02

     total cpu time spent up to now is     2230.8 secs

     total energy              =  -21072.22305354 Ry
     Harris-Foulkes estimate   =  -21072.23640648 Ry
     estimated scf accuracy    <       0.07335721 Ry

     total magnetization       =   164.30 Bohr mag/cell
     absolute magnetization    =   170.73 Bohr mag/cell

     iteration # 12     ecut=    60.00 Ry     beta= 0.20
     Davidson diagonalization with overlap
     ethr =  7.16E-06,  avg # of iterations =  2.4

     negative rho (up, down):  9.093E-02 1.820E-02

     total cpu time spent up to now is     2390.7 secs

     total energy              =  -21072.22233798 Ry
     Harris-Foulkes estimate   =  -21072.22532387 Ry
     estimated scf accuracy    <       0.05141626 Ry

     total magnetization       =   164.91 Bohr mag/cell
     absolute magnetization    =   171.24 Bohr mag/cell

     iteration # 13     ecut=    60.00 Ry     beta= 0.20
     Davidson diagonalization with overlap
     ethr =  5.02E-06,  avg # of iterations =  3.0

     negative rho (up, down):  2.243E-01 1.346E-02

     total cpu time spent up to now is     2588.4 secs

     total energy              =  -21072.21469692 Ry
     Harris-Foulkes estimate   =  -21072.22454612 Ry
     estimated scf accuracy    <       0.06138894 Ry

     total magnetization       =   164.14 Bohr mag/cell
     absolute magnetization    =   170.26 Bohr mag/cell

     iteration # 14     ecut=    60.00 Ry     beta= 0.20
     Davidson diagonalization with overlap
     ethr =  5.02E-06,  avg # of iterations =  5.2

     negative rho (up, down):  2.419E-01 1.254E-02

     total cpu time spent up to now is     2830.5 secs

     total energy              =  -21072.21416307 Ry
     Harris-Foulkes estimate   =  -21072.21710323 Ry
     estimated scf accuracy    <       0.01870701 Ry

     total magnetization       =   163.94 Bohr mag/cell
     absolute magnetization    =   170.20 Bohr mag/cell

     iteration # 15     ecut=    60.00 Ry     beta= 0.20
     Davidson diagonalization with overlap
     ethr =  1.83E-06,  avg # of iterations =  4.1

     negative rho (up, down):  2.387E-01 1.150E-02

     total cpu time spent up to now is     3041.8 secs

     total energy              =  -21072.21358954 Ry
     Harris-Foulkes estimate   =  -21072.21533300 Ry
     estimated scf accuracy    <       0.01569085 Ry

     total magnetization       =   163.11 Bohr mag/cell
     absolute magnetization    =   169.31 Bohr mag/cell

     iteration # 16     ecut=    60.00 Ry     beta= 0.20
     Davidson diagonalization with overlap
     ethr =  1.53E-06,  avg # of iterations =  2.4

     negative rho (up, down):  1.506E-01 2.049E-02

     total cpu time spent up to now is     3186.6 secs

     total energy              =  -21072.20949693 Ry
     Harris-Foulkes estimate   =  -21072.21393599 Ry
     estimated scf accuracy    <       0.00951325 Ry

     total magnetization       =   163.27 Bohr mag/cell
     absolute magnetization    =   169.54 Bohr mag/cell

     iteration # 17     ecut=    60.00 Ry     beta= 0.20
     Davidson diagonalization with overlap
     ethr =  9.29E-07,  avg # of iterations =  4.0

     negative rho (up, down):  1.198E-01 2.091E-02

     total cpu time spent up to now is     3380.0 secs

     total energy              =  -21072.21038016 Ry
     Harris-Foulkes estimate   =  -21072.21038650 Ry
     estimated scf accuracy    <       0.00232839 Ry

     total magnetization       =   162.64 Bohr mag/cell
     absolute magnetization    =   168.97 Bohr mag/cell

     iteration # 18     ecut=    60.00 Ry     beta= 0.20
     Davidson diagonalization with overlap
     ethr =  2.27E-07,  avg # of iterations =  3.1

     negative rho (up, down):  6.184E-02 2.140E-02

     total cpu time spent up to now is     3598.5 secs

     total energy              =  -21072.21077014 Ry
     Harris-Foulkes estimate   =  -21072.21044709 Ry
     estimated scf accuracy    <       0.00139570 Ry

     total magnetization       =   162.67 Bohr mag/cell
     absolute magnetization    =   168.99 Bohr mag/cell

     iteration # 19     ecut=    60.00 Ry     beta= 0.20
     Davidson diagonalization with overlap
     ethr =  1.36E-07,  avg # of iterations =  2.1

     negative rho (up, down):  3.523E-02 1.997E-02

     total cpu time spent up to now is     3744.1 secs

     total energy              =  -21072.21096722 Ry
     Harris-Foulkes estimate   =  -21072.21082568 Ry
     estimated scf accuracy    <       0.00071637 Ry

     total magnetization       =   162.68 Bohr mag/cell
     absolute magnetization    =   168.95 Bohr mag/cell

     iteration # 20     ecut=    60.00 Ry     beta= 0.20
     Davidson diagonalization with overlap
     ethr =  7.00E-08,  avg # of iterations =  3.0

     negative rho (up, down):  3.104E-02 1.883E-02

     total cpu time spent up to now is     3916.1 secs

     total energy              =  -21072.21105852 Ry
     Harris-Foulkes estimate   =  -21072.21101817 Ry
     estimated scf accuracy    <       0.00006714 Ry

     total magnetization       =   162.73 Bohr mag/cell
     absolute magnetization    =   168.99 Bohr mag/cell

     iteration # 21     ecut=    60.00 Ry     beta= 0.20
     Davidson diagonalization with overlap
     ethr =  6.56E-09,  avg # of iterations =  4.2

     negative rho (up, down):  2.673E-02 1.816E-02

     total cpu time spent up to now is     4192.8 secs

     total energy              =  -21072.21110357 Ry
     Harris-Foulkes estimate   =  -21072.21106823 Ry
     estimated scf accuracy    <       0.00003594 Ry

     total magnetization       =   162.73 Bohr mag/cell
     absolute magnetization    =   169.00 Bohr mag/cell

     iteration # 22     ecut=    60.00 Ry     beta= 0.20
     Davidson diagonalization with overlap
     ethr =  3.51E-09,  avg # of iterations =  2.8

     negative rho (up, down):  2.513E-02 1.777E-02

     total cpu time spent up to now is     4373.4 secs

     total energy              =  -21072.21112263 Ry
     Harris-Foulkes estimate   =  -21072.21110533 Ry
     estimated scf accuracy    <       0.00001290 Ry

     total magnetization       =   162.75 Bohr mag/cell
     absolute magnetization    =   169.02 Bohr mag/cell

     iteration # 23     ecut=    60.00 Ry     beta= 0.20
     Davidson diagonalization with overlap
     ethr =  1.26E-09,  avg # of iterations =  3.0

     negative rho (up, down):  2.501E-02 1.760E-02

     total cpu time spent up to now is     4539.6 secs

     total energy              =  -21072.21112986 Ry
     Harris-Foulkes estimate   =  -21072.21112481 Ry
     estimated scf accuracy    <       0.00000262 Ry

     total magnetization       =   162.77 Bohr mag/cell
     absolute magnetization    =   169.04 Bohr mag/cell

     iteration # 24     ecut=    60.00 Ry     beta= 0.20
     Davidson diagonalization with overlap
     ethr =  2.56E-10,  avg # of iterations =  3.0

     negative rho (up, down):  2.518E-02 1.749E-02

     total cpu time spent up to now is     4752.2 secs

     total energy              =  -21072.21113284 Ry
     Harris-Foulkes estimate   =  -21072.21113041 Ry
     estimated scf accuracy    <       0.00000146 Ry

     total magnetization       =   162.78 Bohr mag/cell
     absolute magnetization    =   169.05 Bohr mag/cell

     iteration # 25     ecut=    60.00 Ry     beta= 0.20
     Davidson diagonalization with overlap
     ethr =  1.42E-10,  avg # of iterations =  2.6

     negative rho (up, down):  2.534E-02 1.746E-02

     total cpu time spent up to now is     4931.1 secs

     total energy              =  -21072.21113455 Ry
     Harris-Foulkes estimate   =  -21072.21113299 Ry
     estimated scf accuracy    <       0.00000081 Ry

     total magnetization       =   162.79 Bohr mag/cell
     absolute magnetization    =   169.06 Bohr mag/cell

     iteration # 26     ecut=    60.00 Ry     beta= 0.20
     Davidson diagonalization with overlap
     ethr =  7.93E-11,  avg # of iterations =  3.1

     negative rho (up, down):  2.543E-02 1.743E-02

     total cpu time spent up to now is     5099.8 secs

     total energy              =  -21072.21113553 Ry
     Harris-Foulkes estimate   =  -21072.21113470 Ry
     estimated scf accuracy    <       0.00000041 Ry

     total magnetization       =   162.80 Bohr mag/cell
     absolute magnetization    =   169.07 Bohr mag/cell

     iteration # 27     ecut=    60.00 Ry     beta= 0.20
     Davidson diagonalization with overlap
     ethr =  4.00E-11,  avg # of iterations =  2.3

     negative rho (up, down):  2.544E-02 1.742E-02

     total cpu time spent up to now is     5247.9 secs

     total energy              =  -21072.21113610 Ry
     Harris-Foulkes estimate   =  -21072.21113557 Ry
     estimated scf accuracy    <       0.00000030 Ry

     total magnetization       =   162.81 Bohr mag/cell
     absolute magnetization    =   169.08 Bohr mag/cell

     iteration # 28     ecut=    60.00 Ry     beta= 0.20
     Davidson diagonalization with overlap
     ethr =  2.90E-11,  avg # of iterations =  2.6

     negative rho (up, down):  2.541E-02 1.738E-02

     total cpu time spent up to now is     5413.4 secs

     total energy              =  -21072.21113644 Ry
     Harris-Foulkes estimate   =  -21072.21113614 Ry
     estimated scf accuracy    <       0.00000017 Ry

     total magnetization       =   162.81 Bohr mag/cell
     absolute magnetization    =   169.08 Bohr mag/cell

     iteration # 29     ecut=    60.00 Ry     beta= 0.20
     Davidson diagonalization with overlap
     ethr =  1.62E-11,  avg # of iterations =  3.3

     negative rho (up, down):  2.537E-02 1.736E-02

     total cpu time spent up to now is     5614.8 secs

     total energy              =  -21072.21113669 Ry
     Harris-Foulkes estimate   =  -21072.21113652 Ry
     estimated scf accuracy    <       0.00000005 Ry

     total magnetization       =   162.82 Bohr mag/cell
     absolute magnetization    =   169.09 Bohr mag/cell

     iteration # 30     ecut=    60.00 Ry     beta= 0.20
     Davidson diagonalization with overlap
     ethr =  5.16E-12,  avg # of iterations =  2.4

     negative rho (up, down):  2.535E-02 1.735E-02

     total cpu time spent up to now is     5772.4 secs

     total energy              =  -21072.21113679 Ry
     Harris-Foulkes estimate   =  -21072.21113669 Ry
     estimated scf accuracy    <       0.00000003 Ry

     total magnetization       =   162.82 Bohr mag/cell
     absolute magnetization    =   169.09 Bohr mag/cell

     iteration # 31     ecut=    60.00 Ry     beta= 0.20
     Davidson diagonalization with overlap
     ethr =  3.06E-12,  avg # of iterations =  2.9

     negative rho (up, down):  2.534E-02 1.734E-02

     total cpu time spent up to now is     5929.7 secs

     total energy              =  -21072.21113686 Ry
     Harris-Foulkes estimate   =  -21072.21113680 Ry
     estimated scf accuracy    <       0.00000002 Ry

     total magnetization       =   162.83 Bohr mag/cell
     absolute magnetization    =   169.10 Bohr mag/cell

     iteration # 32     ecut=    60.00 Ry     beta= 0.20
     Davidson diagonalization with overlap
     ethr =  2.16E-12,  avg # of iterations =  1.4

     negative rho (up, down):  2.530E-02 1.735E-02

     total cpu time spent up to now is     6074.0 secs

     total energy              =  -21072.21113688 Ry
     Harris-Foulkes estimate   =  -21072.21113686 Ry
     estimated scf accuracy    <       0.00000002 Ry

     total magnetization       =   162.83 Bohr mag/cell
     absolute magnetization    =   169.10 Bohr mag/cell

     iteration # 33     ecut=    60.00 Ry     beta= 0.20
     Davidson diagonalization with overlap
     ethr =  1.70E-12,  avg # of iterations =  3.8

     negative rho (up, down):  2.523E-02 1.734E-02

     Magnetic moment per site:
     atom:    1    charge:   14.0955    magn:    2.6483    constr:    0.0000
     atom:    2    charge:   14.1578    magn:    2.3886    constr:    0.0000
     atom:    3    charge:   14.0956    magn:    2.6484    constr:    0.0000
     atom:    4    charge:   14.1501    magn:    2.4355    constr:    0.0000
     atom:    5    charge:   14.1689    magn:    2.3968    constr:    0.0000
     atom:    6    charge:   14.1135    magn:    2.6109    constr:    0.0000
     atom:    7    charge:   14.1600    magn:    2.4227    constr:    0.0000
     atom:    8    charge:   14.1049    magn:    2.6405    constr:    0.0000
     atom:    9    charge:   14.0961    magn:    2.6444    constr:    0.0000
     atom:   10    charge:   14.0952    magn:    2.6514    constr:    0.0000
     atom:   11    charge:   14.1511    magn:    2.4319    constr:    0.0000
     atom:   12    charge:   14.1541    magn:    2.4206    constr:    0.0000
     atom:   13    charge:   14.1585    magn:    2.4212    constr:    0.0000
     atom:   14    charge:   14.1713    magn:    2.3897    constr:    0.0000
     atom:   15    charge:   14.1180    magn:    2.6005    constr:    0.0000
     atom:   16    charge:   14.1110    magn:    2.6198    constr:    0.0000
     atom:   17    charge:   14.0956    magn:    2.6484    constr:    0.0000
     atom:   18    charge:   14.1502    magn:    2.4356    constr:    0.0000
     atom:   19    charge:   14.0956    magn:    2.6485    constr:    0.0000
     atom:   20    charge:   14.1563    magn:    2.4086    constr:    0.0000
     atom:   21    charge:   14.1600    magn:    2.4230    constr:    0.0000
     atom:   22    charge:   14.1050    magn:    2.6405    constr:    0.0000
     atom:   23    charge:   14.1600    magn:    2.4229    constr:    0.0000
     atom:   24    charge:   14.1269    magn:    2.5871    constr:    0.0000
     atom:   25    charge:   14.0955    magn:    2.6457    constr:    0.0000
     atom:   26    charge:   14.0952    magn:    2.6490    constr:    0.0000
     atom:   27    charge:   14.1495    magn:    2.4402    constr:    0.0000
     atom:   28    charge:   14.1511    magn:    2.4321    constr:    0.0000
     atom:   29    charge:   14.1541    magn:    2.4137    constr:    0.0000
     atom:   30    charge:   14.1814    magn:    2.3527    constr:    0.0000
     atom:   31    charge:   14.0887    magn:    2.6857    constr:    0.0000
     atom:   32    charge:   14.1181    magn:    2.6003    constr:    0.0000
     atom:   33    charge:   14.0955    magn:    2.6483    constr:    0.0000
     atom:   34    charge:   14.1502    magn:    2.4356    constr:    0.0000
     atom:   35    charge:   14.0955    magn:    2.6483    constr:    0.0000
     atom:   36    charge:   14.1577    magn:    2.3881    constr:    0.0000
     atom:   37    charge:   14.1687    magn:    2.3964    constr:    0.0000
     atom:   38    charge:   14.1051    magn:    2.6404    constr:    0.0000
     atom:   39    charge:   14.1687    magn:    2.3964    constr:    0.0000
     atom:   40    charge:   14.1133    magn:    2.6113    constr:    0.0000
     atom:   41    charge:   14.0966    magn:    2.6328    constr:    0.0000
     atom:   42    charge:   14.0951    magn:    2.6491    constr:    0.0000
     atom:   43    charge:   14.1541    magn:    2.4209    constr:    0.0000
     atom:   44    charge:   14.1510    magn:    2.4320    constr:    0.0000
     atom:   45    charge:   14.1686    magn:    2.3769    constr:    0.0000
     atom:   46    charge:   14.1816    magn:    2.3524    constr:    0.0000
     atom:   47    charge:   14.1111    magn:    2.6196    constr:    0.0000
     atom:   48    charge:   14.1182    magn:    2.6002    constr:    0.0000
     atom:   49    charge:   14.0956    magn:    2.6485    constr:    0.0000
     atom:   50    charge:   14.1563    magn:    2.4087    constr:    0.0000
     atom:   51    charge:   14.0955    magn:    2.6483    constr:    0.0000
     atom:   52    charge:   14.1501    magn:    2.4355    constr:    0.0000
     atom:   53    charge:   14.1600    magn:    2.4227    constr:    0.0000
     atom:   54    charge:   14.1268    magn:    2.5864    constr:    0.0000
     atom:   55    charge:   14.1689    magn:    2.3968    constr:    0.0000
     atom:   56    charge:   14.1050    magn:    2.6401    constr:    0.0000
     atom:   57    charge:   14.0961    magn:    2.6444    constr:    0.0000
     atom:   58    charge:   14.0952    magn:    2.6514    constr:    0.0000
     atom:   59    charge:   14.1510    magn:    2.4319    constr:    0.0000
     atom:   60    charge:   14.1495    magn:    2.4402    constr:    0.0000
     atom:   61    charge:   14.1585    magn:    2.4211    constr:    0.0000
     atom:   62    charge:   14.1713    magn:    2.3899    constr:    0.0000
     atom:   63    charge:   14.1182    magn:    2.6002    constr:    0.0000
     atom:   64    charge:   14.0890    magn:    2.6851    constr:    0.0000

     total cpu time spent up to now is     6254.2 secs

     End of self-consistent calculation

 ------ SPIN UP ------------


          k = 0.0000 0.0000 0.0000 (128403 PWs)   bands (ev):

   -85.9682 -85.9654 -85.9486 -85.9339 -85.9329 -85.9288 -85.9269 -85.9239
   -85.9215 -85.9183 -85.9164 -85.9159 -85.9125 -85.9124 -85.9124 -85.9096
   -85.9083 -85.9045 -85.9033 -85.9026 -85.8973 -85.8960 -85.8959 -85.8865
   -85.8839 -85.8810 -85.8767 -85.8717 -85.8626 -85.8593 -85.8511 -85.8489
   -85.8131 -85.7946 -85.7937 -85.7932 -85.7862 -85.7807 -85.7796 -85.7751
   -85.7714 -85.7686 -85.7676 -85.7672 -85.7663 -85.7655 -85.7647 -85.7643
   -85.7590 -85.7552 -85.7534 -85.7510 -85.7486 -85.7474 -85.7458 -85.7456
   -85.7417 -85.7392 -85.7363 -85.7301 -85.7263 -85.7222 -85.7174 -85.7089
   -52.1563 -52.1528 -52.1396 -52.1207 -52.1187 -52.1162 -52.1137 -52.1125
   -52.1100 -52.1077 -52.1049 -52.1046 -52.1029 -52.0977 -52.0972 -52.0958
   -52.0955 -52.0919 -52.0906 -52.0905 -52.0877 -52.0845 -52.0841 -52.0781
   -52.0753 -52.0719 -52.0715 -52.0690 -52.0656 -52.0638 -52.0597 -52.0583
   -52.0550 -52.0546 -52.0524 -52.0502 -52.0463 -52.0337 -52.0335 -52.0323
   -52.0299 -52.0296 -52.0249 -52.0244 -52.0229 -52.0190 -51.9922 -51.9686
   -51.9645 -51.9638 -51.9627 -51.9612 -51.9589 -51.9555 -51.9553 -51.9553
   -51.9510 -51.9508 -51.9492 -51.9481 -51.9447 -51.9430 -51.9420 -51.9377
   -51.9330 -51.9287 -51.9263 -51.9258 -51.9241 -51.9240 -51.9233 -51.9209
   -51.9206 -51.9174 -51.9083 -51.9075 -51.9020 -51.9015 -51.9014 -51.8995
   -51.8980 -51.8966 -51.8908 -51.8894 -51.8871 -51.8857 -51.8855 -51.8847
   -51.8819 -51.8803 -51.8786 -51.8749 -51.8720 -51.8718 -51.8695 -51.8660
   -51.8637 -51.8591 -51.8580 -51.8528 -51.8499 -51.8485 -51.8481 -51.8440
   -51.8366 -51.8354 -51.8345 -51.8297 -51.8289 -51.8287 -51.8257 -51.8253
   -51.8251 -51.8200 -51.8184 -51.8178 -51.8163 -51.8129 -51.8123 -51.8089
   -51.8088 -51.8079 -51.8078 -51.8039 -51.8028 -51.8006 -51.7999 -51.7996
   -51.7957 -51.7956 -51.7954 -51.7929 -51.7839 -51.7829 -51.7787 -51.7785
   -51.7768 -51.7764 -51.7747 -51.7734 -51.7697 -51.7683 -51.7646 -51.7624
   -51.7613 -51.7591 -51.7556 -51.7527 -51.7524 -51.7445 -51.7437 -51.7399
   -51.7379 -51.7331 -51.7315 -51.7302 -51.7258 -51.7242 -51.7212 -51.7206
   -51.7160 -51.7152 -51.7143 -51.7128 -51.7126 -51.7095 -51.7054 -51.7036
   -51.7004 -51.6980 -51.6979 -51.6973 -51.6927 -51.6843 -51.6842 -51.6824
   -51.6731 -51.6719 -51.6718 -51.6690 -51.6644 -51.6632 -51.6621 -51.6608
   -51.6584 -51.6580 -51.6546 -51.6533 -51.6524 -51.6518 -51.6456 -51.6410
    -5.7217  -4.4906  -4.0578  -4.0392  -4.0354  -4.0317  -3.5691  -3.5636
    -3.1001  -3.0695  -3.0514  -3.0504  -3.0432  -2.6324  -2.6198  -2.6180
    -2.4189  -2.4177  -2.4001  -2.3919  -2.3810  -2.3311  -2.3087  -2.2338
    -2.2335  -1.9868  -1.9855  -1.9830  -1.9768  -1.9344  -1.8902  -1.8629
    -1.8557  -1.8506  -1.8460  -1.8304  -1.8281  -1.8265  -1.8218  -1.8186
    -1.8171  -1.8150  -1.8088  -1.8051  -1.8020  -1.7725  -1.7700  -1.7557
    -1.7535  -1.7371  -1.7369  -1.7339  -1.7270  -1.6934  -1.6292  -1.6289
    -1.6288  -1.6173  -1.5618  -1.5614  -1.5463  -1.5358  -1.2717  -1.2674
    -1.2435  -1.2388  -1.2360  -1.2308  -1.1717  -1.1223  -1.0878  -1.0795
    -1.0672  -1.0630  -1.0622  -1.0581  -1.0558  -1.0547  -1.0391  -1.0316
    -1.0270  -1.0153  -1.0131  -1.0071  -1.0057  -1.0035  -1.0012  -0.9846
    -0.9837  -0.9801  -0.9771  -0.9683  -0.9593  -0.9509  -0.9405  -0.9292
    -0.9253  -0.9180  -0.9113  -0.9041  -0.9030  -0.8947  -0.8905  -0.8871
    -0.8696  -0.8646  -0.8570  -0.8556  -0.7804  -0.7237  -0.7165  -0.6888
    -0.6853  -0.6803  -0.6763  -0.6591  -0.5804  -0.5686  -0.4911  -0.4909
    -0.4893  -0.4850  -0.4752  -0.4720  -0.4593  -0.4544  -0.4413  -0.4244
    -0.4068  -0.4007  -0.3961  -0.3783  -0.3774  -0.3611  -0.3512  -0.3468
    -0.3437  -0.3361  -0.3342  -0.3320  -0.3286  -0.3125  -0.2885  -0.2765
    -0.2038  -0.1965  -0.1937  -0.1875  -0.1859  -0.1832  -0.1830  -0.1456
    -0.1430  -0.1418  -0.1186  -0.1161  -0.1095  -0.0610  -0.0577  -0.0455
    -0.0397  -0.0354  -0.0311  -0.0309  -0.0280  -0.0017   0.0009   0.0232
     0.0509   0.0544   0.0557   0.0571   0.0772   0.0778   0.0856   0.0961
     0.0962   0.0999   0.1061   0.1190   0.1210   0.1325   0.1493   0.1579
     0.1870   0.2214   0.2475   0.3405   0.3430   0.4902   0.4986   0.6087
     0.6266   0.6319   0.6338   0.6368   0.6446   0.6481   0.6560   0.6572
     0.6689   0.6715   0.6913   0.7054   0.7184   0.7223   0.7236   0.7617
     0.7782   0.7948   0.7985   0.8115   0.8268   0.8274   0.8401   0.8445
     0.8496   0.8535   0.8537   0.8599   0.8697   0.8889   0.8916   0.9137
     0.9184   0.9252   0.9439   0.9470   0.9648   0.9708   0.9714   0.9719
     0.9775   0.9858   0.9916   0.9918   1.0079   1.0093   1.0144   1.0218
     1.0307   1.0411   1.0481   1.0483   1.0529   1.0530   1.0537   1.0616
     1.0645   1.0666   1.0732   1.0793   1.0812   1.0825   1.0877   1.0944
     1.0956   1.0991   1.1034   1.1042   1.1059   1.1205   1.1308   1.1336
     1.1357   1.1471   1.1617   1.1651   1.1653   1.1797   1.1822   1.1837
     1.1898   1.1961   1.2007   1.2018   1.2103   1.2258   1.2268   1.2333
     1.2615   1.2674   1.2827   1.2856   1.2887   1.3086   1.3206   1.3239
     1.3354   1.3373   1.3378   1.4379   1.4458   1.4472   1.4536   1.4576
     1.4608   1.4724   1.4741   1.4773   1.4824   1.4886   1.4911   1.4943
     1.5040   1.5159   1.5198   1.5290   1.5421   1.5430   1.5438   1.5587
     1.5659   1.6378   1.6444   1.9274   1.9382   1.9569   1.9761   1.9811
     1.9971   2.0505   2.0610   2.0743   2.0834   2.1323   2.1561   2.1938
     2.2043   2.2079   2.2089   2.2524   2.2613   2.2699   2.2841   2.2866
     2.3132   2.3167   2.4162   2.4895   2.4915   2.5229   2.6057   2.6075
     2.6129   3.2120   3.2146   3.2511   3.2629   3.2655   3.2682   3.4204
     4.0647   4.0681   4.0872   4.0956   4.1680   4.1690

          k = 0.0000 0.2652 0.0000 (128375 PWs)   bands (ev):

   -85.9681 -85.9655 -85.9473 -85.9380 -85.9324 -85.9270 -85.9253 -85.9233
   -85.9231 -85.9186 -85.9180 -85.9139 -85.9136 -85.9123 -85.9115 -85.9102
   -85.9062 -85.9049 -85.9047 -85.9037 -85.8969 -85.8966 -85.8939 -85.8872
   -85.8839 -85.8809 -85.8762 -85.8720 -85.8623 -85.8599 -85.8507 -85.8492
   -85.8120 -85.7997 -85.7939 -85.7897 -85.7842 -85.7823 -85.7769 -85.7751
   -85.7724 -85.7712 -85.7693 -85.7675 -85.7667 -85.7642 -85.7634 -85.7631
   -85.7581 -85.7562 -85.7542 -85.7503 -85.7495 -85.7472 -85.7453 -85.7448
   -85.7414 -85.7395 -85.7374 -85.7310 -85.7255 -85.7217 -85.7166 -85.7097
   -52.1557 -52.1530 -52.1382 -52.1259 -52.1196 -52.1159 -52.1134 -52.1111
   -52.1097 -52.1052 -52.1050 -52.1036 -52.1031 -52.0997 -52.0967 -52.0955
   -52.0942 -52.0931 -52.0919 -52.0902 -52.0875 -52.0844 -52.0815 -52.0773
   -52.0753 -52.0714 -52.0675 -52.0657 -52.0633 -52.0598 -52.0585 -52.0571
   -52.0542 -52.0513 -52.0490 -52.0443 -52.0430 -52.0398 -52.0336 -52.0321
   -52.0291 -52.0276 -52.0233 -52.0195 -52.0175 -52.0116 -51.9894 -51.9868
   -51.9793 -51.9746 -51.9726 -51.9673 -51.9659 -51.9614 -51.9575 -51.9536
   -51.9519 -51.9501 -51.9483 -51.9469 -51.9447 -51.9416 -51.9400 -51.9381
   -51.9361 -51.9350 -51.9343 -51.9308 -51.9279 -51.9243 -51.9228 -51.9216
   -51.9215 -51.9190 -51.9169 -51.9161 -51.9133 -51.9093 -51.9028 -51.9001
   -51.8960 -51.8959 -51.8955 -51.8905 -51.8888 -51.8844 -51.8832 -51.8786
   -51.8771 -51.8718 -51.8714 -51.8690 -51.8681 -51.8665 -51.8637 -51.8623
   -51.8617 -51.8565 -51.8552 -51.8535 -51.8523 -51.8487 -51.8476 -51.8429
   -51.8392 -51.8374 -51.8369 -51.8330 -51.8312 -51.8301 -51.8275 -51.8265
   -51.8249 -51.8244 -51.8224 -51.8176 -51.8161 -51.8154 -51.8143 -51.8132
   -51.8090 -51.8072 -51.8024 -51.8011 -51.7969 -51.7960 -51.7948 -51.7940
   -51.7921 -51.7898 -51.7882 -51.7876 -51.7838 -51.7804 -51.7797 -51.7778
   -51.7753 -51.7739 -51.7718 -51.7685 -51.7672 -51.7665 -51.7617 -51.7584
   -51.7569 -51.7552 -51.7535 -51.7508 -51.7499 -51.7493 -51.7455 -51.7377
   -51.7348 -51.7336 -51.7303 -51.7296 -51.7279 -51.7257 -51.7237 -51.7218
   -51.7203 -51.7169 -51.7116 -51.7106 -51.7091 -51.7080 -51.7051 -51.7014
   -51.6987 -51.6965 -51.6942 -51.6912 -51.6882 -51.6842 -51.6838 -51.6817
   -51.6791 -51.6759 -51.6735 -51.6707 -51.6680 -51.6666 -51.6656 -51.6646
   -51.6624 -51.6601 -51.6589 -51.6577 -51.6557 -51.6523 -51.6469 -51.6433
    -5.6053  -4.7245  -4.3799  -4.1866  -3.9282  -3.7157  -3.5827  -3.3190
    -3.1530  -3.1044  -2.9956  -2.8994  -2.8006  -2.7115  -2.6511  -2.5486
    -2.4589  -2.4111  -2.3600  -2.3358  -2.3296  -2.3114  -2.3036  -2.2785
    -2.2640  -2.1296  -2.0519  -2.0244  -1.9968  -1.9823  -1.9652  -1.9491
    -1.9442  -1.9355  -1.9301  -1.9148  -1.9093  -1.8872  -1.8843  -1.8701
    -1.8426  -1.8346  -1.8168  -1.8033  -1.7993  -1.7837  -1.7617  -1.7558
    -1.7380  -1.7150  -1.6924  -1.6822  -1.6679  -1.6601  -1.6507  -1.6477
    -1.6188  -1.5308  -1.5041  -1.4879  -1.4804  -1.4566  -1.4385  -1.3577
    -1.3260  -1.2932  -1.2505  -1.2324  -1.1879  -1.1775  -1.1429  -1.0906
    -1.0832  -1.0750  -1.0665  -1.0554  -1.0476  -1.0391  -1.0266  -1.0251
    -1.0170  -1.0105  -1.0077  -1.0024  -0.9825  -0.9752  -0.9722  -0.9661
    -0.9628  -0.9541  -0.9450  -0.9369  -0.9283  -0.9272  -0.9256  -0.9156
    -0.9130  -0.9095  -0.9048  -0.8941  -0.8710  -0.8404  -0.8298  -0.8245
    -0.8144  -0.8080  -0.7958  -0.7795  -0.7631  -0.7600  -0.7477  -0.7467
    -0.6704  -0.6636  -0.6469  -0.6148  -0.5911  -0.5833  -0.5711  -0.5646
    -0.5500  -0.4848  -0.4793  -0.4777  -0.4616  -0.4546  -0.4446  -0.4380
    -0.4325  -0.4273  -0.4201  -0.4139  -0.4025  -0.3853  -0.3673  -0.3633
    -0.3609  -0.3557  -0.3269  -0.3193  -0.3075  -0.2801  -0.2712  -0.2412
    -0.2383  -0.2194  -0.2071  -0.1991  -0.1861  -0.1817  -0.1743  -0.1651
    -0.1593  -0.1535  -0.1425  -0.1395  -0.1369  -0.1303  -0.1125  -0.1027
    -0.0960  -0.0863  -0.0669  -0.0501  -0.0274  -0.0040   0.0084   0.0309
     0.0400   0.0507   0.0597   0.0769   0.0888   0.0943   0.1000   0.1142
     0.1188   0.1616   0.1685   0.2088   0.2215   0.2252   0.2458   0.2772
     0.3005   0.3043   0.3239   0.3899   0.4958   0.5019   0.5096   0.5476
     0.5526   0.5781   0.5870   0.6105   0.6246   0.6389   0.6459   0.6627
     0.6651   0.6797   0.6933   0.6949   0.7004   0.7058   0.7143   0.7217
     0.7492   0.7594   0.7848   0.8011   0.8135   0.8269   0.8346   0.8410
     0.8486   0.8508   0.8545   0.8664   0.8770   0.8825   0.8879   0.8895
     0.9003   0.9096   0.9311   0.9400   0.9547   0.9614   0.9677   0.9813
     0.9831   0.9866   0.9996   1.0007   1.0086   1.0098   1.0158   1.0226
     1.0306   1.0321   1.0372   1.0428   1.0464   1.0515   1.0608   1.0737
     1.0840   1.0881   1.0967   1.1023   1.1034   1.1075   1.1109   1.1125
     1.1182   1.1307   1.1310   1.1339   1.1386   1.1514   1.1569   1.1647
     1.1679   1.1760   1.1807   1.1832   1.1893   1.1912   1.1945   1.2025
     1.2074   1.2282   1.2287   1.2394   1.2469   1.2523   1.2584   1.2765
     1.3036   1.3087   1.3237   1.3340   1.3432   1.3461   1.3521   1.3600
     1.3653   1.3751   1.3788   1.3873   1.3885   1.3989   1.4100   1.4392
     1.4515   1.4585   1.4672   1.4690   1.4768   1.4877   1.4994   1.5021
     1.5110   1.5125   1.5252   1.5417   1.5567   1.6157   1.6482   1.6529
     1.6615   1.8562   1.8804   1.8905   1.9057   1.9205   1.9331   1.9521
     1.9605   1.9655   1.9775   2.0343   2.0426   2.0563   2.0669   2.0712
     2.0876   2.0953   2.1100   2.1284   2.1347   2.1504   2.1693   2.1776
     2.2025   2.2587   2.2862   2.3265   2.3926   2.4324   2.6262   2.6927
     2.9097   3.0730   3.0791   3.1918   3.3394   3.3442   3.4894   3.5068
     3.6041   3.6392   3.7015   3.8433   3.8720   4.0696

          k = 0.0000-0.5303 0.0000 (128388 PWs)   bands (ev):

   -85.9680 -85.9656 -85.9441 -85.9428 -85.9299 -85.9296 -85.9246 -85.9223
   -85.9215 -85.9203 -85.9180 -85.9167 -85.9120 -85.9116 -85.9099 -85.9085
   -85.9081 -85.9071 -85.9053 -85.9021 -85.8978 -85.8966 -85.8916 -85.8886
   -85.8838 -85.8810 -85.8756 -85.8724 -85.8613 -85.8612 -85.8500 -85.8498
   -85.8104 -85.8032 -85.7932 -85.7898 -85.7815 -85.7812 -85.7785 -85.7750
   -85.7734 -85.7706 -85.7705 -85.7687 -85.7668 -85.7639 -85.7630 -85.7611
   -85.7586 -85.7558 -85.7555 -85.7504 -85.7485 -85.7477 -85.7446 -85.7445
   -85.7405 -85.7398 -85.7391 -85.7318 -85.7244 -85.7219 -85.7151 -85.7110
   -52.1549 -52.1532 -52.1335 -52.1332 -52.1191 -52.1181 -52.1115 -52.1104
   -52.1079 -52.1066 -52.1051 -52.1043 -52.1012 -52.0996 -52.0959 -52.0953
   -52.0945 -52.0941 -52.0927 -52.0889 -52.0878 -52.0846 -52.0791 -52.0765
   -52.0763 -52.0705 -52.0658 -52.0617 -52.0614 -52.0585 -52.0531 -52.0521
   -52.0488 -52.0472 -52.0461 -52.0448 -52.0412 -52.0392 -52.0344 -52.0328
   -52.0249 -52.0241 -52.0165 -52.0159 -52.0065 -52.0060 -52.0009 -51.9967
   -51.9898 -51.9881 -51.9804 -51.9801 -51.9763 -51.9731 -51.9663 -51.9653
   -51.9533 -51.9486 -51.9467 -51.9443 -51.9436 -51.9414 -51.9408 -51.9373
   -51.9349 -51.9326 -51.9287 -51.9266 -51.9256 -51.9237 -51.9208 -51.9197
   -51.9195 -51.9181 -51.9179 -51.9144 -51.9142 -51.9094 -51.9080 -51.9049
   -51.9041 -51.9008 -51.9000 -51.8976 -51.8972 -51.8920 -51.8919 -51.8910
   -51.8859 -51.8827 -51.8698 -51.8697 -51.8668 -51.8647 -51.8577 -51.8574
   -51.8534 -51.8524 -51.8486 -51.8470 -51.8461 -51.8421 -51.8413 -51.8409
   -51.8320 -51.8317 -51.8304 -51.8302 -51.8290 -51.8281 -51.8265 -51.8258
   -51.8252 -51.8236 -51.8208 -51.8169 -51.8158 -51.8144 -51.8139 -51.8117
   -51.8112 -51.8091 -51.8059 -51.8050 -51.8002 -51.7989 -51.7978 -51.7933
   -51.7926 -51.7872 -51.7858 -51.7847 -51.7836 -51.7824 -51.7774 -51.7751
   -51.7719 -51.7691 -51.7661 -51.7635 -51.7632 -51.7615 -51.7589 -51.7557
   -51.7547 -51.7528 -51.7523 -51.7523 -51.7491 -51.7484 -51.7441 -51.7436
   -51.7370 -51.7357 -51.7324 -51.7310 -51.7287 -51.7261 -51.7238 -51.7186
   -51.7180 -51.7143 -51.7093 -51.7092 -51.7006 -51.7004 -51.6984 -51.6974
   -51.6934 -51.6931 -51.6897 -51.6893 -51.6862 -51.6856 -51.6836 -51.6820
   -51.6806 -51.6793 -51.6787 -51.6766 -51.6738 -51.6735 -51.6722 -51.6720
   -51.6689 -51.6674 -51.6619 -51.6593 -51.6580 -51.6524 -51.6473 -51.6450
    -5.2674  -5.2606  -4.1453  -4.1446  -4.0655  -4.0568  -3.2468  -3.2457
    -3.0930  -3.0928  -2.7364  -2.7342  -2.7096  -2.6993  -2.6046  -2.6006
    -2.4677  -2.4661  -2.4386  -2.4301  -2.3112  -2.3101  -2.2002  -2.2001
    -2.1860  -2.1829  -2.1693  -2.1682  -2.1414  -2.1349  -2.1256  -2.1228
    -2.0419  -2.0342  -1.9769  -1.9722  -1.9720  -1.9547  -1.8180  -1.8159
    -1.8087  -1.8056  -1.7364  -1.7351  -1.7282  -1.7276  -1.7210  -1.7112
    -1.7098  -1.7010  -1.6798  -1.6784  -1.6765  -1.6681  -1.5704  -1.5688
    -1.5672  -1.5570  -1.5519  -1.5400  -1.5267  -1.5101  -1.4385  -1.4359
    -1.3719  -1.3676  -1.3303  -1.3287  -1.2526  -1.2506  -1.1185  -1.1149
    -1.0696  -1.0666  -1.0514  -1.0483  -1.0324  -1.0308  -1.0296  -1.0161
    -1.0044  -1.0014  -0.9997  -0.9932  -0.9849  -0.9775  -0.9704  -0.9590
    -0.9585  -0.9517  -0.9502  -0.9452  -0.9111  -0.9102  -0.8672  -0.8589
    -0.8379  -0.8327  -0.8180  -0.8151  -0.7921  -0.7865  -0.7817  -0.7784
    -0.7686  -0.7615  -0.7597  -0.7553  -0.7500  -0.7471  -0.7381  -0.7339
    -0.6997  -0.6967  -0.6965  -0.6928  -0.6863  -0.6821  -0.5486  -0.5409
    -0.5070  -0.4852  -0.4604  -0.4460  -0.4443  -0.4360  -0.4303  -0.4279
    -0.4239  -0.4193  -0.4117  -0.4092  -0.4079  -0.4039  -0.3931  -0.3861
    -0.3785  -0.3728  -0.3564  -0.3486  -0.3477  -0.3381  -0.3331  -0.3293
    -0.2951  -0.2905  -0.2821  -0.2602  -0.2576  -0.2492  -0.2150  -0.2120
    -0.1986  -0.1984  -0.1943  -0.1942  -0.1525  -0.1509  -0.1257  -0.1204
    -0.0903  -0.0865  -0.0658  -0.0634   0.0153   0.0444   0.0622   0.0653
     0.0677   0.0744   0.0923   0.0952   0.0981   0.0992   0.1362   0.1479
     0.2143   0.2414   0.3493   0.3654   0.3659   0.3804   0.3880   0.3955
     0.4229   0.4338   0.4506   0.4536   0.5100   0.5166   0.5325   0.5333
     0.5427   0.5448   0.5652   0.5669   0.5826   0.5850   0.5853   0.5868
     0.5985   0.6063   0.6208   0.6238   0.6861   0.7114   0.7297   0.7329
     0.7366   0.7423   0.7485   0.7550   0.7720   0.7823   0.8150   0.8428
     0.8610   0.8636   0.8697   0.8730   0.8806   0.8813   0.8864   0.8879
     0.8885   0.8949   0.9009   0.9054   0.9137   0.9179   0.9189   0.9211
     0.9286   0.9289   0.9442   0.9471   0.9946   1.0158   1.0263   1.0371
     1.0443   1.0531   1.0592   1.0615   1.0673   1.0755   1.0793   1.0821
     1.0886   1.0945   1.0975   1.0986   1.1120   1.1138   1.1158   1.1189
     1.1229   1.1365   1.1450   1.1495   1.1640   1.1675   1.1799   1.1807
     1.1999   1.2047   1.2224   1.2347   1.2381   1.2443   1.2513   1.2595
     1.2841   1.2853   1.2890   1.3058   1.3227   1.3231   1.3263   1.3325
     1.3347   1.3413   1.3424   1.3435   1.3495   1.3524   1.3547   1.3636
     1.3665   1.3668   1.3735   1.3773   1.3773   1.3829   1.3924   1.3930
     1.4278   1.4530   1.4682   1.4708   1.5334   1.5475   1.5809   1.5870
     1.6105   1.6267   1.6454   1.6487   1.7477   1.7480   1.7597   1.7760
     1.7820   1.7854   1.8280   1.8379   1.8437   1.8454   1.8554   1.8603
     1.8882   1.8896   1.9115   1.9169   1.9238   1.9295   2.0186   2.0245
     2.0379   2.0452   2.0672   2.0795   2.1090   2.1228   2.1286   2.1334
     2.1564   2.1593   2.1654   2.1694   2.2008   2.2014   2.5058   2.5151
     2.6589   2.6592   3.1596   3.1605   3.1834   3.1864   3.8050   3.8092
     3.8437   3.8470   3.9289   3.9724   3.9974   4.0372

          k = 0.2500-0.0884 0.0000 (128371 PWs)   bands (ev):

   -85.9681 -85.9655 -85.9473 -85.9380 -85.9324 -85.9270 -85.9253 -85.9233
   -85.9231 -85.9186 -85.9180 -85.9139 -85.9137 -85.9123 -85.9115 -85.9102
   -85.9061 -85.9049 -85.9047 -85.9037 -85.8969 -85.8966 -85.8939 -85.8872
   -85.8839 -85.8809 -85.8762 -85.8720 -85.8623 -85.8599 -85.8507 -85.8492
   -85.8120 -85.7997 -85.7939 -85.7897 -85.7843 -85.7823 -85.7769 -85.7751
   -85.7724 -85.7712 -85.7693 -85.7675 -85.7667 -85.7642 -85.7634 -85.7631
   -85.7581 -85.7562 -85.7542 -85.7503 -85.7495 -85.7472 -85.7453 -85.7448
   -85.7414 -85.7395 -85.7375 -85.7310 -85.7255 -85.7217 -85.7166 -85.7097
   -52.1557 -52.1530 -52.1382 -52.1259 -52.1196 -52.1159 -52.1134 -52.1111
   -52.1097 -52.1052 -52.1050 -52.1036 -52.1030 -52.0997 -52.0967 -52.0955
   -52.0942 -52.0931 -52.0919 -52.0902 -52.0875 -52.0844 -52.0815 -52.0773
   -52.0753 -52.0713 -52.0675 -52.0657 -52.0633 -52.0598 -52.0585 -52.0571
   -52.0542 -52.0513 -52.0490 -52.0443 -52.0430 -52.0398 -52.0336 -52.0321
   -52.0291 -52.0276 -52.0233 -52.0195 -52.0175 -52.0116 -51.9894 -51.9868
   -51.9793 -51.9746 -51.9726 -51.9673 -51.9659 -51.9614 -51.9575 -51.9536
   -51.9519 -51.9501 -51.9483 -51.9469 -51.9447 -51.9415 -51.9400 -51.9381
   -51.9361 -51.9350 -51.9343 -51.9308 -51.9279 -51.9242 -51.9228 -51.9216
   -51.9215 -51.9190 -51.9169 -51.9161 -51.9133 -51.9093 -51.9028 -51.9001
   -51.8960 -51.8959 -51.8955 -51.8905 -51.8888 -51.8844 -51.8832 -51.8786
   -51.8771 -51.8718 -51.8714 -51.8690 -51.8681 -51.8665 -51.8637 -51.8623
   -51.8617 -51.8565 -51.8552 -51.8535 -51.8523 -51.8487 -51.8476 -51.8430
   -51.8392 -51.8374 -51.8369 -51.8330 -51.8312 -51.8301 -51.8275 -51.8265
   -51.8249 -51.8244 -51.8224 -51.8176 -51.8161 -51.8154 -51.8143 -51.8132
   -51.8090 -51.8072 -51.8024 -51.8011 -51.7969 -51.7960 -51.7948 -51.7940
   -51.7921 -51.7898 -51.7882 -51.7876 -51.7838 -51.7804 -51.7797 -51.7778
   -51.7753 -51.7739 -51.7718 -51.7685 -51.7672 -51.7665 -51.7617 -51.7584
   -51.7569 -51.7552 -51.7535 -51.7508 -51.7499 -51.7493 -51.7455 -51.7377
   -51.7348 -51.7336 -51.7303 -51.7296 -51.7279 -51.7257 -51.7237 -51.7218
   -51.7203 -51.7169 -51.7116 -51.7107 -51.7090 -51.7080 -51.7051 -51.7014
   -51.6987 -51.6966 -51.6942 -51.6912 -51.6882 -51.6842 -51.6839 -51.6817
   -51.6791 -51.6759 -51.6735 -51.6707 -51.6679 -51.6666 -51.6656 -51.6646
   -51.6624 -51.6601 -51.6589 -51.6577 -51.6557 -51.6523 -51.6469 -51.6433
    -5.6053  -4.7245  -4.3799  -4.1865  -3.9282  -3.7157  -3.5827  -3.3190
    -3.1530  -3.1044  -2.9956  -2.8994  -2.8006  -2.7115  -2.6512  -2.5486
    -2.4589  -2.4111  -2.3600  -2.3358  -2.3296  -2.3114  -2.3036  -2.2785
    -2.2640  -2.1296  -2.0519  -2.0244  -1.9967  -1.9823  -1.9652  -1.9491
    -1.9442  -1.9355  -1.9301  -1.9148  -1.9093  -1.8871  -1.8844  -1.8701
    -1.8426  -1.8345  -1.8168  -1.8033  -1.7993  -1.7837  -1.7617  -1.7558
    -1.7380  -1.7150  -1.6924  -1.6822  -1.6678  -1.6601  -1.6507  -1.6477
    -1.6188  -1.5308  -1.5041  -1.4879  -1.4804  -1.4566  -1.4385  -1.3578
    -1.3260  -1.2932  -1.2505  -1.2324  -1.1879  -1.1775  -1.1429  -1.0906
    -1.0832  -1.0750  -1.0665  -1.0554  -1.0476  -1.0391  -1.0266  -1.0251
    -1.0170  -1.0105  -1.0077  -1.0024  -0.9825  -0.9752  -0.9722  -0.9661
    -0.9628  -0.9541  -0.9450  -0.9369  -0.9283  -0.9272  -0.9255  -0.9156
    -0.9130  -0.9095  -0.9049  -0.8941  -0.8710  -0.8404  -0.8298  -0.8245
    -0.8144  -0.8080  -0.7959  -0.7795  -0.7631  -0.7600  -0.7477  -0.7467
    -0.6704  -0.6636  -0.6469  -0.6148  -0.5911  -0.5833  -0.5711  -0.5646
    -0.5500  -0.4848  -0.4793  -0.4777  -0.4616  -0.4546  -0.4446  -0.4380
    -0.4325  -0.4273  -0.4201  -0.4139  -0.4025  -0.3853  -0.3673  -0.3633
    -0.3609  -0.3557  -0.3269  -0.3193  -0.3075  -0.2801  -0.2712  -0.2412
    -0.2383  -0.2194  -0.2071  -0.1991  -0.1861  -0.1817  -0.1743  -0.1651
    -0.1593  -0.1535  -0.1425  -0.1394  -0.1369  -0.1303  -0.1124  -0.1027
    -0.0959  -0.0863  -0.0669  -0.0501  -0.0274  -0.0040   0.0084   0.0309
     0.0400   0.0507   0.0597   0.0768   0.0888   0.0943   0.1000   0.1142
     0.1188   0.1616   0.1685   0.2088   0.2215   0.2252   0.2458   0.2772
     0.3005   0.3043   0.3239   0.3899   0.4958   0.5019   0.5096   0.5476
     0.5527   0.5781   0.5870   0.6105   0.6246   0.6389   0.6459   0.6627
     0.6651   0.6798   0.6933   0.6949   0.7004   0.7058   0.7143   0.7217
     0.7492   0.7593   0.7848   0.8011   0.8135   0.8269   0.8346   0.8411
     0.8486   0.8508   0.8546   0.8664   0.8770   0.8825   0.8879   0.8895
     0.9003   0.9096   0.9311   0.9400   0.9547   0.9614   0.9677   0.9813
     0.9832   0.9866   0.9996   1.0007   1.0086   1.0098   1.0158   1.0227
     1.0306   1.0321   1.0372   1.0428   1.0464   1.0515   1.0607   1.0737
     1.0840   1.0881   1.0967   1.1024   1.1034   1.1074   1.1109   1.1125
     1.1182   1.1307   1.1310   1.1339   1.1386   1.1514   1.1569   1.1646
     1.1679   1.1759   1.1807   1.1832   1.1893   1.1912   1.1945   1.2025
     1.2073   1.2282   1.2287   1.2394   1.2469   1.2523   1.2584   1.2765
     1.3036   1.3087   1.3237   1.3340   1.3432   1.3461   1.3521   1.3600
     1.3653   1.3751   1.3788   1.3873   1.3885   1.3989   1.4100   1.4392
     1.4515   1.4585   1.4672   1.4690   1.4768   1.4876   1.4994   1.5021
     1.5110   1.5125   1.5252   1.5417   1.5567   1.6157   1.6482   1.6528
     1.6615   1.8562   1.8804   1.8905   1.9057   1.9205   1.9331   1.9521
     1.9605   1.9655   1.9775   2.0343   2.0426   2.0563   2.0669   2.0712
     2.0876   2.0952   2.1100   2.1284   2.1347   2.1504   2.1693   2.1776
     2.2025   2.2587   2.2862   2.3265   2.3926   2.4324   2.6262   2.6927
     2.9097   3.0730   3.0791   3.1918   3.3394   3.3442   3.4894   3.5068
     3.6041   3.6392   3.7015   3.8434   3.8720   4.0695

          k = 0.2500 0.1768 0.0000 (128340 PWs)   bands (ev):

   -85.9680 -85.9656 -85.9464 -85.9361 -85.9357 -85.9305 -85.9236 -85.9230
   -85.9226 -85.9172 -85.9164 -85.9141 -85.9125 -85.9124 -85.9120 -85.9096
   -85.9077 -85.9075 -85.9052 -85.9034 -85.8965 -85.8941 -85.8939 -85.8883
   -85.8840 -85.8803 -85.8763 -85.8721 -85.8613 -85.8612 -85.8499 -85.8498
   -85.8113 -85.7996 -85.7956 -85.7880 -85.7874 -85.7826 -85.7766 -85.7722
   -85.7718 -85.7698 -85.7690 -85.7670 -85.7669 -85.7654 -85.7639 -85.7631
   -85.7581 -85.7562 -85.7559 -85.7506 -85.7504 -85.7455 -85.7452 -85.7446
   -85.7414 -85.7403 -85.7379 -85.7313 -85.7241 -85.7210 -85.7170 -85.7103
   -52.1556 -52.1531 -52.1377 -52.1225 -52.1223 -52.1206 -52.1118 -52.1106
   -52.1092 -52.1040 -52.1035 -52.1031 -52.1000 -52.0981 -52.0972 -52.0968
   -52.0963 -52.0953 -52.0940 -52.0910 -52.0870 -52.0816 -52.0808 -52.0779
   -52.0762 -52.0721 -52.0647 -52.0641 -52.0596 -52.0588 -52.0564 -52.0530
   -52.0521 -52.0470 -52.0440 -52.0438 -52.0407 -52.0338 -52.0272 -52.0271
   -52.0241 -52.0238 -52.0203 -52.0192 -52.0160 -52.0124 -51.9876 -51.9863
   -51.9824 -51.9820 -51.9804 -51.9793 -51.9769 -51.9710 -51.9690 -51.9681
   -51.9640 -51.9602 -51.9525 -51.9478 -51.9461 -51.9429 -51.9415 -51.9391
   -51.9360 -51.9359 -51.9341 -51.9326 -51.9317 -51.9299 -51.9244 -51.9239
   -51.9236 -51.9190 -51.9160 -51.9150 -51.9071 -51.9042 -51.9030 -51.8992
   -51.8965 -51.8944 -51.8893 -51.8889 -51.8881 -51.8854 -51.8852 -51.8809
   -51.8795 -51.8760 -51.8710 -51.8667 -51.8662 -51.8640 -51.8639 -51.8564
   -51.8559 -51.8543 -51.8533 -51.8520 -51.8514 -51.8479 -51.8478 -51.8446
   -51.8422 -51.8403 -51.8385 -51.8364 -51.8341 -51.8324 -51.8312 -51.8281
   -51.8277 -51.8221 -51.8200 -51.8178 -51.8149 -51.8134 -51.8092 -51.8075
   -51.8049 -51.8049 -51.7994 -51.7983 -51.7977 -51.7973 -51.7944 -51.7930
   -51.7915 -51.7901 -51.7839 -51.7824 -51.7813 -51.7805 -51.7783 -51.7781
   -51.7724 -51.7699 -51.7665 -51.7621 -51.7614 -51.7608 -51.7587 -51.7576
   -51.7576 -51.7558 -51.7557 -51.7493 -51.7485 -51.7460 -51.7453 -51.7413
   -51.7391 -51.7352 -51.7295 -51.7293 -51.7285 -51.7208 -51.7194 -51.7180
   -51.7143 -51.7111 -51.7108 -51.7101 -51.7083 -51.7059 -51.7011 -51.7009
   -51.6994 -51.6983 -51.6976 -51.6925 -51.6855 -51.6844 -51.6834 -51.6812
   -51.6793 -51.6788 -51.6752 -51.6740 -51.6724 -51.6695 -51.6678 -51.6670
   -51.6646 -51.6640 -51.6629 -51.6604 -51.6602 -51.6563 -51.6499 -51.6452
    -5.5660  -4.4199  -4.4151  -4.4047  -4.3430  -3.4661  -3.4591  -3.3126
    -3.3016  -3.2884  -2.9688  -2.8310  -2.7024  -2.6910  -2.5306  -2.3842
    -2.3782  -2.3747  -2.3418  -2.3364  -2.2684  -2.2527  -2.2472  -2.2465
    -2.1544  -2.1536  -2.1423  -2.1299  -2.0551  -2.0430  -2.0176  -2.0105
    -1.9379  -1.9244  -1.9156  -1.8990  -1.8888  -1.8796  -1.8762  -1.8695
    -1.8581  -1.8520  -1.8515  -1.8472  -1.8457  -1.8362  -1.8349  -1.7750
    -1.7681  -1.7578  -1.7568  -1.6942  -1.6838  -1.6754  -1.6706  -1.6211
    -1.5103  -1.5043  -1.4894  -1.4738  -1.4122  -1.3935  -1.3801  -1.3785
    -1.3726  -1.3517  -1.3458  -1.2189  -1.2058  -1.1705  -1.1624  -1.1057
    -1.0990  -1.0874  -1.0814  -1.0812  -1.0780  -1.0734  -1.0643  -1.0636
    -1.0557  -1.0523  -1.0455  -1.0441  -1.0382  -1.0329  -1.0012  -0.9968
    -0.9358  -0.9350  -0.9344  -0.9268  -0.9179  -0.8839  -0.8716  -0.8686
    -0.8665  -0.8592  -0.8538  -0.8482  -0.8367  -0.8342  -0.8132  -0.7977
    -0.7683  -0.7540  -0.7266  -0.7212  -0.7208  -0.6970  -0.6804  -0.6711
    -0.6635  -0.6633  -0.6575  -0.6456  -0.6408  -0.6388  -0.6305  -0.6272
    -0.6227  -0.5581  -0.5527  -0.5361  -0.5329  -0.4651  -0.4600  -0.4574
    -0.4514  -0.4478  -0.4389  -0.4256  -0.4199  -0.3868  -0.3842  -0.3660
    -0.3637  -0.3550  -0.3438  -0.3405  -0.3338  -0.3042  -0.3019  -0.2915
    -0.2913  -0.2785  -0.2551  -0.2214  -0.1980  -0.1780  -0.1733  -0.1685
    -0.1592  -0.1519  -0.1484  -0.1458  -0.1397  -0.0735  -0.0574  -0.0542
    -0.0472  -0.0460  -0.0416  -0.0364  -0.0335  -0.0299  -0.0200  -0.0126
    -0.0091  -0.0018   0.0036   0.0059   0.0094   0.0313   0.0512   0.0553
     0.1185   0.1256   0.2450   0.2689   0.2968   0.3076   0.3090   0.3210
     0.3447   0.3842   0.4449   0.4698   0.4763   0.5109   0.5470   0.5507
     0.5520   0.5591   0.5795   0.5860   0.6294   0.6304   0.6500   0.6511
     0.6668   0.6676   0.6802   0.6823   0.7261   0.7349   0.7403   0.7524
     0.7534   0.7656   0.7766   0.7767   0.7852   0.7879   0.7985   0.8083
     0.8280   0.8309   0.8610   0.8901   0.8927   0.8950   0.9017   0.9073
     0.9111   0.9192   0.9194   0.9282   0.9446   0.9536   0.9563   0.9677
     0.9862   0.9899   0.9932   1.0028   1.0071   1.0157   1.0227   1.0283
     1.0292   1.0366   1.0392   1.0597   1.0613   1.0755   1.0858   1.0861
     1.0916   1.0918   1.1063   1.1270   1.1337   1.1389   1.1551   1.1582
     1.1608   1.1628   1.1652   1.1680   1.1832   1.1848   1.2009   1.2098
     1.2176   1.2233   1.2263   1.2335   1.2391   1.2409   1.2415   1.2512
     1.2518   1.2578   1.2681   1.2776   1.2813   1.2900   1.2920   1.3125
     1.3200   1.3216   1.3222   1.3252   1.3289   1.3319   1.3452   1.3524
     1.3551   1.3677   1.3689   1.3754   1.3931   1.4011   1.4099   1.4223
     1.4392   1.4418   1.4715   1.4818   1.4866   1.5052   1.5093   1.5247
     1.5515   1.5548   1.5670   1.5685   1.6170   1.6518   1.6567   1.6743
     1.6827   1.8101   1.8201   1.8498   1.9080   1.9262   1.9396   1.9920
     2.0079   2.0092   2.0166   2.0705   2.0706   2.0799   2.0919   2.1015
     2.1046   2.1075   2.1155   2.1211   2.1872   2.1899   2.1975   2.2082
     2.2890   2.2957   2.4027   2.4952   2.5053   2.5096   2.5138   2.7606
     2.9310   2.9436   3.0749   3.0810   3.1116   3.1740   3.1769   3.2081
     3.2098   3.2589   3.2719   3.5324   3.5456   3.7748

          k = 0.2500-0.6187 0.0000 (128424 PWs)   bands (ev):

   -85.9679 -85.9656 -85.9433 -85.9413 -85.9350 -85.9317 -85.9220 -85.9214
   -85.9199 -85.9184 -85.9165 -85.9155 -85.9144 -85.9118 -85.9111 -85.9102
   -85.9089 -85.9082 -85.9056 -85.9003 -85.8962 -85.8957 -85.8925 -85.8892
   -85.8839 -85.8805 -85.8757 -85.8723 -85.8625 -85.8601 -85.8508 -85.8492
   -85.8094 -85.8028 -85.7967 -85.7876 -85.7851 -85.7806 -85.7764 -85.7740
   -85.7728 -85.7710 -85.7690 -85.7681 -85.7663 -85.7639 -85.7636 -85.7624
   -85.7598 -85.7571 -85.7534 -85.7513 -85.7498 -85.7464 -85.7447 -85.7434
   -85.7409 -85.7404 -85.7397 -85.7322 -85.7235 -85.7205 -85.7158 -85.7115
   -52.1548 -52.1533 -52.1342 -52.1294 -52.1259 -52.1167 -52.1101 -52.1094
   -52.1075 -52.1053 -52.1038 -52.1028 -52.1009 -52.1000 -52.0986 -52.0959
   -52.0954 -52.0947 -52.0938 -52.0886 -52.0869 -52.0825 -52.0800 -52.0768
   -52.0764 -52.0714 -52.0641 -52.0611 -52.0594 -52.0575 -52.0504 -52.0461
   -52.0421 -52.0401 -52.0393 -52.0385 -52.0372 -52.0349 -52.0309 -52.0247
   -52.0232 -52.0198 -52.0175 -52.0148 -52.0120 -52.0025 -52.0008 -51.9991
   -51.9964 -51.9942 -51.9933 -51.9867 -51.9841 -51.9796 -51.9718 -51.9672
   -51.9661 -51.9643 -51.9547 -51.9515 -51.9495 -51.9458 -51.9411 -51.9397
   -51.9377 -51.9366 -51.9345 -51.9278 -51.9250 -51.9215 -51.9208 -51.9191
   -51.9183 -51.9168 -51.9160 -51.9155 -51.9139 -51.9104 -51.9097 -51.9056
   -51.9034 -51.8998 -51.8967 -51.8940 -51.8922 -51.8898 -51.8865 -51.8850
   -51.8828 -51.8815 -51.8772 -51.8752 -51.8720 -51.8631 -51.8610 -51.8589
   -51.8559 -51.8541 -51.8498 -51.8463 -51.8451 -51.8405 -51.8389 -51.8388
   -51.8367 -51.8339 -51.8319 -51.8311 -51.8280 -51.8265 -51.8256 -51.8244
   -51.8233 -51.8222 -51.8156 -51.8149 -51.8139 -51.8109 -51.8099 -51.8081
   -51.8067 -51.8055 -51.8043 -51.8038 -51.8034 -51.7989 -51.7984 -51.7937
   -51.7931 -51.7878 -51.7846 -51.7807 -51.7803 -51.7747 -51.7740 -51.7710
   -51.7697 -51.7677 -51.7666 -51.7657 -51.7609 -51.7603 -51.7577 -51.7567
   -51.7561 -51.7552 -51.7524 -51.7487 -51.7463 -51.7422 -51.7398 -51.7391
   -51.7374 -51.7346 -51.7327 -51.7301 -51.7275 -51.7251 -51.7241 -51.7139
   -51.7108 -51.7088 -51.7062 -51.7020 -51.7016 -51.6997 -51.6989 -51.6976
   -51.6953 -51.6933 -51.6912 -51.6903 -51.6873 -51.6859 -51.6843 -51.6833
   -51.6823 -51.6816 -51.6803 -51.6793 -51.6758 -51.6750 -51.6744 -51.6735
   -51.6709 -51.6704 -51.6650 -51.6641 -51.6630 -51.6579 -51.6516 -51.6481
    -5.2998  -5.0060  -4.7161  -4.0952  -3.9278  -3.8180  -3.5654  -3.4587
    -2.8779  -2.8053  -2.7500  -2.6862  -2.6521  -2.6256  -2.5548  -2.5365
    -2.4672  -2.4445  -2.3696  -2.3535  -2.3480  -2.3200  -2.3007  -2.2208
    -2.2128  -2.1991  -2.1703  -2.1660  -2.1500  -2.1479  -2.1198  -2.0446
    -2.0381  -2.0343  -2.0195  -1.9995  -1.9642  -1.9492  -1.9268  -1.9143
    -1.9088  -1.8924  -1.8705  -1.7956  -1.7812  -1.7515  -1.7439  -1.7189
    -1.6817  -1.6700  -1.6485  -1.6393  -1.5887  -1.5847  -1.5643  -1.5588
    -1.5551  -1.5096  -1.5001  -1.4862  -1.4830  -1.4465  -1.4244  -1.4026
    -1.3881  -1.3769  -1.3689  -1.3600  -1.2923  -1.2664  -1.2365  -1.1864
    -1.1179  -1.1031  -1.0889  -1.0826  -1.0776  -1.0711  -1.0616  -1.0550
    -1.0476  -1.0254  -0.9814  -0.9760  -0.9476  -0.9394  -0.9311  -0.9231
    -0.9094  -0.9038  -0.8813  -0.8738  -0.8682  -0.8617  -0.8599  -0.8557
    -0.8508  -0.8432  -0.8293  -0.8246  -0.8100  -0.7938  -0.7792  -0.7714
    -0.7701  -0.7571  -0.7390  -0.7305  -0.7199  -0.7174  -0.7115  -0.7061
    -0.6759  -0.6682  -0.6451  -0.6248  -0.6218  -0.6149  -0.6078  -0.5988
    -0.5978  -0.5872  -0.5821  -0.5778  -0.5621  -0.5490  -0.5393  -0.5329
    -0.5312  -0.5184  -0.5114  -0.4827  -0.4727  -0.4670  -0.4551  -0.4283
    -0.4157  -0.3293  -0.3047  -0.2957  -0.2943  -0.2862  -0.2781  -0.2690
    -0.2596  -0.2514  -0.2454  -0.2386  -0.2253  -0.2196  -0.2169  -0.2109
    -0.2069  -0.1968  -0.1902  -0.1876  -0.1488  -0.1431  -0.1404  -0.1287
    -0.1218  -0.1116  -0.0600  -0.0379   0.0014   0.0144   0.0345   0.0518
     0.0600   0.1075   0.1195   0.1329   0.1431   0.1486   0.2135   0.2304
     0.2588   0.2777   0.2882   0.2951   0.3392   0.3753   0.3869   0.4028
     0.4154   0.4479   0.4533   0.4590   0.4649   0.4728   0.5021   0.5084
     0.5135   0.5222   0.5338   0.5459   0.5890   0.5988   0.6204   0.6385
     0.6448   0.6648   0.6750   0.6851   0.6902   0.7027   0.7227   0.7271
     0.7426   0.7512   0.7660   0.7676   0.7749   0.7895   0.7954   0.8092
     0.8164   0.8419   0.8461   0.8605   0.8721   0.8831   0.8857   0.8918
     0.8976   0.9024   0.9060   0.9151   0.9232   0.9284   0.9353   0.9462
     0.9489   0.9711   0.9904   0.9981   1.0060   1.0135   1.0247   1.0323
     1.0392   1.0486   1.0517   1.0639   1.0663   1.0702   1.0778   1.0875
     1.1071   1.1153   1.1179   1.1225   1.1331   1.1350   1.1381   1.1459
     1.1687   1.1737   1.1781   1.1810   1.1936   1.2005   1.2128   1.2140
     1.2163   1.2227   1.2307   1.2331   1.2398   1.2486   1.2661   1.2716
     1.2735   1.2807   1.2897   1.2910   1.2991   1.3094   1.3111   1.3177
     1.3249   1.3298   1.3322   1.3383   1.3410   1.3538   1.3675   1.3916
     1.3986   1.4093   1.4183   1.4305   1.4440   1.4476   1.4523   1.4780
     1.4952   1.5202   1.5356   1.5637   1.5803   1.5905   1.6014   1.6064
     1.6393   1.6727   1.6800   1.7144   1.7337   1.7437   1.7500   1.7647
     1.7815   1.8220   1.8299   1.8334   1.8437   1.8483   1.8782   1.9072
     1.9147   1.9216   1.9578   1.9714   1.9787   1.9871   2.0208   2.0485
     2.0493   2.0595   2.0720   2.0838   2.0949   2.1051   2.1307   2.1452
     2.1588   2.1741   2.1865   2.2059   2.3370   2.3458   2.4858   2.5567
     2.6230   2.7105   2.8304   2.9715   3.0190   3.0295   3.1004   3.1967
     3.4573   3.4922   3.6830   3.7913   3.8046   3.8805

          k = 0.2500-0.3536 0.0000 (128397 PWs)   bands (ev):

   -85.9680 -85.9656 -85.9456 -85.9382 -85.9371 -85.9267 -85.9226 -85.9224
   -85.9205 -85.9202 -85.9174 -85.9157 -85.9133 -85.9130 -85.9120 -85.9116
   -85.9061 -85.9054 -85.9053 -85.9011 -85.8964 -85.8954 -85.8951 -85.8877
   -85.8839 -85.8810 -85.8756 -85.8722 -85.8628 -85.8594 -85.8511 -85.8489
   -85.8107 -85.8011 -85.7978 -85.7846 -85.7836 -85.7817 -85.7775 -85.7756
   -85.7738 -85.7724 -85.7685 -85.7683 -85.7657 -85.7638 -85.7636 -85.7636
   -85.7574 -85.7574 -85.7525 -85.7509 -85.7489 -85.7478 -85.7454 -85.7429
   -85.7419 -85.7396 -85.7389 -85.7319 -85.7251 -85.7205 -85.7160 -85.7107
   -52.1550 -52.1532 -52.1354 -52.1283 -52.1265 -52.1127 -52.1110 -52.1100
   -52.1080 -52.1056 -52.1050 -52.1043 -52.1031 -52.1028 -52.0958 -52.0954
   -52.0946 -52.0933 -52.0922 -52.0878 -52.0870 -52.0831 -52.0824 -52.0768
   -52.0750 -52.0704 -52.0648 -52.0646 -52.0583 -52.0573 -52.0565 -52.0532
   -52.0520 -52.0453 -52.0440 -52.0416 -52.0381 -52.0351 -52.0340 -52.0330
   -52.0262 -52.0243 -52.0231 -52.0228 -52.0167 -52.0129 -51.9956 -51.9934
   -51.9810 -51.9798 -51.9773 -51.9732 -51.9649 -51.9638 -51.9597 -51.9595
   -51.9556 -51.9553 -51.9526 -51.9507 -51.9503 -51.9461 -51.9443 -51.9431
   -51.9426 -51.9416 -51.9364 -51.9363 -51.9324 -51.9294 -51.9287 -51.9217
   -51.9211 -51.9169 -51.9154 -51.9114 -51.9087 -51.9072 -51.9026 -51.9023
   -51.8952 -51.8931 -51.8921 -51.8894 -51.8892 -51.8861 -51.8850 -51.8837
   -51.8753 -51.8746 -51.8713 -51.8708 -51.8704 -51.8655 -51.8626 -51.8613
   -51.8608 -51.8604 -51.8571 -51.8538 -51.8518 -51.8439 -51.8430 -51.8418
   -51.8391 -51.8355 -51.8321 -51.8298 -51.8285 -51.8276 -51.8254 -51.8233
   -51.8228 -51.8221 -51.8203 -51.8192 -51.8176 -51.8147 -51.8123 -51.8120
   -51.8109 -51.8107 -51.8028 -51.8024 -51.7974 -51.7959 -51.7950 -51.7943
   -51.7941 -51.7885 -51.7883 -51.7870 -51.7851 -51.7785 -51.7741 -51.7735
   -51.7701 -51.7675 -51.7618 -51.7612 -51.7595 -51.7593 -51.7587 -51.7582
   -51.7552 -51.7531 -51.7530 -51.7508 -51.7483 -51.7469 -51.7457 -51.7421
   -51.7369 -51.7339 -51.7334 -51.7309 -51.7296 -51.7286 -51.7265 -51.7249
   -51.7139 -51.7133 -51.7112 -51.7077 -51.7049 -51.7030 -51.7024 -51.6989
   -51.6979 -51.6943 -51.6924 -51.6911 -51.6865 -51.6857 -51.6829 -51.6819
   -51.6814 -51.6773 -51.6768 -51.6740 -51.6723 -51.6711 -51.6671 -51.6664
   -51.6653 -51.6646 -51.6620 -51.6616 -51.6580 -51.6563 -51.6497 -51.6469
    -5.4142  -4.8336  -4.8182  -4.1979  -3.6743  -3.6667  -3.3338  -3.3248
    -3.3172  -3.0418  -3.0279  -2.8185  -2.4855  -2.4824  -2.4807  -2.4795
    -2.4318  -2.4290  -2.4063  -2.4035  -2.3873  -2.3837  -2.3651  -2.3595
    -2.2474  -2.2370  -2.1989  -2.1918  -2.1765  -2.0626  -2.0516  -2.0177
    -2.0000  -1.9841  -1.9693  -1.9489  -1.9434  -1.9304  -1.9299  -1.9053
    -1.8965  -1.8495  -1.8455  -1.8199  -1.8186  -1.7773  -1.7649  -1.7156
    -1.7081  -1.6956  -1.6268  -1.5730  -1.5675  -1.5582  -1.5549  -1.5361
    -1.5325  -1.5103  -1.5067  -1.5039  -1.4954  -1.4919  -1.4385  -1.4384
    -1.3843  -1.3276  -1.3150  -1.2833  -1.2262  -1.2048  -1.1783  -1.1454
    -1.0992  -1.0962  -1.0785  -1.0649  -1.0467  -1.0402  -1.0341  -1.0284
    -1.0156  -1.0097  -0.9947  -0.9909  -0.9903  -0.9881  -0.9687  -0.9629
    -0.9563  -0.9545  -0.9320  -0.9227  -0.9142  -0.8961  -0.8875  -0.8608
    -0.8537  -0.8507  -0.8501  -0.8447  -0.8219  -0.8119  -0.8005  -0.7961
    -0.7865  -0.7689  -0.7687  -0.7007  -0.6997  -0.6981  -0.6908  -0.6848
    -0.6843  -0.6736  -0.6727  -0.6538  -0.6492  -0.6469  -0.6319  -0.6281
    -0.6146  -0.5857  -0.5807  -0.5210  -0.5194  -0.5046  -0.4821  -0.4262
    -0.4127  -0.4109  -0.3767  -0.3732  -0.3697  -0.3592  -0.3509  -0.3394
    -0.3336  -0.3323  -0.3284  -0.3260  -0.3234  -0.3175  -0.3135  -0.3132
    -0.3046  -0.3035  -0.2991  -0.2686  -0.2681  -0.2669  -0.2640  -0.2425
    -0.2272  -0.2253  -0.2015  -0.1639  -0.1384  -0.1298  -0.1187  -0.0819
    -0.0717  -0.0624  -0.0091  -0.0067   0.0273   0.0359   0.0512   0.0543
     0.0692   0.0751   0.0835   0.1141   0.1545   0.2395   0.2480   0.2500
     0.2578   0.2814   0.2836   0.3192   0.3202   0.3502   0.3888   0.3893
     0.4095   0.4251   0.4288   0.4318   0.4425   0.4453   0.4480   0.4523
     0.4608   0.4720   0.5236   0.5351   0.5961   0.5973   0.6018   0.6179
     0.6213   0.6593   0.6633   0.6801   0.6875   0.6919   0.6992   0.7000
     0.7277   0.7291   0.7520   0.7790   0.8176   0.8195   0.8220   0.8318
     0.8345   0.8386   0.8391   0.8580   0.8617   0.8914   0.9120   0.9157
     0.9182   0.9352   0.9395   0.9423   0.9424   0.9547   0.9805   0.9845
     0.9888   0.9952   0.9960   1.0197   1.0276   1.0299   1.0328   1.0346
     1.0395   1.0524   1.0565   1.0572   1.0635   1.0730   1.0760   1.0827
     1.0993   1.1045   1.1062   1.1124   1.1180   1.1216   1.1247   1.1290
     1.1300   1.1410   1.1462   1.1472   1.1542   1.1591   1.1643   1.1711
     1.1751   1.1808   1.1863   1.1883   1.1969   1.2025   1.2193   1.2226
     1.2269   1.2413   1.2602   1.2641   1.2671   1.2679   1.2724   1.2733
     1.2852   1.2916   1.2967   1.3085   1.3114   1.3213   1.3365   1.3664
     1.3698   1.3871   1.3925   1.3953   1.3962   1.4031   1.4332   1.4397
     1.5087   1.5108   1.5323   1.5355   1.5464   1.5494   1.5694   1.5727
     1.5838   1.5933   1.5951   1.6140   1.6200   1.6437   1.6760   1.6983
     1.7364   1.7376   1.7408   1.7748   1.7789   1.8458   1.8937   1.9217
     1.9321   1.9602   1.9657   1.9775   1.9810   1.9902   2.0050   2.0241
     2.0263   2.0315   2.0486   2.0506   2.0630   2.0651   2.0865   2.0879
     2.1012   2.1149   2.1259   2.5037   2.6370   2.6430   2.7651   2.7664
     2.9345   2.9361   2.9916   2.9981   3.1226   3.1227   3.1298   3.1370
     3.1796   3.6058   3.6101   3.7045   3.7263   3.7971

          k =-0.5000 0.1768 0.0000 (128388 PWs)   bands (ev):

   -85.9680 -85.9656 -85.9441 -85.9428 -85.9299 -85.9296 -85.9246 -85.9223
   -85.9215 -85.9203 -85.9180 -85.9167 -85.9119 -85.9117 -85.9099 -85.9085
   -85.9081 -85.9071 -85.9053 -85.9021 -85.8978 -85.8966 -85.8916 -85.8886
   -85.8838 -85.8810 -85.8756 -85.8724 -85.8613 -85.8612 -85.8500 -85.8498
   -85.8104 -85.8032 -85.7932 -85.7898 -85.7815 -85.7812 -85.7784 -85.7750
   -85.7734 -85.7706 -85.7705 -85.7687 -85.7668 -85.7639 -85.7630 -85.7611
   -85.7586 -85.7558 -85.7555 -85.7504 -85.7485 -85.7477 -85.7446 -85.7444
   -85.7405 -85.7398 -85.7391 -85.7318 -85.7244 -85.7219 -85.7151 -85.7110
   -52.1549 -52.1532 -52.1335 -52.1332 -52.1191 -52.1180 -52.1115 -52.1104
   -52.1079 -52.1066 -52.1051 -52.1042 -52.1012 -52.0996 -52.0959 -52.0953
   -52.0944 -52.0941 -52.0928 -52.0889 -52.0878 -52.0846 -52.0791 -52.0765
   -52.0763 -52.0705 -52.0658 -52.0617 -52.0613 -52.0585 -52.0530 -52.0521
   -52.0488 -52.0472 -52.0461 -52.0449 -52.0412 -52.0392 -52.0344 -52.0328
   -52.0249 -52.0241 -52.0165 -52.0159 -52.0065 -52.0060 -52.0009 -51.9966
   -51.9898 -51.9881 -51.9804 -51.9801 -51.9763 -51.9731 -51.9663 -51.9653
   -51.9533 -51.9486 -51.9467 -51.9443 -51.9436 -51.9414 -51.9408 -51.9373
   -51.9349 -51.9326 -51.9287 -51.9266 -51.9255 -51.9237 -51.9208 -51.9197
   -51.9195 -51.9181 -51.9179 -51.9144 -51.9142 -51.9094 -51.9080 -51.9048
   -51.9041 -51.9008 -51.9000 -51.8976 -51.8972 -51.8920 -51.8919 -51.8910
   -51.8859 -51.8826 -51.8698 -51.8697 -51.8668 -51.8647 -51.8577 -51.8575
   -51.8535 -51.8524 -51.8486 -51.8470 -51.8461 -51.8421 -51.8412 -51.8408
   -51.8321 -51.8317 -51.8304 -51.8302 -51.8290 -51.8281 -51.8265 -51.8258
   -51.8252 -51.8236 -51.8208 -51.8169 -51.8158 -51.8144 -51.8139 -51.8117
   -51.8112 -51.8091 -51.8059 -51.8050 -51.8002 -51.7989 -51.7978 -51.7933
   -51.7926 -51.7872 -51.7858 -51.7847 -51.7836 -51.7824 -51.7774 -51.7751
   -51.7718 -51.7691 -51.7661 -51.7635 -51.7632 -51.7614 -51.7589 -51.7557
   -51.7547 -51.7528 -51.7523 -51.7523 -51.7491 -51.7484 -51.7441 -51.7436
   -51.7370 -51.7357 -51.7324 -51.7310 -51.7287 -51.7261 -51.7238 -51.7186
   -51.7180 -51.7143 -51.7093 -51.7092 -51.7006 -51.7004 -51.6984 -51.6974
   -51.6934 -51.6931 -51.6897 -51.6893 -51.6862 -51.6856 -51.6836 -51.6820
   -51.6806 -51.6793 -51.6787 -51.6766 -51.6738 -51.6735 -51.6721 -51.6720
   -51.6689 -51.6674 -51.6619 -51.6593 -51.6580 -51.6524 -51.6473 -51.6450
    -5.2674  -5.2606  -4.1453  -4.1445  -4.0654  -4.0568  -3.2468  -3.2457
    -3.0930  -3.0928  -2.7364  -2.7342  -2.7096  -2.6993  -2.6046  -2.6006
    -2.4677  -2.4661  -2.4386  -2.4300  -2.3112  -2.3101  -2.2002  -2.2001
    -2.1860  -2.1829  -2.1693  -2.1682  -2.1414  -2.1349  -2.1256  -2.1228
    -2.0419  -2.0342  -1.9769  -1.9722  -1.9720  -1.9547  -1.8180  -1.8159
    -1.8087  -1.8056  -1.7364  -1.7351  -1.7282  -1.7276  -1.7209  -1.7112
    -1.7098  -1.7010  -1.6799  -1.6784  -1.6765  -1.6682  -1.5704  -1.5688
    -1.5672  -1.5570  -1.5518  -1.5399  -1.5267  -1.5102  -1.4385  -1.4359
    -1.3719  -1.3676  -1.3304  -1.3287  -1.2526  -1.2506  -1.1185  -1.1149
    -1.0696  -1.0666  -1.0514  -1.0483  -1.0324  -1.0308  -1.0296  -1.0160
    -1.0044  -1.0015  -0.9997  -0.9932  -0.9848  -0.9775  -0.9704  -0.9590
    -0.9585  -0.9517  -0.9503  -0.9452  -0.9111  -0.9101  -0.8672  -0.8588
    -0.8379  -0.8327  -0.8180  -0.8151  -0.7921  -0.7865  -0.7817  -0.7784
    -0.7686  -0.7615  -0.7597  -0.7553  -0.7500  -0.7471  -0.7381  -0.7339
    -0.6997  -0.6967  -0.6965  -0.6928  -0.6863  -0.6822  -0.5486  -0.5409
    -0.5070  -0.4851  -0.4604  -0.4460  -0.4444  -0.4360  -0.4303  -0.4279
    -0.4239  -0.4193  -0.4117  -0.4092  -0.4079  -0.4039  -0.3931  -0.3861
    -0.3785  -0.3728  -0.3564  -0.3486  -0.3476  -0.3381  -0.3331  -0.3293
    -0.2951  -0.2905  -0.2821  -0.2602  -0.2576  -0.2493  -0.2150  -0.2120
    -0.1986  -0.1984  -0.1944  -0.1942  -0.1525  -0.1509  -0.1258  -0.1204
    -0.0904  -0.0864  -0.0657  -0.0634   0.0152   0.0445   0.0623   0.0652
     0.0677   0.0744   0.0923   0.0952   0.0981   0.0993   0.1362   0.1478
     0.2143   0.2414   0.3493   0.3655   0.3660   0.3804   0.3880   0.3955
     0.4229   0.4338   0.4506   0.4536   0.5100   0.5166   0.5325   0.5333
     0.5426   0.5449   0.5652   0.5669   0.5826   0.5850   0.5853   0.5868
     0.5985   0.6064   0.6208   0.6237   0.6861   0.7114   0.7297   0.7329
     0.7366   0.7423   0.7485   0.7550   0.7720   0.7823   0.8151   0.8428
     0.8611   0.8636   0.8697   0.8730   0.8806   0.8813   0.8863   0.8878
     0.8885   0.8949   0.9009   0.9053   0.9137   0.9179   0.9189   0.9211
     0.9286   0.9289   0.9442   0.9471   0.9947   1.0157   1.0263   1.0371
     1.0443   1.0532   1.0592   1.0615   1.0672   1.0755   1.0793   1.0821
     1.0886   1.0945   1.0975   1.0986   1.1120   1.1138   1.1158   1.1188
     1.1230   1.1365   1.1450   1.1495   1.1640   1.1675   1.1799   1.1807
     1.1999   1.2047   1.2224   1.2347   1.2380   1.2443   1.2513   1.2595
     1.2841   1.2853   1.2890   1.3058   1.3227   1.3231   1.3264   1.3325
     1.3347   1.3413   1.3424   1.3435   1.3495   1.3524   1.3547   1.3636
     1.3666   1.3668   1.3735   1.3773   1.3773   1.3828   1.3924   1.3930
     1.4278   1.4531   1.4682   1.4708   1.5334   1.5475   1.5809   1.5870
     1.6105   1.6266   1.6454   1.6486   1.7477   1.7480   1.7598   1.7760
     1.7819   1.7854   1.8280   1.8379   1.8437   1.8454   1.8554   1.8603
     1.8882   1.8896   1.9114   1.9169   1.9238   1.9295   2.0186   2.0245
     2.0379   2.0452   2.0672   2.0794   2.1090   2.1228   2.1286   2.1334
     2.1564   2.1593   2.1654   2.1694   2.2009   2.2013   2.5058   2.5151
     2.6589   2.6592   3.1596   3.1605   3.1834   3.1863   3.8049   3.8092
[...]
     2.4693   2.4856   2.4943   2.5315   2.5412   2.6247   2.6258   2.7813
     2.8384   2.8435   2.8469   2.8521   2.9089   2.9553   3.0128   3.0346
     3.0558   3.0684   3.1116   3.1231   3.1398   3.1537   3.1855   3.1879
     3.1893   3.1910   3.1929   3.2254   3.2542   3.2559   3.2616   3.3151
     3.3828   3.3971   3.4025   3.4161   3.4327   3.4328   3.4462   3.4489
     3.4531   3.4595   3.4648   3.4692   3.4895   3.4921   3.5314   3.5605
     3.6069   3.6346   3.6434   3.6679   3.6697   3.6756   3.6836   3.6926
     3.7072   3.7299   3.7344   3.7403   3.7548   3.7597   3.7686   3.7732
     3.8045   3.8140   3.8169   3.8301   3.8310   3.8577   3.8591   3.8614
     3.8852   3.9090   3.9217   3.9357   3.9361   3.9446   3.9462   3.9481
     3.9583   3.9588   3.9839   3.9841   3.9872   3.9978   4.0159   4.0214
     4.0239   4.0253   4.0441   4.0580   4.0606   4.0810   4.0814   4.0892
     4.0949   4.0988   4.1011   4.1423   4.1612   4.1627   4.1677   4.1731
     4.1732   4.1898   4.1910   4.1922   4.1960   4.2003   4.2129   4.2143
     4.2265   4.2345   4.2459   4.2643   4.2765   4.2794   4.2925   4.2935
     4.2984   4.3093   4.3104   4.3116   4.3127   4.3157   4.3277   4.3475
     4.3478   4.3552   4.3721   4.3823   4.3880   4.3917   4.3964   4.4032
     4.4296   4.4323   4.4337   4.4750   4.4854   4.4916   4.5092   4.5215
     4.5369   4.5379   4.5409   4.5474   4.5481   4.5573   4.5692   4.5915
     4.6121   4.6199   4.6290   4.6384   4.6396   4.6650   4.6718   4.6991
     4.7903   4.8416   4.9046   4.9085   4.9179   5.0381   5.0895   5.1564
     5.2796   5.3227   5.3399   5.4832   5.5003   5.5260

          k =-0.5000-0.3536 0.0000 (128560 PWs)   bands (ev):

   -82.9383 -82.9382 -82.9300 -82.9299 -82.9038 -82.9037 -82.9036 -82.9036
   -82.8981 -82.8981 -82.8969 -82.8968 -82.8918 -82.8917 -82.8916 -82.8916
   -82.8873 -82.8872 -82.8775 -82.8775 -82.8773 -82.8771 -82.8771 -82.8770
   -82.8750 -82.8750 -82.8749 -82.8748 -82.8533 -82.8533 -82.8532 -82.8532
   -82.8409 -82.8409 -82.8405 -82.8405 -82.8372 -82.8372 -82.8371 -82.8371
   -82.8187 -82.8187 -82.8186 -82.8186 -82.8186 -82.8185 -82.8185 -82.8184
   -82.8153 -82.8152 -82.8152 -82.8152 -82.8149 -82.8148 -82.8148 -82.8148
   -82.7966 -82.7966 -82.7965 -82.7964 -82.7934 -82.7934 -82.7931 -82.7931
   -49.1893 -49.1892 -49.1891 -49.1891 -49.1793 -49.1791 -49.1790 -49.1790
   -49.1768 -49.1768 -49.1726 -49.1724 -49.1713 -49.1712 -49.1643 -49.1642
   -49.1641 -49.1640 -49.1559 -49.1558 -49.1557 -49.1556 -49.1481 -49.1480
   -49.1354 -49.1354 -49.1353 -49.1353 -49.1291 -49.1291 -49.1123 -49.1122
   -49.1074 -49.1074 -49.0988 -49.0987 -49.0987 -49.0986 -49.0971 -49.0971
   -49.0971 -49.0970 -49.0892 -49.0891 -49.0890 -49.0890 -49.0890 -49.0890
   -49.0889 -49.0889 -49.0852 -49.0851 -49.0803 -49.0802 -49.0779 -49.0779
   -49.0753 -49.0753 -49.0734 -49.0733 -49.0733 -49.0733 -49.0377 -49.0377
   -49.0264 -49.0264 -49.0263 -49.0263 -49.0253 -49.0252 -49.0150 -49.0149
   -49.0147 -49.0146 -48.9976 -48.9976 -48.9793 -48.9793 -48.9793 -48.9793
   -48.9789 -48.9788 -48.9783 -48.9782 -48.9685 -48.9685 -48.9685 -48.9685
   -48.9664 -48.9664 -48.9664 -48.9663 -48.9510 -48.9510 -48.9490 -48.9490
   -48.9431 -48.9431 -48.9430 -48.9430 -48.9361 -48.9361 -48.9361 -48.9361
   -48.9360 -48.9360 -48.9254 -48.9253 -48.9253 -48.9252 -48.9216 -48.9216
   -48.9136 -48.9136 -48.9097 -48.9097 -48.9004 -48.9004 -48.8995 -48.8994
   -48.8994 -48.8993 -48.8927 -48.8926 -48.8848 -48.8848 -48.8834 -48.8834
   -48.8771 -48.8771 -48.8750 -48.8750 -48.8702 -48.8701 -48.8701 -48.8701
   -48.8679 -48.8679 -48.8674 -48.8673 -48.8673 -48.8672 -48.8629 -48.8628
   -48.8628 -48.8628 -48.8607 -48.8607 -48.8542 -48.8541 -48.8527 -48.8527
   -48.8503 -48.8503 -48.8477 -48.8477 -48.8451 -48.8450 -48.8448 -48.8448
   -48.8446 -48.8446 -48.8446 -48.8445 -48.8429 -48.8429 -48.8381 -48.8381
   -48.8381 -48.8380 -48.8330 -48.8330 -48.8317 -48.8316 -48.8316 -48.8316
   -48.8314 -48.8314 -48.8314 -48.8313 -48.8215 -48.8214 -48.8168 -48.8167
   -48.8167 -48.8167 -48.8157 -48.8156 -48.8121 -48.8121 -48.8114 -48.8113
    -4.8930  -4.8929  -4.3078  -4.3077  -3.5984  -3.5984  -3.0551  -3.0550
    -2.3049  -2.3049  -2.3048  -2.3047  -1.8937  -1.8935  -1.4556  -1.4555
    -1.4547  -1.4547  -1.4547  -1.4546  -1.3578  -1.3578  -1.3220  -1.3220
    -1.3219  -1.3218  -0.8943  -0.8942  -0.8932  -0.8931  -0.8931  -0.8931
    -0.6832  -0.6832  -0.4243  -0.4242  -0.3901  -0.3900  -0.3899  -0.3897
    -0.3329  -0.3327  -0.2891  -0.2891  -0.2891  -0.2889  -0.1319  -0.1318
    -0.1208  -0.1207  -0.1014  -0.1012   0.1431   0.1434   0.1616   0.1616
     0.1617   0.1617   0.3813   0.3815   0.4319   0.4321   0.4817   0.4818
     0.5887   0.5889   0.6688   0.6688   0.6693   0.6693   0.6788   0.6788
     0.6947   0.6951   0.7026   0.7030   0.8029   0.8029   0.8030   0.8031
     0.8085   0.8087   0.8088   0.8089   0.8155   0.8155   0.8156   0.8157
     1.0285   1.0286   1.0353   1.0354   1.1674   1.1676   1.1678   1.1679
     1.1828   1.1830   1.2311   1.2312   1.2313   1.2314   1.2412   1.2413
     1.2428   1.2430   1.2687   1.2687   1.2689   1.2690   1.3009   1.3009
     1.3011   1.3014   1.3060   1.3060   1.3060   1.3060   1.3105   1.3108
     1.3559   1.3561   1.3562   1.3564   1.4149   1.4150   1.4151   1.4152
     1.4153   1.4153   1.4156   1.4157   1.4190   1.4194   1.4338   1.4342
     1.4931   1.4933   1.6259   1.6261   1.6881   1.6882   1.6883   1.6883
     1.7092   1.7095   1.7475   1.7476   1.7477   1.7478   1.8559   1.8560
     1.8709   1.8709   1.8710   1.8711   1.8745   1.8748   1.9267   1.9270
     1.9345   1.9346   1.9852   1.9854   2.1185   2.1186   2.1294   2.1294
     2.2047   2.2049   2.2078   2.2079   2.2268   2.2270   2.2270   2.2271
     2.2357   2.2358   2.2445   2.2446   2.3243   2.3244   2.3244   2.3244
     2.3492   2.3494   2.5993   2.5994   2.6722   2.6728   2.7148   2.7154
     2.7834   2.7835   2.9642   2.9644   2.9842   2.9844   3.0341   3.0343
     3.1058   3.1060   3.1437   3.1438   3.1441   3.1443   3.2221   3.2224
     3.2234   3.2234   3.2663   3.2663   3.2775   3.2777   3.3803   3.3804
     3.3831   3.3832   3.3835   3.3836   3.4833   3.4833   3.4836   3.4836
     3.4866   3.4868   3.4868   3.4869   3.5112   3.5117   3.5125   3.5126
     3.5870   3.5871   3.5871   3.5872   3.6543   3.6543   3.6545   3.6548
     3.6899   3.6900   3.7331   3.7331   3.7848   3.7851   3.8415   3.8416
     3.9221   3.9222   3.9258   3.9259   3.9260   3.9261   3.9285   3.9288
     3.9452   3.9452   3.9716   3.9716   3.9836   3.9837   3.9839   3.9840
     3.9885   3.9885   3.9886   3.9886   4.0137   4.0138   4.0629   4.0630
     4.0633   4.0634   4.0650   4.0653   4.0864   4.0867   4.0897   4.0904
     4.0940   4.0943   4.1251   4.1252   4.1382   4.1383   4.1589   4.1589
     4.1590   4.1590   4.1715   4.1716   4.1741   4.1742   4.1743   4.1744
     4.2145   4.2146   4.2803   4.2803   4.2956   4.2957   4.3170   4.3174
     4.3271   4.3272   4.3605   4.3605   4.3606   4.3607   4.3615   4.3615
     4.3615   4.3616   4.3759   4.3760   4.3794   4.3795   4.3795   4.3796
     4.3868   4.3870   4.4338   4.4339   4.4411   4.4412   4.4412   4.4414
     4.4553   4.4554   4.4637   4.4640   4.4640   4.4641   4.5541   4.5543
     4.5581   4.5581   4.5582   4.5584   4.7537   4.7538   4.7707   4.7707
     4.9833   4.9833   4.9833   4.9834   5.0549   5.0550   5.0553   5.0553
     5.0724   5.0724   5.0724   5.0725   5.0941   5.0944

     the Fermi energy is     2.2152 ev

!    total energy              =  -21072.22071562 Ry
     Harris-Foulkes estimate   =  -21072.22071543 Ry
     estimated scf accuracy    <          9.7E-11 Ry

     total all-electron energy =   -162915.198988 Ry

     The total energy is the sum of the following terms:

     one-electron contribution = -166986.81197382 Ry
     hartree contribution      =   83571.17064617 Ry
     xc contribution           =   -2228.22947536 Ry
     ewald contribution        =   69446.44675313 Ry
     Dispersion Correction     =      -1.37062179 Ry
     one-center paw contrib.   =   -4873.42576822 Ry
     smearing contrib. (-TS)   =      -0.00027572 Ry

     total magnetization       =   162.92 Bohr mag/cell
     absolute magnetization    =   169.21 Bohr mag/cell

     convergence has been achieved in   9 iterations

     negative rho (up, down):  2.539E-02 1.697E-02

     Forces acting on atoms (cartesian axes, Ry/au):

     atom    1 type  1   force =     0.00000908    0.00000959    0.00937455
     atom    2 type  1   force =    -0.00000725    0.00003075   -0.00939763
     atom    3 type  1   force =    -0.00000156   -0.00000619    0.00948496
     atom    4 type  1   force =    -0.00001431   -0.00002606   -0.00944645
     atom    5 type  1   force =    -0.00006157    0.00002763    0.00000254
     atom    6 type  1   force =    -0.00000221   -0.00001131   -0.00005525
     atom    7 type  1   force =    -0.00002124    0.00002760   -0.00003070
     atom    8 type  1   force =     0.00003664   -0.00003163   -0.00001533
     atom    9 type  1   force =    -0.00001569    0.00002368    0.00945683
     atom   10 type  1   force =     0.00001665   -0.00001804    0.00945827
     atom   11 type  1   force =    -0.00000433   -0.00006656   -0.00937909
     atom   12 type  1   force =    -0.00007783    0.00005589   -0.00943631
     atom   13 type  1   force =    -0.00000012   -0.00001618    0.00007046
     atom   14 type  1   force =    -0.00001548   -0.00001182   -0.00002029
     atom   15 type  1   force =    -0.00001105   -0.00001429    0.00001830
     atom   16 type  1   force =    -0.00008838   -0.00006737   -0.00003450
     atom   17 type  1   force =     0.00000362   -0.00001510    0.00942458
     atom   18 type  1   force =    -0.00001102    0.00004188   -0.00944596
     atom   19 type  1   force =     0.00001446   -0.00000789    0.00942370
     atom   20 type  1   force =     0.00010392   -0.00012684   -0.00937261
     atom   21 type  1   force =     0.00002476   -0.00003864   -0.00003059
     atom   22 type  1   force =    -0.00000320    0.00002407   -0.00002084
     atom   23 type  1   force =     0.00001632   -0.00004035   -0.00003004
     atom   24 type  1   force =    -0.00002450    0.00002126    0.00008170
     atom   25 type  1   force =     0.00001596   -0.00002090    0.00949859
     atom   26 type  1   force =     0.00000778   -0.00000841    0.00936881
     atom   27 type  1   force =     0.00004571   -0.00005064   -0.00937223
     atom   28 type  1   force =     0.00008234   -0.00000380   -0.00937528
     atom   29 type  1   force =     0.00000306   -0.00000943   -0.00001018
     atom   30 type  1   force =     0.00002796   -0.00004923   -0.00014869
     atom   31 type  1   force =     0.00002628    0.00000599   -0.00013682
     atom   32 type  1   force =     0.00000296   -0.00000351    0.00001691
     atom   33 type  1   force =    -0.00001163    0.00001752    0.00941954
     atom   34 type  1   force =    -0.00001363    0.00003718   -0.00944730
     atom   35 type  1   force =    -0.00001089    0.00001937    0.00941880
     atom   36 type  1   force =    -0.00007293    0.00012317   -0.00937929
     atom   37 type  1   force =     0.00006536   -0.00003981   -0.00000386
     atom   38 type  1   force =    -0.00003569    0.00000280   -0.00002273
     atom   39 type  1   force =     0.00000861   -0.00008114   -0.00000469
     atom   40 type  1   force =    -0.00000529   -0.00000579   -0.00005937
     atom   41 type  1   force =    -0.00001050    0.00001679    0.00938480
     atom   42 type  1   force =    -0.00001318    0.00002183    0.00949693
     atom   43 type  1   force =    -0.00000862    0.00010505   -0.00943530
     atom   44 type  1   force =    -0.00004001    0.00006996   -0.00937250
     atom   45 type  1   force =    -0.00000469   -0.00000449    0.00003417
     atom   46 type  1   force =    -0.00003528    0.00004229   -0.00013966
     atom   47 type  1   force =     0.00007936    0.00005078   -0.00003392
     atom   48 type  1   force =     0.00001234   -0.00000358    0.00003005
     atom   49 type  1   force =     0.00000994    0.00000124    0.00948703
     atom   50 type  1   force =    -0.00001340    0.00003913   -0.00936666
     atom   51 type  1   force =    -0.00000880   -0.00000443    0.00937644
     atom   52 type  1   force =     0.00004835    0.00001927   -0.00944349
     atom   53 type  1   force =    -0.00002719    0.00001959   -0.00003010
     atom   54 type  1   force =     0.00002651   -0.00005131    0.00006700
     atom   55 type  1   force =    -0.00001164    0.00006088    0.00000173
     atom   56 type  1   force =     0.00000583   -0.00005431   -0.00001514
     atom   57 type  1   force =    -0.00001462    0.00002418    0.00945466
     atom   58 type  1   force =     0.00001402   -0.00002130    0.00945763
     atom   59 type  1   force =    -0.00003484    0.00007818   -0.00937293
     atom   60 type  1   force =     0.00005352   -0.00004603   -0.00937427
     atom   61 type  1   force =     0.00000557   -0.00000980    0.00007124
     atom   62 type  1   force =     0.00000736    0.00000468   -0.00001717
     atom   63 type  1   force =    -0.00001322   -0.00002180    0.00002904
     atom   64 type  1   force =    -0.00002846   -0.00003426   -0.00013212

     Total force =     0.000434     Total SCF correction =     0.000035

     bfgs converged in  23 scf cycles and  22 bfgs steps
     (criteria: energy <  7.3E-07 Ry, force <  3.9E-04 Ry/Bohr)

     End of BFGS Geometry Optimization

     Final energy   =  -21072.2207156183 Ry
Begin final coordinates

ATOMIC_POSITIONS (angstrom)
Fe       1.654912953   1.170200133   0.000000000    0   0   0
Fe       0.000000000   0.000000000   2.026984232    0   0   0
Fe       4.964738858   3.510600399   0.000000000    0   0   0
Fe       3.309825906   2.340400266   2.026984232    0   0   0
Fe       1.655131513   1.170255800   4.026893789
Fe       3.310185890   9.361715274   6.004812258
Fe       4.964954072   3.510645742   4.026864800
Fe       3.309968878   2.341373774   6.004558667
Fe       2.482363858   3.510600399   0.000000000    0   0   0
Fe       4.137287953   1.170200133   0.000000000    0   0   0
Fe       0.827450906   2.340400266   2.026984232    0   0   0
Fe       2.482375000   0.000000000   2.026984232    0   0   0
Fe       2.482431022   3.510784594   4.026382395
Fe       4.137423723   1.170575205   4.026844020
Fe       0.827793995   2.340671494   6.004582483
Fe       2.483081194   0.000914643   6.004972519
Fe       6.619662953   1.170200133   0.000000000    0   0   0
Fe       4.964750000   0.000000000   2.026984232    0   0   0
Fe       9.929488858   3.510600399   0.000000000    0   0   0
Fe       8.274575906   2.340400266   2.026984232    0   0   0
Fe       6.619907777   1.170455049   4.027049583
Fe       4.965211570   0.000234207   6.004131526
Fe       9.929608704   3.510738088   4.027034307
Fe       8.275000021   2.340478798   6.004316858
Fe       7.447113858   3.510600399   0.000000000    0   0   0
Fe       9.102037953   1.170200133   0.000000000    0   0   0
Fe       5.792200906   2.340400266   2.026984232    0   0   0
Fe       7.447125000   0.000000000   2.026984232    0   0   0
Fe       7.447420479   3.510611505   4.026647087
Fe       9.102346018   1.170211882   4.027134491
Fe       5.792401460   2.340819564   6.005512548
Fe      10.757173775   9.361831542   6.004597452
Fe       3.309814764   5.851000664   0.000000000    0   0   0
Fe       1.654901811   4.680800531   2.026984232    0   0   0
Fe       6.619640670   8.191400930   0.000000000    0   0   0
Fe       4.964727717   7.021200797   2.026984232    0   0   0
Fe       3.309526336   5.851690833   4.026744262
Fe      11.584679108   4.680855349   6.004144765
Fe       6.619499617   8.192215343   4.026748908
Fe       4.964546232   7.022148233   6.005235814
Fe       4.137265670   8.191400930   0.000000000    0   0   0
Fe       5.792189764   5.851000664   0.000000000    0   0   0
Fe       2.482352717   7.021200797   2.026984232    0   0   0
Fe       4.137276811   4.680800531   2.026984232    0   0   0
Fe       4.137270576   8.191845130   4.026814179
Fe       5.792069812   5.851617064   4.026946478
Fe      12.411409722   7.021258406   6.004962008
Fe       4.137385969   4.681560913   6.004055304
Fe       8.274564764   5.851000664   0.000000000    0   0   0
Fe       6.619651811   4.680800531   2.026984232    0   0   0
Fe      11.584390670   8.191400930   0.000000000    0   0   0
Fe       9.929477717   7.021200797   2.026984232    0   0   0
Fe       8.274868094   5.851126765   4.026848823
Fe       6.619665354   4.681477222   6.003380070
Fe      11.584678547   8.191514616   4.026910800
Fe       9.929155900   7.021837365   6.004536714
Fe       9.102015670   8.191400930   0.000000000    0   0   0
Fe      10.756939764   5.851000664   0.000000000    0   0   0
Fe       7.447102717   7.021200797   2.026984232    0   0   0
Fe       9.102026811   4.680800531   2.026984232    0   0   0
Fe       9.102234964   8.191714800   4.026377367
Fe      10.756978908   5.851283372   4.026838019
Fe       7.446997598   7.021815629   6.004046457
Fe       9.102218468   4.681205756   6.005444946
End final coordinates



     Writing output data file Fe_paper_480c.save/

     init_run     :     77.18s CPU     78.56s WALL (       1 calls)
     electrons    :  65892.57s CPU  66597.11s WALL (      23 calls)
     update_pot   :    225.01s CPU    225.31s WALL (      22 calls)
     forces       :    871.69s CPU    880.17s WALL (      23 calls)

     Called by init_run:
     wfcinit      :     57.94s CPU     59.07s WALL (       1 calls)
     potinit      :      5.22s CPU      5.24s WALL (       1 calls)
     hinit0       :      5.16s CPU      5.24s WALL (       1 calls)

     Called by electrons:
     c_bands      :  56317.10s CPU  56894.93s WALL (     326 calls)
     sum_band     :   5396.68s CPU   5480.75s WALL (     326 calls)
     v_of_rho     :    504.23s CPU    506.14s WALL (     338 calls)
     newd         :    102.41s CPU    105.96s WALL (     338 calls)
     PAW_pot      :    219.78s CPU    220.63s WALL (     360 calls)
     mix_rho      :   3226.89s CPU   3255.71s WALL (     326 calls)

     Called by c_bands:
     init_us_2    :    153.42s CPU    154.78s WALL (    2094 calls)
     cegterg      :  49361.24s CPU  49731.69s WALL (     978 calls)

     Called by sum_band:
     sum_band:bec :     12.24s CPU     12.29s WALL (    1044 calls)
     addusdens    :    113.36s CPU    119.74s WALL (     326 calls)

     Called by *egterg:
     h_psi        :  20742.35s CPU  20921.71s WALL (    3538 calls)
     s_psi        :   4152.99s CPU   4163.15s WALL (    3538 calls)
     g_psi        :     55.39s CPU     55.53s WALL (    2557 calls)
     cdiaghg      :  10322.14s CPU  10366.04s WALL (    3436 calls)

     Called by h_psi:
     h_psi:pot    :  20636.26s CPU  20744.16s WALL (    3538 calls)
     h_psi:calbec :   4254.04s CPU   4261.52s WALL (    3538 calls)
     vloc_psi     :  12222.04s CPU  12314.71s WALL (    3538 calls)
     add_vuspsi   :   4160.12s CPU   4167.90s WALL (    3538 calls)

     General routines
     calbec       :   6599.59s CPU   6612.17s WALL (    4858 calls)
     fft          :    352.39s CPU    354.38s WALL (    8793 calls)
     ffts         :   1621.00s CPU   1632.52s WALL (  198902 calls)
     fftw         :  11898.34s CPU  11993.50s WALL ( 3508332 calls)
     interpolate  :     34.37s CPU     34.64s WALL (     676 calls)
     davcio       :      1.33s CPU    205.01s WALL (    7515 calls)

     Parallel routines
     fft_scatt_xy :   2448.84s CPU   2461.09s WALL ( 3716027 calls)
     fft_scatt_yz :   3440.66s CPU   3487.03s WALL ( 3716027 calls)

     PWSCF        :     18h40m CPU     18h53m WALL


   This run was terminated on:  10: 1:27   2Jun2022            

=------------------------------------------------------------------------------=
   JOB DONE.
=------------------------------------------------------------------------------=
