
     Program PHONON v.6.7MaX starts on 29Sep2022 at  0:55:41 

     This program is part of the open-source Quantum ESPRESSO suite
     for quantum simulation of materials; please cite
         "P. Giannozzi et al., J. Phys.:Condens. Matter 21 395502 (2009);
         "P. Giannozzi et al., J. Phys.:Condens. Matter 29 465901 (2017);
          URL http://www.quantum-espresso.org", 
     in publications or presentations arising from this work. More details at
     http://www.quantum-espresso.org/quote

     Parallel version (MPI), running on   120 processors

     MPI processes distributed on     1 nodes
     K-points division:     npool     =       8
     R & G space division:  proc/nbgrp/npool/nimage =      15
     Waiting for input...
     Reading input from standard input

     Reading xml data from directory:

     ./NH2_ESM_std.save/

     IMPORTANT: XC functional enforced from input :
     Exchange-correlation= PBE
                           (   1   4   3   4   0   0   0)
     Any further DFT definition will be discarded
     Please, verify this is what you really want


     Parallelization info
     --------------------
     sticks:   dense  smooth     PW     G-vecs:    dense   smooth      PW
     Min        3636    1818    468               639190   225950   29545
     Max        3637    1819    470               639197   225953   29547
     Sum       54553   27281   7033              9587919  3389267  443191


     Adding external electric field
        E field amplitude [Ha a.u.]: -1.5855E-03
        Potential amp.       -0.1079 Ry
        Total length         34.0151 bohr


     negative rho (up, down):  2.350E-04 1.634E-04
     Reading collected, re-writing distributed wavefunctions

     Calculation of q =    0.0000000   0.0000000   0.0000000

     phonons (vibrational modes) for NH2                                        

     bravais-lattice index     =            0
     lattice parameter (alat)  =      37.7945  a.u.
     unit-cell volume          =   53986.6760 (a.u.)^3
     number of atoms/cell      =            3
     number of atomic types    =            2
     kinetic-energy cut-off    =      60.0000  Ry
     charge density cut-off    =     480.0000  Ry
     convergence threshold     =      1.0E-12
     beta                      =       0.7000
     number of iterations used =            4
     Exchange-correlation= PBE
                           (   1   4   3   4   0   0   0)


     celldm(1)=   37.79452  celldm(2)=    0.00000  celldm(3)=    0.00000
     celldm(4)=    0.00000  celldm(5)=    0.00000  celldm(6)=    0.00000

     crystal axes: (cart. coord. in units of alat)
               a(1) = (  1.0000  0.0000  0.0000 )  
               a(2) = (  0.0000  1.0000  0.0000 )  
               a(3) = (  0.0000  0.0000  1.0000 )  

     reciprocal axes: (cart. coord. in units 2 pi/alat)
               b(1) = (  1.0000  0.0000  0.0000 )  
               b(2) = (  0.0000  1.0000  0.0000 )  
               b(3) = (  0.0000  0.0000  1.0000 )  


     Atoms inside the unit cell: 

     Cartesian axes

     site n.  atom      mass           positions (alat units)
        1     N   14.0067   tau(    1) = (    0.50000    0.50000    0.00000  )
        2     H    1.0078   tau(    2) = (    0.50000    0.54043   -0.03242  )
        3     H    1.0078   tau(    3) = (    0.50000    0.45957   -0.03242  )

     Computing dynamical matrix for 
                    q = (   0.0000000   0.0000000   0.0000000 )

      2 Sym.Ops. (with q -> -q+G )


     G cutoff =17367.5767  ( 639197 G-vectors)     FFT grid: (270,270,270)
     G cutoff = 8683.7884  ( 225950 G-vectors)  smooth grid: (192,192,192)

     number of k points=    20  Methfessel-Paxton smearing, width (Ry)=  0.0100
                       cart. coord. in units 2pi/alat
        k(    1) = (   0.0000000   0.0000000   0.0000000), wk =   0.0625000
        k(    2) = (   0.0000000   0.2500000   0.0000000), wk =   0.1250000
        k(    3) = (   0.0000000  -0.5000000   0.0000000), wk =   0.0625000
        k(    4) = (   0.2500000   0.0000000   0.0000000), wk =   0.1250000
        k(    5) = (   0.2500000   0.2500000   0.0000000), wk =   0.1250000
        k(    6) = (   0.2500000  -0.5000000   0.0000000), wk =   0.1250000
        k(    7) = (   0.2500000  -0.2500000   0.0000000), wk =   0.1250000
        k(    8) = (  -0.5000000   0.0000000   0.0000000), wk =   0.0625000
        k(    9) = (  -0.5000000   0.2500000   0.0000000), wk =   0.1250000
        k(   10) = (  -0.5000000  -0.5000000   0.0000000), wk =   0.0625000
        k(   11) = (   0.0000000   0.0000000   0.0000000), wk =   0.0625000
        k(   12) = (   0.0000000   0.2500000   0.0000000), wk =   0.1250000
        k(   13) = (   0.0000000  -0.5000000   0.0000000), wk =   0.0625000
        k(   14) = (   0.2500000   0.0000000   0.0000000), wk =   0.1250000
        k(   15) = (   0.2500000   0.2500000   0.0000000), wk =   0.1250000
        k(   16) = (   0.2500000  -0.5000000   0.0000000), wk =   0.1250000
        k(   17) = (   0.2500000  -0.2500000   0.0000000), wk =   0.1250000
        k(   18) = (  -0.5000000   0.0000000   0.0000000), wk =   0.0625000
        k(   19) = (  -0.5000000   0.2500000   0.0000000), wk =   0.1250000
        k(   20) = (  -0.5000000  -0.5000000   0.0000000), wk =   0.0625000

     PseudoPot. # 1 for N  read from file:
     ../../SSSP/N.pbe-n-radius_5.UPF
     MD5 check sum: 16739722b17309cd8fe442a2ace49922
     Pseudo is Ultrasoft + core correction, Zval =  5.0
     Generated using "atomic" code by A. Dal Corso  v.5.1
     Using radial grid of 1085 points,  4 beta functions with: 
                l(1) =   0
                l(2) =   0
                l(3) =   1
                l(4) =   1
     Q(r) pseudized with 0 coefficients 


     PseudoPot. # 2 for H  read from file:
     ../../SSSP/H.pbe-rrkjus_psl.1.0.0.UPF
     MD5 check sum: f52b6d4d1c606e5624b1dc7b2218f220
     Pseudo is Ultrasoft, Zval =  1.0
     Generated using "atomic" code by A. Dal Corso  v.5.1
     Using radial grid of  929 points,  2 beta functions with: 
                l(1) =   0
                l(2) =   0
     Q(r) pseudized with 0 coefficients 


     Mode symmetry, C_1 (1)     point group:


     Atomic displacements:
     There are    9 irreducible representations

     Representation     1      1 modes -  To be done

     Representation     2      1 modes -  To be done

     Representation     3      1 modes -  To be done

     Representation     4      1 modes -  To be done

     Representation     5      1 modes -  To be done

     Representation     6      1 modes -  To be done

     Representation     7      1 modes -  To be done

     Representation     8      1 modes -  To be done

     Representation     9      1 modes -  To be done



     Alpha used in Ewald sum =   2.8000

     -------------------------------------------------
     Parameters for Dispersion (Grimme-D2) Correction:
     -------------------------------------------------
       atom      VdW radius       C_6     

        N          2.640         42.670
        H          1.892          4.857

     Calculating the D2 contribution to the dynamical matrix.
     D2 energy =       -0.00009802 Ry
     Done.


     negative rho (up, down):  2.350E-04 1.634E-04
     PHONON       :   3m 0.02s CPU   3m 8.25s WALL



     Representation #   1 mode #   1

     Self-consistent Calculation

     Pert. #  1: Fermi energy shift (Ry) =     2.3638E-07     0.0000E+00

      iter #   1 total cpu time :   232.7 secs   av.it.:   6.0
      thresh= 1.000E-02 alpha_mix =  0.700 |ddv_scf|^2 =  2.186E-09

     Pert. #  1: Fermi energy shift (Ry) =    -2.6758E-06     0.0000E+00

      iter #   2 total cpu time :   272.8 secs   av.it.:  13.6
      thresh= 4.675E-06 alpha_mix =  0.700 |ddv_scf|^2 =  5.167E-10

     Pert. #  1: Fermi energy shift (Ry) =     1.3378E-06     0.0000E+00

      iter #   3 total cpu time :   315.8 secs   av.it.:  13.2
      thresh= 2.273E-06 alpha_mix =  0.700 |ddv_scf|^2 =  1.147E-11

     Pert. #  1: Fermi energy shift (Ry) =    -4.0427E-07     0.0000E+00

      iter #   4 total cpu time :   361.4 secs   av.it.:  14.4
      thresh= 3.387E-07 alpha_mix =  0.700 |ddv_scf|^2 =  1.792E-13

     End of self-consistent calculation

     Convergence has been achieved 


     Representation #   2 mode #   2

     Self-consistent Calculation

     Pert. #  1: Fermi energy shift (Ry) =     2.2625E-09     0.0000E+00

      iter #   1 total cpu time :   419.5 secs   av.it.:   6.0
      thresh= 1.000E-02 alpha_mix =  0.700 |ddv_scf|^2 =  2.663E-09

     Pert. #  1: Fermi energy shift (Ry) =     3.2532E-09     0.0000E+00

      iter #   2 total cpu time :   460.9 secs   av.it.:  13.2
      thresh= 5.160E-06 alpha_mix =  0.700 |ddv_scf|^2 =  5.783E-10

     Pert. #  1: Fermi energy shift (Ry) =    -2.6301E-10     0.0000E+00

      iter #   3 total cpu time :   503.7 secs   av.it.:  12.7
      thresh= 2.405E-06 alpha_mix =  0.700 |ddv_scf|^2 =  1.145E-11

     Pert. #  1: Fermi energy shift (Ry) =     6.1767E-09     0.0000E+00

      iter #   4 total cpu time :   550.6 secs   av.it.:  13.8
      thresh= 3.383E-07 alpha_mix =  0.700 |ddv_scf|^2 =  4.769E-14

     End of self-consistent calculation

     Convergence has been achieved 


     Representation #   3 mode #   3

     Self-consistent Calculation

     Pert. #  1: Fermi energy shift (Ry) =     2.3298E-01     0.0000E+00

      iter #   1 total cpu time :   608.8 secs   av.it.:   7.5
      thresh= 1.000E-02 alpha_mix =  0.700 |ddv_scf|^2 =  5.577E-09

     Pert. #  1: Fermi energy shift (Ry) =     1.2912E-01     0.0000E+00

      iter #   2 total cpu time :   651.9 secs   av.it.:  15.5
      thresh= 7.468E-06 alpha_mix =  0.700 |ddv_scf|^2 =  9.523E-10

     Pert. #  1: Fermi energy shift (Ry) =    -2.4239E-01     0.0000E+00

      iter #   3 total cpu time :   696.8 secs   av.it.:  16.4
      thresh= 3.086E-06 alpha_mix =  0.700 |ddv_scf|^2 =  4.448E-10

     Pert. #  1: Fermi energy shift (Ry) =     2.1044E-02     0.0000E+00

      iter #   4 total cpu time :   745.3 secs   av.it.:  16.0
      thresh= 2.109E-06 alpha_mix =  0.700 |ddv_scf|^2 =  2.239E-12

     Pert. #  1: Fermi energy shift (Ry) =     1.7596E-02     0.0000E+00

      iter #   5 total cpu time :   794.6 secs   av.it.:  15.9
      thresh= 1.496E-07 alpha_mix =  0.700 |ddv_scf|^2 =  1.180E-12

     Pert. #  1: Fermi energy shift (Ry) =     6.4957E-03     0.0000E+00

      iter #   6 total cpu time :   841.9 secs   av.it.:  15.8
      thresh= 1.086E-07 alpha_mix =  0.700 |ddv_scf|^2 =  1.250E-14

     End of self-consistent calculation

     Convergence has been achieved 


     Representation #   4 mode #   4

     Self-consistent Calculation

     Pert. #  1: Fermi energy shift (Ry) =    -2.2578E-09     0.0000E+00

      iter #   1 total cpu time :   897.4 secs   av.it.:   4.0
      thresh= 1.000E-02 alpha_mix =  0.700 |ddv_scf|^2 =  6.856E-11

     Pert. #  1: Fermi energy shift (Ry) =     1.3605E-07     0.0000E+00

      iter #   2 total cpu time :   938.6 secs   av.it.:  12.9
      thresh= 8.280E-07 alpha_mix =  0.700 |ddv_scf|^2 =  7.959E-12

     Pert. #  1: Fermi energy shift (Ry) =     4.2146E-08     0.0000E+00

      iter #   3 total cpu time :   978.3 secs   av.it.:  13.0
      thresh= 2.821E-07 alpha_mix =  0.700 |ddv_scf|^2 =  6.474E-13

     End of self-consistent calculation

     Convergence has been achieved 


     Representation #   5 mode #   5

     Self-consistent Calculation

     Pert. #  1: Fermi energy shift (Ry) =     2.3850E-01     0.0000E+00

      iter #   1 total cpu time :  1036.2 secs   av.it.:   6.5
      thresh= 1.000E-02 alpha_mix =  0.700 |ddv_scf|^2 =  3.380E-10

     Pert. #  1: Fermi energy shift (Ry) =    -1.3990E-01     0.0000E+00

      iter #   2 total cpu time :  1080.2 secs   av.it.:  17.0
      thresh= 1.838E-06 alpha_mix =  0.700 |ddv_scf|^2 =  1.997E-10

     Pert. #  1: Fermi energy shift (Ry) =     2.9627E-02     0.0000E+00

      iter #   3 total cpu time :  1124.0 secs   av.it.:  16.5
      thresh= 1.413E-06 alpha_mix =  0.700 |ddv_scf|^2 =  4.308E-12

     Pert. #  1: Fermi energy shift (Ry) =     1.0918E-02     0.0000E+00

      iter #   4 total cpu time :  1171.2 secs   av.it.:  16.6
      thresh= 2.076E-07 alpha_mix =  0.700 |ddv_scf|^2 =  6.604E-13

     End of self-consistent calculation

     Convergence has been achieved 


     Representation #   6 mode #   6

     Self-consistent Calculation

     Pert. #  1: Fermi energy shift (Ry) =    -1.7882E-01     0.0000E+00

      iter #   1 total cpu time :  1229.8 secs   av.it.:   6.5
      thresh= 1.000E-02 alpha_mix =  0.700 |ddv_scf|^2 =  2.771E-10

     Pert. #  1: Fermi energy shift (Ry) =     1.5607E-01     0.0000E+00

      iter #   2 total cpu time :  1273.3 secs   av.it.:  17.1
      thresh= 1.664E-06 alpha_mix =  0.700 |ddv_scf|^2 =  2.308E-10

     Pert. #  1: Fermi energy shift (Ry) =    -6.8986E-03     0.0000E+00

      iter #   3 total cpu time :  1318.7 secs   av.it.:  16.2
      thresh= 1.519E-06 alpha_mix =  0.700 |ddv_scf|^2 =  6.555E-12

     Pert. #  1: Fermi energy shift (Ry) =    -5.5479E-03     0.0000E+00

      iter #   4 total cpu time :  1364.4 secs   av.it.:  15.2
      thresh= 2.560E-07 alpha_mix =  0.700 |ddv_scf|^2 =  4.594E-14

     End of self-consistent calculation

     Convergence has been achieved 


     Representation #   7 mode #   7

     Self-consistent Calculation

     Pert. #  1: Fermi energy shift (Ry) =    -1.7347E-09     0.0000E+00

      iter #   1 total cpu time :  1421.2 secs   av.it.:   4.0
      thresh= 1.000E-02 alpha_mix =  0.700 |ddv_scf|^2 =  6.856E-11

     Pert. #  1: Fermi energy shift (Ry) =     2.6248E-07     0.0000E+00

      iter #   2 total cpu time :  1461.1 secs   av.it.:  13.1
      thresh= 8.280E-07 alpha_mix =  0.700 |ddv_scf|^2 =  7.959E-12

     Pert. #  1: Fermi energy shift (Ry) =     1.9798E-07     0.0000E+00

      iter #   3 total cpu time :  1501.9 secs   av.it.:  13.1
      thresh= 2.821E-07 alpha_mix =  0.700 |ddv_scf|^2 =  6.474E-13

     End of self-consistent calculation

     Convergence has been achieved 


     Representation #   8 mode #   8

     Self-consistent Calculation

     Pert. #  1: Fermi energy shift (Ry) =    -2.3850E-01     0.0000E+00

      iter #   1 total cpu time :  1560.2 secs   av.it.:   6.5
      thresh= 1.000E-02 alpha_mix =  0.700 |ddv_scf|^2 =  3.380E-10

     Pert. #  1: Fermi energy shift (Ry) =     1.3990E-01     0.0000E+00

      iter #   2 total cpu time :  1603.8 secs   av.it.:  17.0
      thresh= 1.838E-06 alpha_mix =  0.700 |ddv_scf|^2 =  1.997E-10

     Pert. #  1: Fermi energy shift (Ry) =    -2.9627E-02     0.0000E+00

      iter #   3 total cpu time :  1648.1 secs   av.it.:  16.5
      thresh= 1.413E-06 alpha_mix =  0.700 |ddv_scf|^2 =  4.308E-12

     Pert. #  1: Fermi energy shift (Ry) =    -1.0918E-02     0.0000E+00

      iter #   4 total cpu time :  1696.6 secs   av.it.:  16.6
      thresh= 2.076E-07 alpha_mix =  0.700 |ddv_scf|^2 =  6.604E-13

     End of self-consistent calculation

     Convergence has been achieved 


     Representation #   9 mode #   9

     Self-consistent Calculation

     Pert. #  1: Fermi energy shift (Ry) =    -1.7882E-01     0.0000E+00

      iter #   1 total cpu time :  1753.9 secs   av.it.:   6.5
      thresh= 1.000E-02 alpha_mix =  0.700 |ddv_scf|^2 =  2.771E-10

     Pert. #  1: Fermi energy shift (Ry) =     1.5607E-01     0.0000E+00

      iter #   2 total cpu time :  1797.8 secs   av.it.:  17.1
      thresh= 1.664E-06 alpha_mix =  0.700 |ddv_scf|^2 =  2.308E-10

     Pert. #  1: Fermi energy shift (Ry) =    -6.8983E-03     0.0000E+00

      iter #   3 total cpu time :  1842.8 secs   av.it.:  16.3
      thresh= 1.519E-06 alpha_mix =  0.700 |ddv_scf|^2 =  6.555E-12

     Pert. #  1: Fermi energy shift (Ry) =    -5.5479E-03     0.0000E+00

      iter #   4 total cpu time :  1889.1 secs   av.it.:  15.2
      thresh= 2.560E-07 alpha_mix =  0.700 |ddv_scf|^2 =  4.594E-14

     End of self-consistent calculation

     Convergence has been achieved 

     Number of q in the star =    1
     List of q in the star:
          1   0.000000000   0.000000000   0.000000000

     Diagonalizing the dynamical matrix

     q = (    0.000000000   0.000000000   0.000000000 ) 

 **************************************************************************
     freq (    1) =     -24.935155 [THz] =    -831.747249 [cm-1]
     freq (    2) =      -9.082366 [THz] =    -302.955107 [cm-1]
     freq (    3) =      -5.843651 [THz] =    -194.923205 [cm-1]
     freq (    4) =       6.645879 [THz] =     221.682663 [cm-1]
     freq (    5) =       8.404840 [THz] =     280.355292 [cm-1]
     freq (    6) =      19.880059 [THz] =     663.127374 [cm-1]
     freq (    7) =      44.455421 [THz] =    1482.873225 [cm-1]
     freq (    8) =      98.993812 [THz] =    3302.078132 [cm-1]
     freq (    9) =     100.970636 [THz] =    3368.017873 [cm-1]
 **************************************************************************

     Mode symmetry, C_1 (1)     point group:

     freq (   1-   1) =       -831.7  [cm-1]   --> A               I+R
     freq (   2-   2) =       -303.0  [cm-1]   --> A               I+R
     freq (   3-   3) =       -194.9  [cm-1]   --> A               I+R
     freq (   4-   4) =        221.7  [cm-1]   --> A               I+R
     freq (   5-   5) =        280.4  [cm-1]   --> A               I+R
     freq (   6-   6) =        663.1  [cm-1]   --> A               I+R
     freq (   7-   7) =       1482.9  [cm-1]   --> A               I+R
     freq (   8-   8) =       3302.1  [cm-1]   --> A               I+R
     freq (   9-   9) =       3368.0  [cm-1]   --> A               I+R

     PHONON       :  27m44.59s CPU  31m53.44s WALL

     INITIALIZATION: 
     phq_setup    :     13.07s CPU     14.60s WALL (       1 calls)
     phq_init     :    148.98s CPU    152.92s WALL (       1 calls)

     phq_init     :    148.98s CPU    152.92s WALL (       1 calls)
     set_drhoc    :     24.43s CPU     24.53s WALL (       3 calls)
     init_vloc    :      0.32s CPU      0.32s WALL (       1 calls)
     init_us_1    :      0.02s CPU      0.02s WALL (       1 calls)
     newd         :      1.21s CPU      1.27s WALL (       1 calls)
     dvanqq       :     57.54s CPU     58.16s WALL (       1 calls)
     drho         :     44.20s CPU     46.72s WALL (       1 calls)

     DYNAMICAL MATRIX:
     dynmat0      :     24.28s CPU     24.95s WALL (       1 calls)
     phqscf       :   1484.53s CPU   1717.53s WALL (       1 calls)
     dynmatrix    :      0.04s CPU      0.13s WALL (       1 calls)

     phqscf       :   1484.53s CPU   1717.53s WALL (       1 calls)
     solve_linter :   1473.52s CPU   1685.44s WALL (       9 calls)
     drhodv       :     11.00s CPU     11.28s WALL (       9 calls)

     dynmat0      :     24.28s CPU     24.95s WALL (       1 calls)
     dynmat_us    :      1.43s CPU      1.47s WALL (       1 calls)
     d2ionq       :      0.51s CPU      0.51s WALL (       1 calls)
     dynmatcc     :     22.20s CPU     22.82s WALL (       1 calls)

     dynmat_us    :      1.43s CPU      1.47s WALL (       1 calls)
     addusdynmat  :      0.00s CPU      0.00s WALL (       1 calls)

     phqscf       :   1484.53s CPU   1717.53s WALL (       1 calls)
     solve_linter :   1473.52s CPU   1685.44s WALL (       9 calls)

     solve_linter :   1473.52s CPU   1685.44s WALL (       9 calls)
     dvqpsi_us    :     18.10s CPU     18.46s WALL (      27 calls)
     ortho        :      3.00s CPU      3.07s WALL (     108 calls)
     cgsolve      :    468.34s CPU    473.61s WALL (     108 calls)
     incdrhoscf   :     30.66s CPU     31.08s WALL (     108 calls)
     addusddens   :     88.48s CPU     94.81s WALL (      45 calls)
     vpsifft      :     23.35s CPU     23.75s WALL (      81 calls)
     dv_of_drho   :    243.58s CPU    253.71s WALL (      36 calls)
     mix_pot      :     16.36s CPU     44.24s WALL (      36 calls)
     ef_shift     :     36.32s CPU     37.17s WALL (      45 calls)
     localdos     :     46.59s CPU     48.37s WALL (       9 calls)
     psymdvscf    :    183.95s CPU    264.83s WALL (      36 calls)
     newdq        :    110.77s CPU    115.91s WALL (      36 calls)
     adddvscf     :      0.71s CPU      0.72s WALL (      81 calls)
     drhodvus     :      0.94s CPU     34.93s WALL (       9 calls)

     dvqpsi_us    :     18.10s CPU     18.46s WALL (      27 calls)
     dvqpsi_us_on :      0.33s CPU      0.34s WALL (      27 calls)

     cgsolve      :    468.34s CPU    473.61s WALL (     108 calls)
     ch_psi       :    452.91s CPU    458.02s WALL (    1829 calls)

     ch_psi       :    452.91s CPU    458.02s WALL (    1829 calls)
     h_psi        :    409.79s CPU    414.45s WALL (    1829 calls)
     last         :     30.63s CPU     30.95s WALL (    1829 calls)

     h_psi        :    409.79s CPU    414.45s WALL (    1829 calls)
     add_vuspsi   :      8.33s CPU      8.42s WALL (    1829 calls)

     incdrhoscf   :     30.66s CPU     31.08s WALL (     108 calls)
     addusdbec    :      1.44s CPU      1.45s WALL (     135 calls)

     drhodvus     :      0.94s CPU     34.93s WALL (       9 calls)

      General routines
     calbec       :     20.17s CPU     20.48s WALL (    4066 calls)
     fft          :    432.50s CPU    441.47s WALL (    1577 calls)
     ffts         :     31.25s CPU     32.00s WALL (     407 calls)
     fftw         :    385.33s CPU    389.64s WALL (   13686 calls)
     davcio       :      0.18s CPU     58.85s WALL (     828 calls)
     write_rec    :      0.00s CPU     44.56s WALL (      45 calls)


     PHONON       :  27m44.59s CPU  31m53.45s WALL


   This run was terminated on:   1:27:35  29Sep2022            

=------------------------------------------------------------------------------=
   JOB DONE.
=------------------------------------------------------------------------------=
