     Message from routine get_command_line:
     unexpected argument # 4     :-in

     Program PWSCF v.6.7MaX starts on 28Sep2022 at 20:40:33 

     This program is part of the open-source Quantum ESPRESSO suite
     for quantum simulation of materials; please cite
         "P. Giannozzi et al., J. Phys.:Condens. Matter 21 395502 (2009);
         "P. Giannozzi et al., J. Phys.:Condens. Matter 29 465901 (2017);
          URL http://www.quantum-espresso.org", 
     in publications or presentations arising from this work. More details at
     http://www.quantum-espresso.org/quote

     Parallel version (MPI), running on   120 processors

     MPI processes distributed on     1 nodes
     K-points division:     npool     =       8
     R & G space division:  proc/nbgrp/npool/nimage =      15
     Waiting for input...
     Reading input from standard input
Warning: card &CELL ignored
Warning: card / ignored

     Current dimensions of program PWSCF are:
     Max number of different atomic species (ntypx) = 10
     Max number of k-points (npk) =  40000
     Max angular momentum in pseudopotentials (lmaxx) =  3

     IMPORTANT: XC functional enforced from input :
     Exchange-correlation= PBE
                           (   1   4   3   4   0   0   0)
     Any further DFT definition will be discarded
     Please, verify this is what you really want


     -------------------------------------------------
     Parameters for Dispersion (Grimme-D2) Correction:
     -------------------------------------------------
       atom      VdW radius       C_6     

        N          2.640         42.670
        H          1.892          4.857

     Subspace diagonalization in iterative solution of the eigenvalue problem:
     one sub-group per band group will be used
     scalapack distributed-memory algorithm (size of sub-group:  3*  3 procs)


     Parallelization info
     --------------------
     sticks:   dense  smooth     PW     G-vecs:    dense   smooth      PW
     Min        3636    1818    468               639190   225950   29545
     Max        3637    1819    470               639197   225953   29547
     Sum       54553   27281   7033              9587919  3389267  443191



     bravais-lattice index     =            0
     lattice parameter (alat)  =      37.7945  a.u.
     unit-cell volume          =   53986.6760 (a.u.)^3
     number of atoms/cell      =            3
     number of atomic types    =            2
     number of electrons       =         7.00
     number of Kohn-Sham states=            8
     kinetic-energy cutoff     =      60.0000  Ry
     charge density cutoff     =     480.0000  Ry
     scf convergence threshold =      1.0E-08
     mixing beta               =       0.7000
     number of iterations used =           10  plain     mixing
     energy convergence thresh.=      7.3E-07
     force convergence thresh. =      3.9E-04
     Exchange-correlation= PBE
                           (   1   4   3   4   0   0   0)
     nstep                     =           50


     celldm(1)=  37.794522  celldm(2)=   0.000000  celldm(3)=   0.000000
     celldm(4)=   0.000000  celldm(5)=   0.000000  celldm(6)=   0.000000

     crystal axes: (cart. coord. in units of alat)
               a(1) = (   1.000000   0.000000   0.000000 )  
               a(2) = (   0.000000   1.000000   0.000000 )  
               a(3) = (   0.000000   0.000000   1.000000 )  

     reciprocal axes: (cart. coord. in units 2 pi/alat)
               b(1) = (  1.000000  0.000000  0.000000 )  
               b(2) = (  0.000000  1.000000  0.000000 )  
               b(3) = (  0.000000  0.000000  1.000000 )  


     PseudoPot. # 1 for N  read from file:
     ../../SSSP/N.pbe-n-radius_5.UPF
     MD5 check sum: 16739722b17309cd8fe442a2ace49922
     Pseudo is Ultrasoft + core correction, Zval =  5.0
     Generated using "atomic" code by A. Dal Corso  v.5.1
     Using radial grid of 1085 points,  4 beta functions with: 
                l(1) =   0
                l(2) =   0
                l(3) =   1
                l(4) =   1
     Q(r) pseudized with 0 coefficients 


     PseudoPot. # 2 for H  read from file:
     ../../SSSP/H.pbe-rrkjus_psl.1.0.0.UPF
     MD5 check sum: f52b6d4d1c606e5624b1dc7b2218f220
     Pseudo is Ultrasoft, Zval =  1.0
     Generated using "atomic" code by A. Dal Corso  v.5.1
     Using radial grid of  929 points,  2 beta functions with: 
                l(1) =   0
                l(2) =   0
     Q(r) pseudized with 0 coefficients 


     atomic species   valence    mass     pseudopotential
        N              5.00    14.00700     N ( 1.00)
        H              1.00     1.00800     H ( 1.00)

     Starting magnetic structure 
     atomic species   magnetization
        N            0.100
        H            0.100

     No symmetry found



   Cartesian axes

     site n.     atom                  positions (alat units)
         1           N   tau(   1) = (   0.5000000   0.5000000   0.0000000  )
         2           H   tau(   2) = (   0.5000000   0.5404449  -0.0324140  )
         3           H   tau(   3) = (   0.5000000   0.4595551  -0.0324140  )

     number of k points=    10  Methfessel-Paxton smearing, width (Ry)=  0.0100
                       cart. coord. in units 2pi/alat
        k(    1) = (   0.0000000   0.0000000   0.0000000), wk =   0.0625000
        k(    2) = (   0.0000000   0.2500000   0.0000000), wk =   0.1250000
        k(    3) = (   0.0000000  -0.5000000   0.0000000), wk =   0.0625000
        k(    4) = (   0.2500000   0.0000000   0.0000000), wk =   0.1250000
        k(    5) = (   0.2500000   0.2500000   0.0000000), wk =   0.1250000
        k(    6) = (   0.2500000  -0.5000000   0.0000000), wk =   0.1250000
        k(    7) = (   0.2500000  -0.2500000   0.0000000), wk =   0.1250000
        k(    8) = (  -0.5000000   0.0000000   0.0000000), wk =   0.0625000
        k(    9) = (  -0.5000000   0.2500000   0.0000000), wk =   0.1250000
        k(   10) = (  -0.5000000  -0.5000000   0.0000000), wk =   0.0625000

     Dense  grid:  9587919 G-vectors     FFT dimensions: ( 270, 270, 270)

     Smooth grid:  3389267 G-vectors     FFT dimensions: ( 192, 192, 192)

     Estimated max dynamical RAM per process >     388.03 MB

     Estimated total dynamical RAM >      45.47 GB

     Adding external electric field
        E field amplitude [Ha a.u.]: -1.5855E-03
        Potential amp.       -0.1079 Ry
        Total length         34.0151 bohr

     Generating pointlists ...
     new r_m :   0.0214 (alat units)  0.8081 (a.u.) for type    1
     new r_m :   0.0214 (alat units)  0.8081 (a.u.) for type    2

     Initial potential from superposition of free atoms

     starting charge    6.99997, renormalised to    7.00000

     negative rho (up, down):  9.679E-05 7.919E-05
     Starting wfcs are    6 randomized atomic wfcs +    2 random wfcs

     total cpu time spent up to now is       21.7 secs

     Self-consistent Calculation

     iteration #  1     ecut=    60.00 Ry     beta= 0.70
     CG style diagonalization
     c_bands:  2 eigenvalues not converged
     c_bands:  1 eigenvalues not converged
     c_bands:  1 eigenvalues not converged
     ethr =  1.00E-04,  avg # of iterations = 11.5

     negative rho (up, down):  2.189E-04 1.452E-04

     total cpu time spent up to now is       55.7 secs

     total energy              =     -22.31266205 Ry
     estimated scf accuracy    <       0.31439990 Ry

     total magnetization       =     1.00 Bohr mag/cell
     absolute magnetization    =     1.01 Bohr mag/cell

     iteration #  2     ecut=    60.00 Ry     beta= 0.70
     CG style diagonalization
     ethr =  4.49E-03,  avg # of iterations =  3.4

     negative rho (up, down):  1.688E-04 1.738E-04

     total cpu time spent up to now is       74.1 secs

     total energy              =     -22.36659600 Ry
     estimated scf accuracy    <       0.11231263 Ry

     total magnetization       =     1.00 Bohr mag/cell
     absolute magnetization    =     1.04 Bohr mag/cell

     iteration #  3     ecut=    60.00 Ry     beta= 0.70
     CG style diagonalization
     ethr =  1.60E-03,  avg # of iterations =  3.3

     negative rho (up, down):  2.235E-04 1.648E-04

     total cpu time spent up to now is       92.4 secs

     total energy              =     -22.41034820 Ry
     estimated scf accuracy    <       0.00210000 Ry

     total magnetization       =     1.00 Bohr mag/cell
     absolute magnetization    =     1.05 Bohr mag/cell

     iteration #  4     ecut=    60.00 Ry     beta= 0.70
     CG style diagonalization
     ethr =  3.00E-05,  avg # of iterations =  5.5

     negative rho (up, down):  2.251E-04 1.607E-04

     total cpu time spent up to now is      115.1 secs

     total energy              =     -22.41164638 Ry
     estimated scf accuracy    <       0.00145910 Ry

     total magnetization       =     1.00 Bohr mag/cell
     absolute magnetization    =     1.07 Bohr mag/cell

     iteration #  5     ecut=    60.00 Ry     beta= 0.70
     CG style diagonalization
     ethr =  2.08E-05,  avg # of iterations =  5.7

     negative rho (up, down):  2.335E-04 1.642E-04

     total cpu time spent up to now is      138.3 secs

     total energy              =     -22.41168270 Ry
     estimated scf accuracy    <       0.00008823 Ry

     total magnetization       =     1.00 Bohr mag/cell
     absolute magnetization    =     1.07 Bohr mag/cell

     iteration #  6     ecut=    60.00 Ry     beta= 0.70
     CG style diagonalization
     c_bands:  1 eigenvalues not converged
     ethr =  1.26E-06,  avg # of iterations =  6.5

     negative rho (up, down):  2.347E-04 1.636E-04

     total cpu time spent up to now is      163.1 secs

     total energy              =     -22.41172696 Ry
     estimated scf accuracy    <       0.00002793 Ry

     total magnetization       =     1.00 Bohr mag/cell
     absolute magnetization    =     1.07 Bohr mag/cell

     iteration #  7     ecut=    60.00 Ry     beta= 0.70
     CG style diagonalization
     ethr =  3.99E-07,  avg # of iterations =  4.7

     negative rho (up, down):  2.346E-04 1.634E-04

     total cpu time spent up to now is      184.6 secs

     total energy              =     -22.41173550 Ry
     estimated scf accuracy    <       0.00000557 Ry

     total magnetization       =     1.00 Bohr mag/cell
     absolute magnetization    =     1.07 Bohr mag/cell

     iteration #  8     ecut=    60.00 Ry     beta= 0.70
     CG style diagonalization
     ethr =  7.96E-08,  avg # of iterations =  4.0

     negative rho (up, down):  2.348E-04 1.634E-04

     total cpu time spent up to now is      204.7 secs

     total energy              =     -22.41173575 Ry
     estimated scf accuracy    <       0.00000079 Ry

     total magnetization       =     1.00 Bohr mag/cell
     absolute magnetization    =     1.07 Bohr mag/cell

     iteration #  9     ecut=    60.00 Ry     beta= 0.70
     CG style diagonalization
     ethr =  1.13E-08,  avg # of iterations =  4.0

     negative rho (up, down):  2.349E-04 1.634E-04

     total cpu time spent up to now is      224.9 secs

     total energy              =     -22.41173614 Ry
     estimated scf accuracy    <       0.00000009 Ry

     total magnetization       =     1.00 Bohr mag/cell
     absolute magnetization    =     1.07 Bohr mag/cell

     iteration # 10     ecut=    60.00 Ry     beta= 0.70
     CG style diagonalization
     ethr =  1.28E-09,  avg # of iterations =  3.6

     negative rho (up, down):  2.350E-04 1.633E-04

     total cpu time spent up to now is      244.5 secs

     total energy              =     -22.41173616 Ry
     estimated scf accuracy    <       0.00000006 Ry

     total magnetization       =     1.00 Bohr mag/cell
     absolute magnetization    =     1.07 Bohr mag/cell

     iteration # 11     ecut=    60.00 Ry     beta= 0.70
     CG style diagonalization
     c_bands:  1 eigenvalues not converged
     ethr =  9.23E-10,  avg # of iterations =  3.6

     negative rho (up, down):  2.350E-04 1.634E-04

     Magnetic moment per site:
     atom:    1    charge:    1.3458    magn:    0.2674    constr:    0.0000
     atom:    2    charge:    0.4531    magn:   -0.0051    constr:    0.0000
     atom:    3    charge:    0.4531    magn:   -0.0051    constr:    0.0000

     total cpu time spent up to now is      261.9 secs

     End of self-consistent calculation

 ------ SPIN UP ------------


          k = 0.0000 0.0000 0.0000 (423701 PWs)   bands (ev):

   -21.7701 -12.0949  -8.3527  -8.0810  -1.2710  -0.3254  -0.2291  -0.1491

          k = 0.0000 0.2500 0.0000 (423725 PWs)   bands (ev):

   -21.7701 -12.0949  -8.3527  -8.0810  -1.2707  -0.3534  -0.2078  -0.1311

          k = 0.0000-0.5000 0.0000 (423542 PWs)   bands (ev):

   -21.7701 -12.0949  -8.3527  -8.0810  -1.2704  -0.3746  -0.1753  -0.0574

          k = 0.2500 0.0000 0.0000 (423725 PWs)   bands (ev):

   -21.7701 -12.0949  -8.3527  -8.0810  -1.2708  -0.3330  -0.2198  -0.1815

          k = 0.2500 0.2500 0.0000 (423766 PWs)   bands (ev):

   -21.7701 -12.0949  -8.3527  -8.0810  -1.2703  -0.3408  -0.2626  -0.0834

          k = 0.2500-0.5000 0.0000 (423782 PWs)   bands (ev):

   -21.7701 -12.0949  -8.3527  -8.0810  -1.2701  -0.3573  -0.2470  -0.1454

          k = 0.2500-0.2500 0.0000 (423766 PWs)   bands (ev):

   -21.7701 -12.0949  -8.3527  -8.0810  -1.2704  -0.3407  -0.2628  -0.0714

          k =-0.5000 0.0000 0.0000 (423542 PWs)   bands (ev):

   -21.7701 -12.0949  -8.3527  -8.0810  -1.2706  -0.3418  -0.2116  -0.1899

          k =-0.5000 0.2500 0.0000 (423782 PWs)   bands (ev):

   -21.7701 -12.0949  -8.3527  -8.0810  -1.2702  -0.3198  -0.2963  -0.1207

          k =-0.5000-0.5000 0.0000 (423708 PWs)   bands (ev):

   -21.7701 -12.0949  -8.3527  -8.0810  -1.2699  -0.3301  -0.2777  -0.2136

 ------ SPIN DOWN ----------


          k = 0.0000 0.0000 0.0000 (423701 PWs)   bands (ev):

   -20.5097 -11.7316  -7.7689  -4.9050  -1.0911  -0.3112  -0.1995  -0.0610

          k = 0.0000 0.2500 0.0000 (423725 PWs)   bands (ev):

   -20.5097 -11.7316  -7.7689  -4.9050  -1.0901  -0.3407  -0.1874  -0.0511

          k = 0.0000-0.5000 0.0000 (423542 PWs)   bands (ev):

   -20.5097 -11.7316  -7.7689  -4.9050  -1.0896  -0.3631  -0.1634  -0.0279

          k = 0.2500 0.0000 0.0000 (423725 PWs)   bands (ev):

   -20.5097 -11.7316  -7.7689  -4.9050  -1.0906  -0.3125  -0.1907  -0.1503

          k = 0.2500 0.2500 0.0000 (423766 PWs)   bands (ev):

   -20.5097 -11.7316  -7.7689  -4.9050  -1.0899  -0.3246  -0.2300  -0.0420

          k = 0.2500-0.5000 0.0000 (423782 PWs)   bands (ev):

   -20.5097 -11.7316  -7.7689  -4.9050  -1.0889  -0.3447  -0.2039  -0.1354

          k = 0.2500-0.2500 0.0000 (423766 PWs)   bands (ev):

   -20.5097 -11.7316  -7.7689  -4.9050  -1.0897  -0.3251  -0.2282  -0.0489

          k =-0.5000 0.0000 0.0000 (423542 PWs)   bands (ev):

   -20.5097 -11.7316  -7.7689  -4.9050  -1.0899  -0.3135  -0.1793  -0.1735

          k =-0.5000 0.2500 0.0000 (423782 PWs)   bands (ev):

   -20.5097 -11.7316  -7.7689  -4.9050  -1.0894  -0.2901  -0.2781  -0.1009

          k =-0.5000-0.5000 0.0000 (423708 PWs)   bands (ev):

   -20.5097 -11.7316  -7.7689  -4.9050  -1.0887  -0.3141  -0.2297  -0.2089

     the Fermi energy is    -5.0196 ev

!    total energy              =     -22.41173617 Ry
     estimated scf accuracy    <          9.2E-10 Ry
     smearing contrib. (-TS)   =       0.00028990 Ry
     internal energy E=F+TS    =     -22.41202607 Ry

     The total energy is F=E-TS. E is the sum of the following terms:
     one-electron contribution =     -48.01906973 Ry
     hartree contribution      =      24.84906404 Ry
     xc contribution           =      -6.71680721 Ry
     ewald contribution        =       7.18903680 Ry
     Dispersion Correction     =      -0.00009835 Ry
     electric field correction =       0.28584839 Ry

     total magnetization       =     1.00 Bohr mag/cell
     absolute magnetization    =     1.07 Bohr mag/cell

     convergence has been achieved in  11 iterations

     negative rho (up, down):  2.350E-04 1.634E-04

     Forces acting on atoms (cartesian axes, Ry/au):

     atom    1 type  1   force =     0.00000018    0.00000018    0.00007320
     atom    2 type  2   force =    -0.00000008   -0.00053773   -0.00003659
     atom    3 type  2   force =    -0.00000010    0.00053755   -0.00003662

     Total force =     0.000762     Total SCF correction =     0.000010

     BFGS Geometry Optimization
     Energy error            =      0.0E+00
     Gradient error          =      5.4E-04

     number of scf cycles    =   1
     number of bfgs steps    =   0

     energy   new            =     -22.4117361715 Ry

     new trust radius        =       0.0005389759 bohr
     new conv_thr            =       0.0000000100 Ry


ATOMIC_POSITIONS (angstrom)
N            10.0000000000       10.0000000000        0.0000000000    0   0   0
H             9.9999999582       10.8086142312       -0.6483002164
H             9.9999999490        9.1913857221       -0.6483002298



     Writing output data file ./NH2_ESM_std.save/
     NEW-OLD atomic charge density approx. for the potential

     negative rho (up, down):  1.790E-04 1.997E-04

     Adding external electric field
        E field amplitude [Ha a.u.]: -1.5855E-03
        Potential amp.       -0.1079 Ry
        Total length         34.0151 bohr

     Generating pointlists ...

     total cpu time spent up to now is      283.4 secs

     Self-consistent Calculation

     iteration #  1     ecut=    60.00 Ry     beta= 0.70
     CG style diagonalization
     ethr =  1.00E-06,  avg # of iterations =  2.1

     Threshold (ethr) on eigenvalues was too large:
     Diagonalizing with lowered threshold

     CG style diagonalization
     ethr =  3.10E-10,  avg # of iterations =  3.0

     negative rho (up, down):  2.210E-04 1.718E-04

     total cpu time spent up to now is      308.9 secs

     total energy              =     -22.41173658 Ry
     estimated scf accuracy    <       0.00000005 Ry

     total magnetization       =     1.00 Bohr mag/cell
     absolute magnetization    =     1.07 Bohr mag/cell

     iteration #  2     ecut=    60.00 Ry     beta= 0.70
     CG style diagonalization
     ethr =  6.71E-10,  avg # of iterations =  3.5

     negative rho (up, down):  2.350E-04 1.634E-04

     Magnetic moment per site:
     atom:    1    charge:    1.3459    magn:    0.2674    constr:    0.0000
     atom:    2    charge:    0.4533    magn:   -0.0051    constr:    0.0000
     atom:    3    charge:    0.4533    magn:   -0.0051    constr:    0.0000

     total cpu time spent up to now is      325.9 secs

     End of self-consistent calculation

 ------ SPIN UP ------------


          k = 0.0000 0.0000 0.0000 (423701 PWs)   bands (ev):

   -21.7718 -12.0949  -8.3532  -8.0807  -1.2706  -0.3257  -0.2291  -0.1498

          k = 0.0000 0.2500 0.0000 (423725 PWs)   bands (ev):

   -21.7718 -12.0949  -8.3532  -8.0807  -1.2702  -0.3542  -0.2092  -0.1373

          k = 0.0000-0.5000 0.0000 (423542 PWs)   bands (ev):

   -21.7718 -12.0949  -8.3532  -8.0807  -1.2699  -0.3748  -0.1761  -0.0578

          k = 0.2500 0.0000 0.0000 (423725 PWs)   bands (ev):

   -21.7718 -12.0949  -8.3532  -8.0807  -1.2703  -0.3334  -0.2199  -0.1821

          k = 0.2500 0.2500 0.0000 (423766 PWs)   bands (ev):

   -21.7718 -12.0949  -8.3532  -8.0807  -1.2699  -0.3411  -0.2630  -0.0838

          k = 0.2500-0.5000 0.0000 (423782 PWs)   bands (ev):

   -21.7718 -12.0949  -8.3532  -8.0807  -1.2696  -0.3575  -0.2475  -0.1457

          k = 0.2500-0.2500 0.0000 (423766 PWs)   bands (ev):

   -21.7718 -12.0949  -8.3532  -8.0807  -1.2699  -0.3409  -0.2631  -0.0722

          k =-0.5000 0.0000 0.0000 (423542 PWs)   bands (ev):

   -21.7718 -12.0949  -8.3532  -8.0807  -1.2701  -0.3424  -0.2115  -0.1901

          k =-0.5000 0.2500 0.0000 (423782 PWs)   bands (ev):

   -21.7718 -12.0949  -8.3532  -8.0807  -1.2697  -0.3204  -0.2964  -0.1249

          k =-0.5000-0.5000 0.0000 (423708 PWs)   bands (ev):

   -21.7718 -12.0949  -8.3532  -8.0807  -1.2694  -0.3302  -0.2782  -0.2141

 ------ SPIN DOWN ----------


          k = 0.0000 0.0000 0.0000 (423701 PWs)   bands (ev):

   -20.5115 -11.7315  -7.7693  -4.9048  -1.0906  -0.3111  -0.1993  -0.0609

          k = 0.0000 0.2500 0.0000 (423725 PWs)   bands (ev):

   -20.5115 -11.7315  -7.7693  -4.9048  -1.0898  -0.3405  -0.1870  -0.0510

          k = 0.0000-0.5000 0.0000 (423542 PWs)   bands (ev):

   -20.5115 -11.7315  -7.7693  -4.9048  -1.0891  -0.3630  -0.1630  -0.0277

          k = 0.2500 0.0000 0.0000 (423725 PWs)   bands (ev):

   -20.5115 -11.7315  -7.7693  -4.9048  -1.0901  -0.3122  -0.1904  -0.1501

          k = 0.2500 0.2500 0.0000 (423766 PWs)   bands (ev):

   -20.5115 -11.7315  -7.7693  -4.9048  -1.0894  -0.3245  -0.2296  -0.0419

          k = 0.2500-0.5000 0.0000 (423782 PWs)   bands (ev):

   -20.5115 -11.7315  -7.7693  -4.9048  -1.0885  -0.3445  -0.2035  -0.1352

          k = 0.2500-0.2500 0.0000 (423766 PWs)   bands (ev):

   -20.5115 -11.7315  -7.7693  -4.9048  -1.0893  -0.3249  -0.2280  -0.0487

          k =-0.5000 0.0000 0.0000 (423542 PWs)   bands (ev):

   -20.5115 -11.7315  -7.7693  -4.9048  -1.0895  -0.3132  -0.1791  -0.1769

          k =-0.5000 0.2500 0.0000 (423782 PWs)   bands (ev):

   -20.5115 -11.7315  -7.7693  -4.9048  -1.0889  -0.2898  -0.2780  -0.1007

          k =-0.5000-0.5000 0.0000 (423708 PWs)   bands (ev):

   -20.5115 -11.7315  -7.7693  -4.9048  -1.0882  -0.3140  -0.2294  -0.2086

     the Fermi energy is    -5.0194 ev

!    total energy              =     -22.41173659 Ry
     estimated scf accuracy    <          6.1E-09 Ry
     smearing contrib. (-TS)   =       0.00028990 Ry
     internal energy E=F+TS    =     -22.41202648 Ry

     The total energy is F=E-TS. E is the sum of the following terms:
     one-electron contribution =     -48.02261817 Ry
     hartree contribution      =      24.85059578 Ry
     xc contribution           =      -6.71708696 Ry
     ewald contribution        =       7.19133273 Ry
     Dispersion Correction     =      -0.00009802 Ry
     electric field correction =       0.28584816 Ry

     total magnetization       =     1.00 Bohr mag/cell
     absolute magnetization    =     1.07 Bohr mag/cell

     convergence has been achieved in   2 iterations

     negative rho (up, down):  2.350E-04 1.634E-04

     Forces acting on atoms (cartesian axes, Ry/au):

     atom    1 type  1   force =     0.00000006   -0.00000011    0.00035120
     atom    2 type  2   force =    -0.00000004   -0.00022055   -0.00017561
     atom    3 type  2   force =    -0.00000002    0.00022066   -0.00017559

     Total force =     0.000399     Total SCF correction =     0.000029
     Energy error            =      4.1E-07
     Gradient error          =      2.2E-04

     bfgs converged in   2 scf cycles and   1 bfgs steps
     (criteria: energy <  7.3E-07 Ry, force <  3.9E-04 Ry/Bohr)

     End of BFGS Geometry Optimization

     Final energy   =     -22.4117365861 Ry

     File ./NH2_ESM_std.bfgs deleted, as requested
Begin final coordinates

ATOMIC_POSITIONS (angstrom)
N            10.0000000000       10.0000000000        0.0000000000    0   0   0
H             9.9999999582       10.8086142312       -0.6483002164
H             9.9999999490        9.1913857221       -0.6483002298
End final coordinates



     Writing output data file ./NH2_ESM_std.save/

     init_run     :     19.70s CPU     21.29s WALL (       1 calls)
     electrons    :    268.06s CPU    286.58s WALL (       2 calls)
     update_pot   :      7.77s CPU      8.24s WALL (       1 calls)
     forces       :     16.13s CPU     17.33s WALL (       2 calls)

     Called by init_run:
     wfcinit      :      1.45s CPU      1.84s WALL (       1 calls)
     potinit      :      7.31s CPU      8.03s WALL (       1 calls)
     hinit0       :      1.16s CPU      1.32s WALL (       1 calls)

     Called by electrons:
     c_bands      :    121.08s CPU    123.43s WALL (      14 calls)
     sum_band     :     31.58s CPU     32.79s WALL (      14 calls)
     v_of_rho     :     84.78s CPU     92.64s WALL (      15 calls)
     newd         :     10.77s CPU     11.42s WALL (      15 calls)
     mix_rho      :     16.72s CPU     20.32s WALL (      14 calls)

     Called by c_bands:
     init_us_2    :      0.53s CPU      0.55s WALL (      93 calls)
     ccgdiagg     :     97.60s CPU     99.27s WALL (      42 calls)
     wfcrot       :     19.62s CPU     19.86s WALL (      36 calls)

     Called by *cgdiagg:
     h_psi        :    101.87s CPU    103.23s WALL (    1355 calls)
     s_psi        :      5.59s CPU      5.65s WALL (    2674 calls)

     Called by h_psi:
     h_psi:calbec :      4.02s CPU      4.07s WALL (    1355 calls)
     vloc_psi     :     92.68s CPU     93.93s WALL (    1355 calls)
     add_vuspsi   :      4.66s CPU      4.71s WALL (    1355 calls)
     hs_1psi      :     86.46s CPU     87.63s WALL (    1319 calls)
     s_1psi       :      6.29s CPU      6.44s WALL (    1319 calls)

     General routines
     calbec       :      7.64s CPU      7.83s WALL (    2740 calls)
     fft          :     93.66s CPU     96.65s WALL (     404 calls)
     ffts         :      4.71s CPU      4.82s WALL (      58 calls)
     fftw         :     85.31s CPU     86.44s WALL (    3550 calls)
     interpolate  :     10.28s CPU     11.09s WALL (      30 calls)
     davcio       :      0.04s CPU      2.09s WALL (     268 calls)

     Parallel routines
     fft_scatt_xy :     29.93s CPU     30.31s WALL (    4012 calls)
     fft_scatt_yz :     61.95s CPU     62.99s WALL (    4012 calls)

     PWSCF        :   5m14.29s CPU   5m37.28s WALL


   This run was terminated on:  20:46:10  28Sep2022            

=------------------------------------------------------------------------------=
   JOB DONE.
=------------------------------------------------------------------------------=
