
     Program PWSCF v.6.4.1 starts on 12Jun2022 at 21: 1:26 

     This program is part of the open-source Quantum ESPRESSO suite
     for quantum simulation of materials; please cite
         "P. Giannozzi et al., J. Phys.:Condens. Matter 21 395502 (2009);
         "P. Giannozzi et al., J. Phys.:Condens. Matter 29 465901 (2017);
          URL http://www.quantum-espresso.org", 
     in publications or presentations arising from this work. More details at
     http://www.quantum-espresso.org/quote

     Parallel version (MPI), running on   160 processors

     MPI processes distributed on     8 nodes
     K-points division:     npool     =       8
     R & G space division:  proc/nbgrp/npool/nimage =      20
     Waiting for input...
     Reading input from standard input
Warning: card &CELL ignored
Warning: card / ignored

     Current dimensions of program PWSCF are:
     Max number of different atomic species (ntypx) = 10
     Max number of k-points (npk) =  40000
     Max angular momentum in pseudopotentials (lmaxx) =  3

     IMPORTANT: XC functional enforced from input :
     Exchange-correlation      = PBE ( 1  4  3  4 0 0)
     Any further DFT definition will be discarded
     Please, verify this is what you really want

               file Fe.pbe-spn-kjpaw_psl.0.2.1.UPF: wavefunction(s)  3D renormalized

     -------------------------------------------------
     Parameters for Dispersion (Grimme-D2) Correction:
     -------------------------------------------------
       atom      VdW radius       C_6     

        Fe         2.952        374.666
        N          2.640         42.670
        H          1.892          4.857

     Subspace diagonalization in iterative solution of the eigenvalue problem:
     one sub-group per band group will be used
     scalapack distributed-memory algorithm (size of sub-group:  3*  3 procs)


     Parallelization info
     --------------------
     sticks:   dense  smooth     PW     G-vecs:    dense   smooth      PW
     Min         634     317     83               145278    51361    6989
     Max         635     318     84               145287    51370    7000
     Sum       12685    6351   1677              2905599  1027285  139897



     bravais-lattice index     =            0
     lattice parameter (alat)  =      18.7640  a.u.
     unit-cell volume          =   16360.3163 (a.u.)^3
     number of atoms/cell      =           66
     number of atomic types    =            3
     number of electrons       =      1030.00
     number of Kohn-Sham states=          618
     kinetic-energy cutoff     =      60.0000  Ry
     charge density cutoff     =     480.0000  Ry
     convergence threshold     =      1.0E-08
     mixing beta               =       0.2000
     number of iterations used =           10  local-TF  mixing
     Exchange-correlation      = PBE ( 1  4  3  4 0 0)
     nstep                     =           50


     Effective Screening Medium Method
     =================================
     Boundary Conditions: Metal-Slab-Metal
     field strength                   =    -0.01 Ry/a.u.
     grid points for fit at edges     =        4 


     celldm(1)=  18.764036  celldm(2)=   0.000000  celldm(3)=   0.000000
     celldm(4)=   0.000000  celldm(5)=   0.000000  celldm(6)=   0.000000

     crystal axes: (cart. coord. in units of alat)
               a(1) = (   1.000000   0.000000   0.000000 )  
               a(2) = (   0.333330   0.942807   0.000000 )  
               a(3) = (   0.000000   0.000000   2.626577 )  

     reciprocal axes: (cart. coord. in units 2 pi/alat)
               b(1) = (  1.000000 -0.353551  0.000000 )  
               b(2) = (  0.000000  1.060663  0.000000 )  
               b(3) = (  0.000000  0.000000  0.380724 )  


     PseudoPot. # 1 for Fe read from file:
     ../../SSSP/Fe.pbe-spn-kjpaw_psl.0.2.1.UPF
     MD5 check sum: e86618425769142926afa95317d90200
     Pseudo is Projector augmented-wave + core cor, Zval = 16.0
     Generated using "atomic" code by A. Dal Corso v.5.0.99 svn rev. 10869
     Shape of augmentation charge: PSQ
     Using radial grid of 1191 points,  6 beta functions with: 
                l(1) =   0
                l(2) =   0
                l(3) =   1
                l(4) =   1
                l(5) =   2
                l(6) =   2
     Q(r) pseudized with 0 coefficients 


     PseudoPot. # 2 for N  read from file:
     ../../SSSP/N.pbe-n-radius_5.UPF
     MD5 check sum: 16739722b17309cd8fe442a2ace49922
     Pseudo is Ultrasoft + core correction, Zval =  5.0
     Generated using "atomic" code by A. Dal Corso v.5.1
     Using radial grid of 1085 points,  4 beta functions with: 
                l(1) =   0
                l(2) =   0
                l(3) =   1
                l(4) =   1
     Q(r) pseudized with 0 coefficients 


     PseudoPot. # 3 for H  read from file:
     ../../SSSP/H.pbe-rrkjus_psl.1.0.0.UPF
     MD5 check sum: f52b6d4d1c606e5624b1dc7b2218f220
     Pseudo is Ultrasoft, Zval =  1.0
     Generated using "atomic" code by A. Dal Corso v.5.1
     Using radial grid of  929 points,  2 beta functions with: 
                l(1) =   0
                l(2) =   0
     Q(r) pseudized with 0 coefficients 


     atomic species   valence    mass     pseudopotential
        Fe            16.00    55.84500     Fe( 1.00)
        N              5.00    14.00700     N ( 1.00)
        H              1.00     1.00800     H ( 1.00)

     Starting magnetic structure 
     atomic species   magnetization
        Fe           0.100
        N            0.100
        H            0.100

     No symmetry found



   Cartesian axes

     site n.     atom                  positions (alat units)
         1           Fe  tau(   1) = (   0.1666663   0.1178509   0.0000000  )
         2           Fe  tau(   2) = (   0.0000000   0.0000000   0.2041376  )
         3           Fe  tau(   3) = (   0.4999989   0.3535526   0.0000000  )
         4           Fe  tau(   4) = (   0.3333326   0.2357017   0.2041376  )
         5           Fe  tau(   5) = (   0.1686570   0.1178361   0.4052985  )
         6           Fe  tau(   6) = (   0.3341358   0.9417664   0.6035990  )
         7           Fe  tau(   7) = (   0.5010430   0.3547508   0.4069156  )
         8           Fe  tau(   8) = (   0.3388211   0.2353710   0.6054253  )
         9           Fe  tau(   9) = (   0.2499989   0.3535526   0.0000000  )
        10           Fe  tau(  10) = (   0.4166663   0.1178509   0.0000000  )
        11           Fe  tau(  11) = (   0.0833326   0.2357017   0.2041376  )
        12           Fe  tau(  12) = (   0.2500000   0.0000000   0.2041376  )
        13           Fe  tau(  13) = (   0.2500012   0.3535905   0.4067842  )
        14           Fe  tau(  14) = (   0.4190288   0.1195738   0.4060351  )
        15           Fe  tau(  15) = (   0.0865029   0.2339483   0.6039407  )
        16           Fe  tau(  16) = (   0.2513002   0.0009626   0.6053753  )
        17           Fe  tau(  17) = (   0.6666663   0.1178509   0.0000000  )
        18           Fe  tau(  18) = (   0.5000000   0.0000000   0.2041376  )
        19           Fe  tau(  19) = (   0.9999989   0.3535526   0.0000000  )
        20           Fe  tau(  20) = (   0.8333326   0.2357017   0.2041376  )
        21           Fe  tau(  21) = (   0.6681070   0.1185056   0.4068920  )
        22           Fe  tau(  22) = (   0.5014987   0.0053781   0.6054539  )
        23           Fe  tau(  23) = (   0.9989796   0.3524590   0.4068887  )
        24           Fe  tau(  24) = (   0.8420520   0.2235134   0.6021218  )
        25           Fe  tau(  25) = (   0.7499989   0.3535526   0.0000000  )
        26           Fe  tau(  26) = (   0.9166663   0.1178509   0.0000000  )
        27           Fe  tau(  27) = (   0.5833326   0.2357017   0.2041376  )
        28           Fe  tau(  28) = (   0.7500000   0.0000000   0.2041376  )
        29           Fe  tau(  29) = (   0.7500236   0.3535939   0.4028008  )
        30           Fe  tau(  30) = (   0.9183951   0.1154738   0.4034655  )
        31           Fe  tau(  31) = (   0.5922890   0.2421038   0.6094174  )
        32           Fe  tau(  32) = (   1.0840350   0.9393380   0.6039418  )
        33           Fe  tau(  33) = (   0.3333315   0.5892543   0.0000000  )
        34           Fe  tau(  34) = (   0.1666652   0.4714034   0.2041376  )
        35           Fe  tau(  35) = (   0.6666640   0.8249560   0.0000000  )
        36           Fe  tau(  36) = (   0.4999978   0.7071052   0.2041376  )
        37           Fe  tau(  37) = (   0.3313717   0.5893360   0.4053031  )
        38           Fe  tau(  38) = (   1.1612429   0.4718510   0.6054455  )
        39           Fe  tau(  39) = (   0.6672999   0.8268818   0.4053013  )
        40           Fe  tau(  40) = (   0.4992366   0.7082722   0.6034780  )
        41           Fe  tau(  41) = (   0.4166640   0.8249560   0.0000000  )
        42           Fe  tau(  42) = (   0.5833315   0.5892543   0.0000000  )
        43           Fe  tau(  43) = (   1.2499978   0.7071052   0.2041376  )
        44           Fe  tau(  44) = (   0.4166652   0.4714034   0.2041376  )
        45           Fe  tau(  45) = (   0.4166665   0.8250173   0.4049699  )
        46           Fe  tau(  46) = (   0.5816472   0.5917018   0.4034350  )
        47           Fe  tau(  47) = (   1.2487477   0.7062702   0.6053654  )
        48           Fe  tau(  48) = (   0.4135322   0.4732989   0.6040109  )
        49           Fe  tau(  49) = (   0.8333315   0.5892543   0.0000000  )
        50           Fe  tau(  50) = (   0.6666652   0.4714034   0.2041376  )
        51           Fe  tau(  51) = (   1.1666640   0.8249560   0.0000000  )
        52           Fe  tau(  52) = (   0.9999978   0.7071052   0.2041376  )
        53           Fe  tau(  53) = (   0.8319285   0.5887257   0.4069179  )
        54           Fe  tau(  54) = (   0.6579955   0.4838139   0.6021141  )
        55           Fe  tau(  55) = (   1.1660742   0.8231260   0.4052964  )
        56           Fe  tau(  56) = (   0.9985899   0.7019248   0.6054131  )
        57           Fe  tau(  57) = (   0.9166640   0.8249560   0.0000000  )
        58           Fe  tau(  58) = (   1.0833315   0.5892543   0.0000000  )
        59           Fe  tau(  59) = (   0.7499978   0.7071052   0.2041376  )
        60           Fe  tau(  60) = (   0.9166652   0.4714034   0.2041376  )
        61           Fe  tau(  61) = (   0.9166921   0.8250249   0.4067847  )
        62           Fe  tau(  62) = (   1.0809967   0.5876498   0.4060352  )
        63           Fe  tau(  63) = (   0.7493592   0.7108084   0.6040097  )
        64           Fe  tau(  64) = (   0.9078334   0.4652128   0.6093978  )
        65           N   tau(  65) = (   0.7501811   0.3537892   0.7047560  )
        66           H   tau(  66) = (   0.7501937   0.3538470   0.8083119  )

     number of k points=    10  Methfessel-Paxton smearing, width (Ry)=  0.0100
                       cart. coord. in units 2pi/alat
        k(    1) = (   0.0000000   0.0000000   0.0000000), wk =   0.0625000
        k(    2) = (   0.0000000   0.2651656   0.0000000), wk =   0.1250000
        k(    3) = (   0.0000000  -0.5303313   0.0000000), wk =   0.0625000
        k(    4) = (   0.2500000  -0.0883878   0.0000000), wk =   0.1250000
        k(    5) = (   0.2500000   0.1767779   0.0000000), wk =   0.1250000
        k(    6) = (   0.2500000  -0.6187190   0.0000000), wk =   0.1250000
        k(    7) = (   0.2500000  -0.3535534   0.0000000), wk =   0.1250000
        k(    8) = (  -0.5000000   0.1767755   0.0000000), wk =   0.0625000
        k(    9) = (  -0.5000000   0.4419412   0.0000000), wk =   0.1250000
        k(   10) = (  -0.5000000  -0.3535558   0.0000000), wk =   0.0625000

     Dense  grid:  2905599 G-vectors     FFT dimensions: ( 135, 135, 360)

     Smooth grid:  1027285 G-vectors     FFT dimensions: (  96,  96, 243)

     Estimated max dynamical RAM per process >       1.01 GB

     Estimated total dynamical RAM >     161.82 GB
     Generating pointlists ...
     new r_m :   0.0782 (alat units)  1.4674 (a.u.) for type    1
     new r_m :   0.0427 (alat units)  0.8015 (a.u.) for type    2
     new r_m :   0.0427 (alat units)  0.8015 (a.u.) for type    3

     Check: negative core charge=   -0.000039

     Initial potential from superposition of free atoms

     starting charge 1029.97193, renormalised to 1030.00000

     negative rho (up, down):  2.450E-02 2.523E-03
     Starting wfcs are  837 randomized atomic wfcs
     Checking if some PAW data can be deallocated... 

     total cpu time spent up to now is       88.7 secs

     Self-consistent Calculation

     iteration #  1     ecut=    60.00 Ry     beta= 0.20
     Davidson diagonalization with overlap
     c_bands:  1 eigenvalues not converged
     ethr =  1.00E-04,  avg # of iterations = 18.8

     negative rho (up, down):  1.291E-02 3.474E-03

     total cpu time spent up to now is     1104.3 secs

     total energy              =  -21088.73544169 Ry
     Harris-Foulkes estimate   =  -21095.61582518 Ry
     estimated scf accuracy    <     335.04386971 Ry

     total magnetization       =   107.07 Bohr mag/cell
     absolute magnetization    =   107.94 Bohr mag/cell

     iteration #  2     ecut=    60.00 Ry     beta= 0.20
     Davidson diagonalization with overlap
     ethr =  1.00E-02,  avg # of iterations =  1.0

     negative rho (up, down):  9.791E-03 4.042E-02

     total cpu time spent up to now is     1235.9 secs

     total energy              =  -21092.44824698 Ry
     Harris-Foulkes estimate   =  -21095.03574395 Ry
     estimated scf accuracy    <     138.03870133 Ry

     total magnetization       =   108.62 Bohr mag/cell
     absolute magnetization    =   109.57 Bohr mag/cell

     iteration #  3     ecut=    60.00 Ry     beta= 0.20
     Davidson diagonalization with overlap
     ethr =  1.00E-02,  avg # of iterations =  1.0

     negative rho (up, down):  5.059E-03 1.713E-02

     total cpu time spent up to now is     1370.3 secs

     total energy              =  -21093.70706452 Ry
     Harris-Foulkes estimate   =  -21093.81140827 Ry
     estimated scf accuracy    <       9.37593135 Ry

     total magnetization       =   132.93 Bohr mag/cell
     absolute magnetization    =   133.34 Bohr mag/cell

     iteration #  4     ecut=    60.00 Ry     beta= 0.20
     Davidson diagonalization with overlap
     ethr =  9.10E-04,  avg # of iterations =  1.0

     negative rho (up, down):  3.281E-03 2.068E-02

     total cpu time spent up to now is     1503.0 secs

     total energy              =  -21093.74716917 Ry
     Harris-Foulkes estimate   =  -21093.79896148 Ry
     estimated scf accuracy    <      14.29554694 Ry

     total magnetization       =   139.74 Bohr mag/cell
     absolute magnetization    =   140.24 Bohr mag/cell

     iteration #  5     ecut=    60.00 Ry     beta= 0.20
     Davidson diagonalization with overlap
     ethr =  9.10E-04,  avg # of iterations =  1.0

     negative rho (up, down):  1.900E-02 2.026E-01

     total cpu time spent up to now is     1633.5 secs

     total energy              =  -21091.87661673 Ry
     Harris-Foulkes estimate   =  -21093.78011594 Ry
     estimated scf accuracy    <      14.76269275 Ry

     total magnetization       =   142.84 Bohr mag/cell
     absolute magnetization    =   143.47 Bohr mag/cell

     iteration #  6     ecut=    60.00 Ry     beta= 0.20
     Davidson diagonalization with overlap
     ethr =  9.10E-04,  avg # of iterations =  7.1

     negative rho (up, down):  3.597E-03 1.136E-01

     total cpu time spent up to now is     1852.3 secs

     total energy              =  -21093.18986262 Ry
     Harris-Foulkes estimate   =  -21093.02088872 Ry
     estimated scf accuracy    <       3.53572729 Ry

     total magnetization       =   156.77 Bohr mag/cell
     absolute magnetization    =   160.44 Bohr mag/cell

     iteration #  7     ecut=    60.00 Ry     beta= 0.20
     Davidson diagonalization with overlap
     ethr =  3.43E-04,  avg # of iterations =  6.7

     negative rho (up, down):  7.449E-04 4.199E-02

     total cpu time spent up to now is     2072.0 secs

     total energy              =  -21093.49443126 Ry
     Harris-Foulkes estimate   =  -21093.50350869 Ry
     estimated scf accuracy    <       0.79997624 Ry

     total magnetization       =   150.33 Bohr mag/cell
     absolute magnetization    =   153.83 Bohr mag/cell

     iteration #  8     ecut=    60.00 Ry     beta= 0.20
     Davidson diagonalization with overlap
     c_bands:  3 eigenvalues not converged
     ethr =  7.77E-05,  avg # of iterations = 16.2

     negative rho (up, down):  2.690E-04 2.125E-02

     total cpu time spent up to now is     2794.2 secs

     total energy              =  -21093.80412546 Ry
     Harris-Foulkes estimate   =  -21093.86185956 Ry
     estimated scf accuracy    <       1.34356606 Ry

     total magnetization       =   149.94 Bohr mag/cell
     absolute magnetization    =   154.89 Bohr mag/cell

     iteration #  9     ecut=    60.00 Ry     beta= 0.20
     Davidson diagonalization with overlap
     ethr =  7.77E-05,  avg # of iterations =  4.2

     negative rho (up, down):  1.323E-04 2.675E-02

     total cpu time spent up to now is     3009.8 secs

     total energy              =  -21093.77660660 Ry
     Harris-Foulkes estimate   =  -21093.82589535 Ry
     estimated scf accuracy    <       0.43688703 Ry

     total magnetization       =   150.69 Bohr mag/cell
     absolute magnetization    =   155.36 Bohr mag/cell

     iteration # 10     ecut=    60.00 Ry     beta= 0.20
     Davidson diagonalization with overlap
     ethr =  4.24E-05,  avg # of iterations =  2.8

     negative rho (up, down):  1.920E-04 2.517E-02

     total cpu time spent up to now is     3167.6 secs

     total energy              =  -21093.79550327 Ry
     Harris-Foulkes estimate   =  -21093.81237410 Ry
     estimated scf accuracy    <       0.60102835 Ry

     total magnetization       =   154.08 Bohr mag/cell
     absolute magnetization    =   158.52 Bohr mag/cell

     iteration # 11     ecut=    60.00 Ry     beta= 0.20
     Davidson diagonalization with overlap
     ethr =  4.24E-05,  avg # of iterations =  1.4

     negative rho (up, down):  1.508E-04 2.311E-02

     total cpu time spent up to now is     3309.5 secs

     total energy              =  -21093.81250979 Ry
     Harris-Foulkes estimate   =  -21093.82064936 Ry
     estimated scf accuracy    <       0.18704750 Ry

     total magnetization       =   156.93 Bohr mag/cell
     absolute magnetization    =   161.49 Bohr mag/cell

     iteration # 12     ecut=    60.00 Ry     beta= 0.20
     Davidson diagonalization with overlap
     c_bands:  4 eigenvalues not converged
     ethr =  1.82E-05,  avg # of iterations = 12.1

     negative rho (up, down):  7.479E-05 1.400E-02

     total cpu time spent up to now is     3656.5 secs

     total energy              =  -21093.82865371 Ry
     Harris-Foulkes estimate   =  -21093.83297961 Ry
     estimated scf accuracy    <       0.18466646 Ry

     total magnetization       =   158.39 Bohr mag/cell
     absolute magnetization    =   163.42 Bohr mag/cell

     iteration # 13     ecut=    60.00 Ry     beta= 0.20
     Davidson diagonalization with overlap
     c_bands:  3 eigenvalues not converged
     ethr =  1.79E-05,  avg # of iterations = 11.6

     negative rho (up, down):  4.867E-03 2.961E-02

     total cpu time spent up to now is     3960.5 secs

     total energy              =  -21093.81854248 Ry
     Harris-Foulkes estimate   =  -21093.83934308 Ry
     estimated scf accuracy    <       0.12818746 Ry

     total magnetization       =   159.33 Bohr mag/cell
     absolute magnetization    =   164.44 Bohr mag/cell

     iteration # 14     ecut=    60.00 Ry     beta= 0.20
     Davidson diagonalization with overlap
     c_bands:  2 eigenvalues not converged
     ethr =  1.24E-05,  avg # of iterations = 15.0

     negative rho (up, down):  1.125E-02 3.372E-02

     total cpu time spent up to now is     4333.7 secs

     total energy              =  -21093.82993337 Ry
     Harris-Foulkes estimate   =  -21093.84199105 Ry
     estimated scf accuracy    <       0.35430978 Ry

     total magnetization       =   160.35 Bohr mag/cell
     absolute magnetization    =   165.53 Bohr mag/cell

     iteration # 15     ecut=    60.00 Ry     beta= 0.20
     Davidson diagonalization with overlap
     c_bands:  2 eigenvalues not converged
     ethr =  1.24E-05,  avg # of iterations = 10.6

     negative rho (up, down):  3.723E-02 3.195E-02

     total cpu time spent up to now is     4604.9 secs

     total energy              =  -21093.82822494 Ry
     Harris-Foulkes estimate   =  -21093.83702048 Ry
     estimated scf accuracy    <       0.10160366 Ry

     total magnetization       =   160.89 Bohr mag/cell
     absolute magnetization    =   166.16 Bohr mag/cell

     iteration # 16     ecut=    60.00 Ry     beta= 0.20
     Davidson diagonalization with overlap
     c_bands:  2 eigenvalues not converged
     ethr =  9.86E-06,  avg # of iterations =  7.8

     negative rho (up, down):  1.780E-01 2.522E-02

     total cpu time spent up to now is     4849.1 secs

     total energy              =  -21093.81790508 Ry
     Harris-Foulkes estimate   =  -21093.83187160 Ry
     estimated scf accuracy    <       0.07102701 Ry

     total magnetization       =   160.91 Bohr mag/cell
     absolute magnetization    =   166.21 Bohr mag/cell

     iteration # 17     ecut=    60.00 Ry     beta= 0.20
     Davidson diagonalization with overlap
     c_bands:  3 eigenvalues not converged
     ethr =  6.90E-06,  avg # of iterations = 18.1

     negative rho (up, down):  1.751E-01 1.865E-02

     total cpu time spent up to now is     5408.5 secs

     total energy              =  -21093.81295050 Ry
     Harris-Foulkes estimate   =  -21093.82784805 Ry
     estimated scf accuracy    <       0.03905810 Ry

     total magnetization       =   161.11 Bohr mag/cell
     absolute magnetization    =   166.66 Bohr mag/cell

     iteration # 18     ecut=    60.00 Ry     beta= 0.20
     Davidson diagonalization with overlap
     c_bands:  1 eigenvalues not converged
     c_bands:  1 eigenvalues not converged
     c_bands:  1 eigenvalues not converged
     ethr =  3.79E-06,  avg # of iterations = 26.4

     negative rho (up, down):  1.320E-01 1.791E-02

     total cpu time spent up to now is     6426.4 secs

     total energy              =  -21093.80019405 Ry
     Harris-Foulkes estimate   =  -21093.82199969 Ry
     estimated scf accuracy    <       0.03450233 Ry

     total magnetization       =   160.61 Bohr mag/cell
     absolute magnetization    =   166.46 Bohr mag/cell

     iteration # 19     ecut=    60.00 Ry     beta= 0.20
     Davidson diagonalization with overlap
     c_bands:  1 eigenvalues not converged
     ethr =  3.35E-06,  avg # of iterations = 17.5

     negative rho (up, down):  1.920E-01 1.767E-02

     total cpu time spent up to now is     6991.9 secs

     total energy              =  -21093.79212747 Ry
     Harris-Foulkes estimate   =  -21093.80239049 Ry
     estimated scf accuracy    <       0.01990636 Ry

     total magnetization       =   160.73 Bohr mag/cell
     absolute magnetization    =   166.65 Bohr mag/cell

     iteration # 20     ecut=    60.00 Ry     beta= 0.20
     Davidson diagonalization with overlap
     c_bands:  1 eigenvalues not converged
     ethr =  1.93E-06,  avg # of iterations = 25.4

     negative rho (up, down):  1.604E-01 1.778E-02

     total cpu time spent up to now is     8014.8 secs

     total energy              =  -21093.77536229 Ry
     Harris-Foulkes estimate   =  -21093.79441594 Ry
     estimated scf accuracy    <       0.01576742 Ry

     total magnetization       =   160.81 Bohr mag/cell
     absolute magnetization    =   166.89 Bohr mag/cell

     iteration # 21     ecut=    60.00 Ry     beta= 0.20
     Davidson diagonalization with overlap
     ethr =  1.53E-06,  avg # of iterations = 15.2

     negative rho (up, down):  1.204E-01 1.686E-02

     total cpu time spent up to now is     8421.5 secs

     total energy              =  -21093.74523718 Ry
     Harris-Foulkes estimate   =  -21093.77715945 Ry
     estimated scf accuracy    <       0.01035535 Ry

     total magnetization       =   161.12 Bohr mag/cell
     absolute magnetization    =   167.40 Bohr mag/cell

     iteration # 22     ecut=    60.00 Ry     beta= 0.20
     Davidson diagonalization with overlap
     ethr =  1.01E-06,  avg # of iterations = 27.5

     negative rho (up, down):  1.135E-01 1.730E-02

     total cpu time spent up to now is     9891.4 secs

     total energy              =  -21093.74704388 Ry
     Harris-Foulkes estimate   =  -21093.74786407 Ry
     estimated scf accuracy    <       0.00500887 Ry

     total magnetization       =   160.55 Bohr mag/cell
     absolute magnetization    =   167.14 Bohr mag/cell

     iteration # 23     ecut=    60.00 Ry     beta= 0.20
     Davidson diagonalization with overlap
     ethr =  4.86E-07,  avg # of iterations = 17.6

     negative rho (up, down):  6.231E-02 1.939E-02

     total cpu time spent up to now is    10434.1 secs

     total energy              =  -21093.74800121 Ry
     Harris-Foulkes estimate   =  -21093.74768961 Ry
     estimated scf accuracy    <       0.00331906 Ry

     total magnetization       =   160.63 Bohr mag/cell
     absolute magnetization    =   167.25 Bohr mag/cell

     iteration # 24     ecut=    60.00 Ry     beta= 0.20
     Davidson diagonalization with overlap
     ethr =  3.22E-07,  avg # of iterations = 14.2

     negative rho (up, down):  4.145E-02 2.011E-02

     total cpu time spent up to now is    10927.4 secs

     total energy              =  -21093.74694978 Ry
     Harris-Foulkes estimate   =  -21093.74837028 Ry
     estimated scf accuracy    <       0.00116134 Ry

     total magnetization       =   160.90 Bohr mag/cell
     absolute magnetization    =   167.51 Bohr mag/cell

     iteration # 25     ecut=    60.00 Ry     beta= 0.20
     Davidson diagonalization with overlap
     ethr =  1.13E-07,  avg # of iterations = 12.9

     negative rho (up, down):  3.885E-02 1.986E-02

     total cpu time spent up to now is    11675.2 secs

     total energy              =  -21093.74794043 Ry
     Harris-Foulkes estimate   =  -21093.74757182 Ry
     estimated scf accuracy    <       0.00047397 Ry

     total magnetization       =   160.97 Bohr mag/cell
     absolute magnetization    =   167.61 Bohr mag/cell

     iteration # 26     ecut=    60.00 Ry     beta= 0.20
     Davidson diagonalization with overlap
     ethr =  4.60E-08,  avg # of iterations = 11.7

     negative rho (up, down):  3.199E-02 1.992E-02

     total cpu time spent up to now is    12217.7 secs

     total energy              =  -21093.75063912 Ry
     Harris-Foulkes estimate   =  -21093.74803397 Ry
     estimated scf accuracy    <       0.00041313 Ry

     total magnetization       =   160.94 Bohr mag/cell
     absolute magnetization    =   167.58 Bohr mag/cell

     iteration # 27     ecut=    60.00 Ry     beta= 0.20
     Davidson diagonalization with overlap
     ethr =  4.01E-08,  avg # of iterations =  7.5

     negative rho (up, down):  2.601E-02 1.995E-02

     total cpu time spent up to now is    12484.5 secs

     total energy              =  -21093.75566633 Ry
     Harris-Foulkes estimate   =  -21093.75066927 Ry
     estimated scf accuracy    <       0.00017720 Ry

     total magnetization       =   160.95 Bohr mag/cell
     absolute magnetization    =   167.60 Bohr mag/cell

     iteration # 28     ecut=    60.00 Ry     beta= 0.20
     Davidson diagonalization with overlap
     ethr =  1.72E-08,  avg # of iterations = 11.8

     negative rho (up, down):  2.817E-02 1.953E-02

     total cpu time spent up to now is    13290.8 secs

     total energy              =  -21093.75432757 Ry
     Harris-Foulkes estimate   =  -21093.75575479 Ry
     estimated scf accuracy    <       0.00016785 Ry

     total magnetization       =   160.96 Bohr mag/cell
     absolute magnetization    =   167.61 Bohr mag/cell

     iteration # 29     ecut=    60.00 Ry     beta= 0.20
     Davidson diagonalization with overlap
     ethr =  1.63E-08,  avg # of iterations =  4.8

     negative rho (up, down):  2.860E-02 1.946E-02

     total cpu time spent up to now is    13478.2 secs

     total energy              =  -21093.75444652 Ry
     Harris-Foulkes estimate   =  -21093.75433627 Ry
     estimated scf accuracy    <       0.00011871 Ry

     total magnetization       =   160.94 Bohr mag/cell
     absolute magnetization    =   167.59 Bohr mag/cell

     iteration # 30     ecut=    60.00 Ry     beta= 0.20
     Davidson diagonalization with overlap
     ethr =  1.15E-08,  avg # of iterations =  5.3

     negative rho (up, down):  2.794E-02 1.969E-02

     total cpu time spent up to now is    13682.4 secs

     total energy              =  -21093.75535577 Ry
     Harris-Foulkes estimate   =  -21093.75445038 Ry
     estimated scf accuracy    <       0.00010655 Ry

     total magnetization       =   160.94 Bohr mag/cell
     absolute magnetization    =   167.59 Bohr mag/cell

     iteration # 31     ecut=    60.00 Ry     beta= 0.20
     Davidson diagonalization with overlap
     ethr =  1.03E-08,  avg # of iterations =  2.9

     negative rho (up, down):  2.817E-02 1.968E-02

     total cpu time spent up to now is    13869.5 secs

     total energy              =  -21093.75546208 Ry
     Harris-Foulkes estimate   =  -21093.75536019 Ry
     estimated scf accuracy    <       0.00007509 Ry

     total magnetization       =   160.97 Bohr mag/cell
     absolute magnetization    =   167.62 Bohr mag/cell

     iteration # 32     ecut=    60.00 Ry     beta= 0.20
     Davidson diagonalization with overlap
     ethr =  7.29E-09,  avg # of iterations =  3.3

     negative rho (up, down):  2.574E-02 1.981E-02

     total cpu time spent up to now is    14064.5 secs

     total energy              =  -21093.75751178 Ry
     Harris-Foulkes estimate   =  -21093.75546505 Ry
     estimated scf accuracy    <       0.00005987 Ry

     total magnetization       =   160.98 Bohr mag/cell
     absolute magnetization    =   167.62 Bohr mag/cell

     iteration # 33     ecut=    60.00 Ry     beta= 0.20
     Davidson diagonalization with overlap
     ethr =  5.81E-09,  avg # of iterations =  8.8

     negative rho (up, down):  2.560E-02 1.983E-02

     total cpu time spent up to now is    14292.8 secs

     total energy              =  -21093.75811805 Ry
     Harris-Foulkes estimate   =  -21093.75751857 Ry
     estimated scf accuracy    <       0.00001553 Ry

     total magnetization       =   160.98 Bohr mag/cell
     absolute magnetization    =   167.63 Bohr mag/cell

     iteration # 34     ecut=    60.00 Ry     beta= 0.20
     Davidson diagonalization with overlap
     c_bands:  1 eigenvalues not converged
     c_bands:  5 eigenvalues not converged
     ethr =  1.51E-09,  avg # of iterations = 18.2

     negative rho (up, down):  2.509E-02 1.980E-02

     total cpu time spent up to now is    15184.1 secs

     total energy              =  -21093.75819046 Ry
     Harris-Foulkes estimate   =  -21093.75813517 Ry
     estimated scf accuracy    <       0.00001428 Ry

     total magnetization       =   160.97 Bohr mag/cell
     absolute magnetization    =   167.63 Bohr mag/cell

     iteration # 35     ecut=    60.00 Ry     beta= 0.20
     Davidson diagonalization with overlap
     c_bands:  2 eigenvalues not converged
     c_bands:  1 eigenvalues not converged
     ethr =  1.39E-09,  avg # of iterations =  7.4

     negative rho (up, down):  2.440E-02 1.978E-02

     total cpu time spent up to now is    15471.0 secs

     total energy              =  -21093.75846678 Ry
     Harris-Foulkes estimate   =  -21093.75819097 Ry
     estimated scf accuracy    <       0.00000957 Ry

     total magnetization       =   160.96 Bohr mag/cell
     absolute magnetization    =   167.62 Bohr mag/cell

     iteration # 36     ecut=    60.00 Ry     beta= 0.20
     Davidson diagonalization with overlap
     c_bands:  1 eigenvalues not converged
     ethr =  9.29E-10,  avg # of iterations =  7.3

     negative rho (up, down):  2.425E-02 1.975E-02

     total cpu time spent up to now is    15745.4 secs

     total energy              =  -21093.75848244 Ry
     Harris-Foulkes estimate   =  -21093.75846714 Ry
     estimated scf accuracy    <       0.00000738 Ry

     total magnetization       =   160.96 Bohr mag/cell
     absolute magnetization    =   167.62 Bohr mag/cell

     iteration # 37     ecut=    60.00 Ry     beta= 0.20
     Davidson diagonalization with overlap
     ethr =  7.16E-10,  avg # of iterations =  6.7

     negative rho (up, down):  2.443E-02 1.973E-02

     total cpu time spent up to now is    15969.4 secs

     total energy              =  -21093.75807081 Ry
     Harris-Foulkes estimate   =  -21093.75848287 Ry
     estimated scf accuracy    <       0.00000313 Ry

     total magnetization       =   160.95 Bohr mag/cell
     absolute magnetization    =   167.62 Bohr mag/cell

     iteration # 38     ecut=    60.00 Ry     beta= 0.20
     Davidson diagonalization with overlap
     ethr =  3.04E-10,  avg # of iterations = 10.1

     negative rho (up, down):  2.446E-02 1.971E-02

     total cpu time spent up to now is    16662.0 secs

     total energy              =  -21093.75801792 Ry
     Harris-Foulkes estimate   =  -21093.75807239 Ry
     estimated scf accuracy    <       0.00000148 Ry

     total magnetization       =   160.95 Bohr mag/cell
     absolute magnetization    =   167.62 Bohr mag/cell

     iteration # 39     ecut=    60.00 Ry     beta= 0.20
     Davidson diagonalization with overlap
     c_bands:  3 eigenvalues not converged
     ethr =  1.44E-10,  avg # of iterations =  8.9

     negative rho (up, down):  2.458E-02 1.972E-02

     total cpu time spent up to now is    17215.6 secs

     total energy              =  -21093.75800520 Ry
     Harris-Foulkes estimate   =  -21093.75801850 Ry
     estimated scf accuracy    <       0.00000042 Ry

     total magnetization       =   160.96 Bohr mag/cell
     absolute magnetization    =   167.63 Bohr mag/cell

     iteration # 40     ecut=    60.00 Ry     beta= 0.20
     Davidson diagonalization with overlap
     c_bands:  1 eigenvalues not converged
     ethr =  4.06E-11,  avg # of iterations = 11.6

     negative rho (up, down):  2.470E-02 1.971E-02

     total cpu time spent up to now is    17947.5 secs

     total energy              =  -21093.75799387 Ry
     Harris-Foulkes estimate   =  -21093.75800538 Ry
     estimated scf accuracy    <       0.00000024 Ry

     total magnetization       =   160.96 Bohr mag/cell
     absolute magnetization    =   167.63 Bohr mag/cell

     iteration # 41     ecut=    60.00 Ry     beta= 0.20
     Davidson diagonalization with overlap
     c_bands:  1 eigenvalues not converged
     ethr =  2.28E-11,  avg # of iterations =  8.8

     negative rho (up, down):  2.467E-02 1.970E-02

     total cpu time spent up to now is    18254.5 secs

     total energy              =  -21093.75800939 Ry
     Harris-Foulkes estimate   =  -21093.75799390 Ry
     estimated scf accuracy    <       0.00000009 Ry

     total magnetization       =   160.96 Bohr mag/cell
     absolute magnetization    =   167.63 Bohr mag/cell

     iteration # 42     ecut=    60.00 Ry     beta= 0.20
     Davidson diagonalization with overlap
     ethr =  8.67E-12,  avg # of iterations =  9.7

     negative rho (up, down):  2.467E-02 1.971E-02

     total cpu time spent up to now is    19045.2 secs

     total energy              =  -21093.75802006 Ry
     Harris-Foulkes estimate   =  -21093.75800943 Ry
     estimated scf accuracy    <       0.00000006 Ry

     total magnetization       =   160.96 Bohr mag/cell
     absolute magnetization    =   167.63 Bohr mag/cell

     iteration # 43     ecut=    60.00 Ry     beta= 0.20
     Davidson diagonalization with overlap
     ethr =  5.49E-12,  avg # of iterations =  3.8

     negative rho (up, down):  2.468E-02 1.971E-02

     total cpu time spent up to now is    19246.6 secs

     total energy              =  -21093.75805333 Ry
     Harris-Foulkes estimate   =  -21093.75802005 Ry
     estimated scf accuracy    <       0.00000004 Ry

     total magnetization       =   160.96 Bohr mag/cell
     absolute magnetization    =   167.63 Bohr mag/cell

     iteration # 44     ecut=    60.00 Ry     beta= 0.20
     Davidson diagonalization with overlap
     ethr =  4.11E-12,  avg # of iterations =  7.7

     negative rho (up, down):  2.466E-02 1.970E-02

     total cpu time spent up to now is    19734.7 secs

     total energy              =  -21093.75804210 Ry
     Harris-Foulkes estimate   =  -21093.75805336 Ry
     estimated scf accuracy    <       0.00000003 Ry

     total magnetization       =   160.97 Bohr mag/cell
     absolute magnetization    =   167.64 Bohr mag/cell

     iteration # 45     ecut=    60.00 Ry     beta= 0.20
     Davidson diagonalization with overlap
     ethr =  3.36E-12,  avg # of iterations =  2.4

     negative rho (up, down):  2.466E-02 1.970E-02

     total cpu time spent up to now is    19884.9 secs

     total energy              =  -21093.75801410 Ry
     Harris-Foulkes estimate   =  -21093.75804211 Ry
     estimated scf accuracy    <       0.00000002 Ry

     total magnetization       =   160.97 Bohr mag/cell
     absolute magnetization    =   167.64 Bohr mag/cell

     iteration # 46     ecut=    60.00 Ry     beta= 0.20
     Davidson diagonalization with overlap
     ethr =  2.06E-12,  avg # of iterations =  8.9

     negative rho (up, down):  2.468E-02 1.970E-02

     total cpu time spent up to now is    20504.5 secs

     total energy              =  -21093.75800986 Ry
     Harris-Foulkes estimate   =  -21093.75801409 Ry
     estimated scf accuracy    <       0.00000002 Ry

     total magnetization       =   160.97 Bohr mag/cell
     absolute magnetization    =   167.64 Bohr mag/cell

     iteration # 47     ecut=    60.00 Ry     beta= 0.20
     Davidson diagonalization with overlap
     ethr =  1.77E-12,  avg # of iterations =  5.8

     negative rho (up, down):  2.467E-02 1.969E-02

     Magnetic moment per site:
     atom:    1    charge:   12.9319    magn:    2.4300    constr:    0.0000
     atom:    2    charge:   12.9293    magn:    2.2644    constr:    0.0000
     atom:    3    charge:   12.9312    magn:    2.4359    constr:    0.0000
     atom:    4    charge:   12.9258    magn:    2.2607    constr:    0.0000
     atom:    5    charge:   12.9311    magn:    2.2374    constr:    0.0000
     atom:    6    charge:   12.9340    magn:    2.4081    constr:    0.0000
     atom:    7    charge:   12.9274    magn:    2.2406    constr:    0.0000
     atom:    8    charge:   12.9315    magn:    2.4360    constr:    0.0000
     atom:    9    charge:   12.9321    magn:    2.4286    constr:    0.0000
     atom:   10    charge:   12.9314    magn:    2.4357    constr:    0.0000
     atom:   11    charge:   12.9257    magn:    2.2684    constr:    0.0000
     atom:   12    charge:   12.9272    magn:    2.2571    constr:    0.0000
     atom:   13    charge:   12.9272    magn:    2.2525    constr:    0.0000
     atom:   14    charge:   12.9315    magn:    2.2045    constr:    0.0000
     atom:   15    charge:   12.9369    magn:    2.3926    constr:    0.0000
     atom:   16    charge:   12.9357    magn:    2.4098    constr:    0.0000
     atom:   17    charge:   12.9314    magn:    2.4360    constr:    0.0000
     atom:   18    charge:   12.9257    magn:    2.2607    constr:    0.0000
     atom:   19    charge:   12.9314    magn:    2.4360    constr:    0.0000
     atom:   20    charge:   12.9267    magn:    2.2524    constr:    0.0000
     atom:   21    charge:   12.9276    magn:    2.2403    constr:    0.0000
     atom:   22    charge:   12.9315    magn:    2.4361    constr:    0.0000
     atom:   23    charge:   12.9276    magn:    2.2404    constr:    0.0000
     atom:   24    charge:   12.9387    magn:    1.9218    constr:    0.0000
     atom:   25    charge:   12.9303    magn:    2.4430    constr:    0.0000
     atom:   26    charge:   12.9317    magn:    2.4294    constr:    0.0000
     atom:   27    charge:   12.9247    magn:    2.2686    constr:    0.0000
     atom:   28    charge:   12.9257    magn:    2.2684    constr:    0.0000
     atom:   29    charge:   12.9311    magn:    2.2876    constr:    0.0000
     atom:   30    charge:   12.9327    magn:    2.1815    constr:    0.0000
     atom:   31    charge:   12.9250    magn:    2.3177    constr:    0.0000
     atom:   32    charge:   12.9369    magn:    2.3923    constr:    0.0000
     atom:   33    charge:   12.9315    magn:    2.4300    constr:    0.0000
     atom:   34    charge:   12.9257    magn:    2.2607    constr:    0.0000
     atom:   35    charge:   12.9315    magn:    2.4300    constr:    0.0000
     atom:   36    charge:   12.9284    magn:    2.2643    constr:    0.0000
     atom:   37    charge:   12.9308    magn:    2.2377    constr:    0.0000
     atom:   38    charge:   12.9314    magn:    2.4359    constr:    0.0000
     atom:   39    charge:   12.9308    magn:    2.2378    constr:    0.0000
     atom:   40    charge:   12.9338    magn:    2.4074    constr:    0.0000
     atom:   41    charge:   12.9316    magn:    2.4423    constr:    0.0000
     atom:   42    charge:   12.9310    magn:    2.4293    constr:    0.0000
     atom:   43    charge:   12.9272    magn:    2.2572    constr:    0.0000
     atom:   44    charge:   12.9253    magn:    2.2683    constr:    0.0000
     atom:   45    charge:   12.9310    magn:    2.2188    constr:    0.0000
     atom:   46    charge:   12.9328    magn:    2.1810    constr:    0.0000
     atom:   47    charge:   12.9357    magn:    2.4096    constr:    0.0000
     atom:   48    charge:   12.9371    magn:    2.3927    constr:    0.0000
     atom:   49    charge:   12.9312    magn:    2.4359    constr:    0.0000
     atom:   50    charge:   12.9264    magn:    2.2523    constr:    0.0000
     atom:   51    charge:   12.9319    magn:    2.4301    constr:    0.0000
     atom:   52    charge:   12.9258    magn:    2.2607    constr:    0.0000
     atom:   53    charge:   12.9274    magn:    2.2408    constr:    0.0000
     atom:   54    charge:   12.9382    magn:    1.9218    constr:    0.0000
     atom:   55    charge:   12.9311    magn:    2.2373    constr:    0.0000
     atom:   56    charge:   12.9315    magn:    2.4358    constr:    0.0000
     atom:   57    charge:   12.9321    magn:    2.4286    constr:    0.0000
     atom:   58    charge:   12.9314    magn:    2.4358    constr:    0.0000
     atom:   59    charge:   12.9253    magn:    2.2683    constr:    0.0000
     atom:   60    charge:   12.9247    magn:    2.2686    constr:    0.0000
     atom:   61    charge:   12.9272    magn:    2.2525    constr:    0.0000
     atom:   62    charge:   12.9315    magn:    2.2046    constr:    0.0000
     atom:   63    charge:   12.9371    magn:    2.3930    constr:    0.0000
     atom:   64    charge:   12.9250    magn:    2.3149    constr:    0.0000
     atom:   65    charge:    1.3299    magn:   -0.0320    constr:    0.0000
     atom:   66    charge:    0.4354    magn:    0.0076    constr:    0.0000

     total cpu time spent up to now is    20810.8 secs

     End of self-consistent calculation

 ------ SPIN UP ------------


          k = 0.0000 0.0000 0.0000 (128403 PWs)   bands (ev):

   -94.9431 -94.9409 -94.8905 -94.8895 -94.8844 -94.8829 -94.8780 -94.8763
   -94.8740 -94.8701 -94.8678 -94.8634 -94.8594 -94.8574 -94.8549 -94.8534
   -94.8533 -94.8510 -94.8489 -94.8449 -94.8434 -94.8397 -94.8362 -94.8341
   -94.8321 -94.8285 -94.8282 -94.8279 -94.8277 -94.8197 -94.7910 -94.7878
   -94.7756 -94.7572 -94.7452 -94.7436 -94.7434 -94.7371 -94.7328 -94.7291
   -94.7220 -94.7215 -94.7207 -94.7205 -94.7201 -94.7162 -94.7156 -94.7146
   -94.7133 -94.7118 -94.7098 -94.7047 -94.7046 -94.7040 -94.7018 -94.6995
   -94.6967 -94.6938 -94.6889 -94.6874 -94.6822 -94.6781 -94.6717 -94.6633
   -61.1294 -61.1192 -61.0855 -61.0793 -61.0739 -61.0735 -61.0716 -61.0705
   -61.0670 -61.0600 -61.0554 -61.0515 -61.0506 -61.0492 -61.0484 -61.0466
   -61.0429 -61.0395 -61.0377 -61.0362 -61.0336 -61.0327 -61.0318 -61.0294
   -61.0275 -61.0273 -61.0267 -61.0264 -61.0244 -61.0213 -61.0180 -61.0162
   -61.0104 -61.0090 -61.0008 -61.0006 -60.9999 -60.9905 -60.9787 -60.9768
   -60.9757 -60.9751 -60.9739 -60.9736 -60.9682 -60.9670 -60.9444 -60.9317
   -60.9220 -60.9211 -60.9207 -60.9148 -60.9113 -60.9072 -60.9065 -60.9062
   -60.9048 -60.9006 -60.8980 -60.8972 -60.8952 -60.8947 -60.8945 -60.8914
   -60.8905 -60.8842 -60.8826 -60.8815 -60.8790 -60.8773 -60.8740 -60.8726
   -60.8702 -60.8613 -60.8574 -60.8555 -60.8489 -60.8488 -60.8462 -60.8442
   -60.8421 -60.8414 -60.8375 -60.8352 -60.8343 -60.8340 -60.8327 -60.8320
   -60.8302 -60.8289 -60.8271 -60.8267 -60.8256 -60.8211 -60.8188 -60.8183
   -60.8153 -60.8138 -60.8119 -60.8076 -60.8005 -60.7995 -60.7966 -60.7962
   -60.7928 -60.7897 -60.7877 -60.7827 -60.7818 -60.7809 -60.7806 -60.7776
   -60.7766 -60.7747 -60.7705 -60.7700 -60.7690 -60.7660 -60.7640 -60.7619
   -60.7602 -60.7598 -60.7587 -60.7577 -60.7566 -60.7537 -60.7529 -60.7509
   -60.7505 -60.7488 -60.7468 -60.7389 -60.7368 -60.7368 -60.7346 -60.7332
   -60.7262 -60.7260 -60.7242 -60.7191 -60.7187 -60.7172 -60.7156 -60.7152
   -60.7147 -60.7143 -60.7015 -60.7014 -60.6946 -60.6912 -60.6906 -60.6899
   -60.6897 -60.6850 -60.6848 -60.6848 -60.6768 -60.6752 -60.6709 -60.6689
   -60.6680 -60.6673 -60.6657 -60.6645 -60.6629 -60.6605 -60.6571 -60.6520
   -60.6502 -60.6500 -60.6477 -60.6416 -60.6413 -60.6375 -60.6350 -60.6328
   -60.6301 -60.6280 -60.6253 -60.6237 -60.6219 -60.6183 -60.6171 -60.6147
   -60.6136 -60.6134 -60.6109 -60.6093 -60.6085 -60.6073 -60.6024 -60.5997
   -22.9238 -14.8225 -14.4593 -13.3469 -13.0600 -13.0080 -12.9723 -12.9260
   -12.5509 -12.4851 -12.3012 -12.2936 -12.0293 -11.9926 -11.8568 -11.8299
   -11.6807 -11.5705 -11.5281 -11.4917 -11.3652 -11.3627 -11.3188 -11.3164
   -11.2999 -11.2583 -11.2346 -11.1770 -11.1734 -10.9314 -10.9003 -10.8900
   -10.8884 -10.8511 -10.8091 -10.8081 -10.7879 -10.7854 -10.7854 -10.7673
   -10.7651 -10.7616 -10.7600 -10.7543 -10.7527 -10.7502 -10.7277 -10.7241
   -10.7075 -10.7055 -10.6945 -10.6830 -10.6757 -10.6710 -10.6508 -10.6282
   -10.6009 -10.5847 -10.5724 -10.5163 -10.5101 -10.5054 -10.4931 -10.4883
   -10.4118 -10.3978 -10.2190 -10.2122 -10.1844 -10.1823 -10.1808 -10.1577
   -10.0956 -10.0517 -10.0356 -10.0253 -10.0177 -10.0090 -10.0077 -10.0058
    -9.9899  -9.9794  -9.9691  -9.9691  -9.9629  -9.9612  -9.9551  -9.9551
    -9.9514  -9.9457  -9.9413  -9.9281  -9.9273  -9.9239  -9.9184  -9.9065
    -9.8860  -9.8758  -9.8743  -9.8634  -9.8628  -9.8526  -9.8467  -9.8422
    -9.8355  -9.8156  -9.8126  -9.8099  -9.8075  -9.8033  -9.7956  -9.7344
    -9.7269  -9.6516  -9.6315  -9.6305  -9.6285  -9.6242  -9.5734  -9.5574
    -9.5171  -9.5058  -9.4399  -9.4384  -9.4310  -9.4255  -9.4199  -9.4194
    -9.4126  -9.3879  -9.3803  -9.3560  -9.3556  -9.3328  -9.3250  -9.3168
    -9.3050  -9.3037  -9.2921  -9.2918  -9.2844  -9.2839  -9.2795  -9.2721
    -9.2647  -9.2262  -9.2236  -9.1987  -9.1947  -9.1317  -9.1268  -9.1265
    -9.1257  -9.1031  -9.0825  -9.0818  -9.0736  -9.0696  -9.0559  -9.0397
    -9.0112  -9.0084  -9.0079  -8.9803  -8.9790  -8.9759  -8.9755  -8.9748
    -8.9443  -8.9366  -8.9295  -8.9083  -8.8900  -8.8831  -8.8776  -8.8759
    -8.8654  -8.8608  -8.8497  -8.8487  -8.8442  -8.8430  -8.8253  -8.8213
    -8.7936  -8.7876  -8.7273  -8.7206  -8.7143  -8.6075  -8.6021  -8.4621
    -8.4480  -8.4427  -8.3300  -8.3215  -8.3186  -8.3093  -8.3070  -8.3031
    -8.2967  -8.2921  -8.2815  -8.2629  -8.2507  -8.2494  -8.2403  -8.2292
    -8.1878  -8.1819  -8.1724  -8.1528  -8.1503  -8.1351  -8.1299  -8.1260
    -8.1197  -8.1088  -8.1085  -8.1032  -8.0986  -8.0940  -8.0627  -8.0582
    -8.0481  -8.0415  -8.0317  -8.0257  -8.0129  -8.0108  -8.0027  -8.0021
    -7.9796  -7.9795  -7.9716  -7.9688  -7.9685  -7.9639  -7.9475  -7.9454
    -7.9418  -7.9182  -7.9114  -7.9057  -7.9046  -7.9016  -7.8987  -7.8926
    -7.8914  -7.8862  -7.8859  -7.8844  -7.8818  -7.8765  -7.8756  -7.8697
    -7.8685  -7.8638  -7.8563  -7.8523  -7.8473  -7.8408  -7.8384  -7.8320
    -7.8295  -7.8127  -7.8076  -7.8050  -7.7966  -7.7873  -7.7771  -7.7711
    -7.7698  -7.7690  -7.7649  -7.7619  -7.7578  -7.7508  -7.7469  -7.7461
    -7.7234  -7.7182  -7.6923  -7.6877  -7.6749  -7.6638  -7.6506  -7.6497
    -7.6386  -7.6307  -7.6244  -7.6165  -7.5491  -7.5437  -7.5160  -7.5145
    -7.5085  -7.5004  -7.4941  -7.4850  -7.4828  -7.4771  -7.4743  -7.4726
    -7.4670  -7.4511  -7.4487  -7.4467  -7.4314  -7.4166  -7.4134  -7.4071
    -7.4071  -7.4005  -7.3457  -7.3209  -7.2167  -7.1584  -7.0185  -7.0113
    -7.0089  -6.9907  -6.9233  -6.9205  -6.8981  -6.8866  -6.8837  -6.8510
    -6.8289  -6.7958  -6.7869  -6.7587  -6.7493  -6.7440  -6.7225  -6.6855
    -6.6727  -6.6680  -6.6315  -6.5553  -6.5351  -6.5024  -6.5016  -6.4314
    -6.4105  -6.3336  -6.1689  -6.1434  -6.0632  -6.0531  -5.7220  -5.6952
    -5.6823  -5.6716  -5.4564  -5.3912  -5.1761  -4.7873  -4.7860  -4.7853
    -4.7419  -4.7316

          k = 0.0000 0.2652 0.0000 (128375 PWs)   bands (ev):

   -94.9430 -94.9409 -94.8894 -94.8890 -94.8858 -94.8814 -94.8799 -94.8784
   -94.8731 -94.8693 -94.8664 -94.8640 -94.8600 -94.8580 -94.8568 -94.8535
   -94.8505 -94.8498 -94.8479 -94.8471 -94.8426 -94.8413 -94.8346 -94.8336
   -94.8317 -94.8293 -94.8290 -94.8284 -94.8268 -94.8200 -94.7910 -94.7877
   -94.7754 -94.7567 -94.7495 -94.7438 -94.7399 -94.7366 -94.7318 -94.7275
   -94.7256 -94.7227 -94.7218 -94.7209 -94.7178 -94.7165 -94.7159 -94.7141
   -94.7123 -94.7108 -94.7097 -94.7062 -94.7045 -94.7035 -94.7017 -94.6987
   -94.6975 -94.6932 -94.6903 -94.6876 -94.6817 -94.6775 -94.6709 -94.6641
   -61.1286 -61.1194 -61.0845 -61.0787 -61.0758 -61.0727 -61.0706 -61.0703
   -61.0680 -61.0622 -61.0562 -61.0531 -61.0492 -61.0486 -61.0464 -61.0436
   -61.0421 -61.0407 -61.0386 -61.0354 -61.0345 -61.0328 -61.0305 -61.0295
   -61.0278 -61.0273 -61.0254 -61.0236 -61.0224 -61.0204 -61.0165 -61.0160
   -61.0103 -61.0040 -60.9991 -60.9965 -60.9936 -60.9907 -60.9843 -60.9774
   -60.9752 -60.9726 -60.9713 -60.9683 -60.9629 -60.9606 -60.9400 -60.9380
   -60.9321 -60.9243 -60.9228 -60.9208 -60.9190 -60.9160 -60.9125 -60.9085
   -60.9058 -60.9015 -60.8992 -60.8975 -60.8948 -60.8942 -60.8911 -60.8903
   -60.8884 -60.8875 -60.8868 -60.8834 -60.8814 -60.8792 -60.8756 -60.8725
   -60.8708 -60.8683 -60.8660 -60.8652 -60.8623 -60.8558 -60.8530 -60.8515
   -60.8475 -60.8458 -60.8431 -60.8416 -60.8403 -60.8372 -60.8312 -60.8298
   -60.8287 -60.8245 -60.8214 -60.8201 -60.8179 -60.8148 -60.8130 -60.8120
   -60.8110 -60.8077 -60.8056 -60.8032 -60.8029 -60.8011 -60.7973 -60.7941
   -60.7927 -60.7904 -60.7879 -60.7856 -60.7837 -60.7827 -60.7814 -60.7788
   -60.7778 -60.7752 -60.7743 -60.7723 -60.7706 -60.7673 -60.7641 -60.7619
   -60.7616 -60.7584 -60.7556 -60.7544 -60.7507 -60.7483 -60.7470 -60.7460
   -60.7424 -60.7404 -60.7396 -60.7388 -60.7342 -60.7327 -60.7306 -60.7287
   -60.7266 -60.7238 -60.7225 -60.7199 -60.7178 -60.7167 -60.7118 -60.7111
   -60.7085 -60.7056 -60.7045 -60.7022 -60.6952 -60.6936 -60.6908 -60.6901
   -60.6890 -60.6847 -60.6837 -60.6815 -60.6777 -60.6769 -60.6740 -60.6726
   -60.6680 -60.6674 -60.6643 -60.6620 -60.6580 -60.6565 -60.6531 -60.6500
   -60.6493 -60.6461 -60.6441 -60.6420 -60.6401 -60.6384 -60.6355 -60.6342
   -60.6324 -60.6301 -60.6285 -60.6267 -60.6229 -60.6225 -60.6196 -60.6188
   -60.6180 -60.6170 -60.6150 -60.6136 -60.6108 -60.6088 -60.6066 -60.6013
   -22.9238 -14.7694 -14.4041 -13.6506 -13.2487 -13.1253 -12.8636 -12.6925
   -12.5655 -12.3129 -12.3032 -12.1018 -12.0074 -11.9450 -11.8475 -11.7974
   -11.6520 -11.6036 -11.5271 -11.4515 -11.4013 -11.3306 -11.2995 -11.2705
   -11.2546 -11.2396 -11.2130 -11.1906 -11.1687 -11.0561 -10.9928 -10.9499
   -10.9240 -10.9070 -10.9020 -10.8915 -10.8767 -10.8742 -10.8617 -10.8455
   -10.8327 -10.8147 -10.7976 -10.7820 -10.7681 -10.7572 -10.7389 -10.7327
   -10.7097 -10.7010 -10.6942 -10.6769 -10.6477 -10.6181 -10.6120 -10.6062
   -10.5998 -10.5939 -10.5545 -10.5160 -10.5079 -10.4525 -10.4320 -10.4044
   -10.3984 -10.3640 -10.3092 -10.2919 -10.2522 -10.2146 -10.1773 -10.1412
   -10.1236 -10.1097 -10.0861 -10.0338 -10.0242 -10.0115 -10.0055  -9.9932
    -9.9886  -9.9809  -9.9707  -9.9637  -9.9604  -9.9509  -9.9443  -9.9358
    -9.9254  -9.9200  -9.9127  -9.9106  -9.8974  -9.8941  -9.8839  -9.8737
    -9.8721  -9.8657  -9.8614  -9.8505  -9.8499  -9.8409  -9.8317  -9.8153
    -9.7842  -9.7789  -9.7712  -9.7599  -9.7563  -9.7399  -9.7182  -9.7135
    -9.7061  -9.7000  -9.6767  -9.6499  -9.6038  -9.5939  -9.5599  -9.5460
    -9.5242  -9.5143  -9.5073  -9.4966  -9.4847  -9.4392  -9.4168  -9.4143
    -9.4016  -9.3944  -9.3927  -9.3790  -9.3664  -9.3642  -9.3566  -9.3486
    -9.3421  -9.3211  -9.3118  -9.3080  -9.3052  -9.2820  -9.2687  -9.2570
    -9.2521  -9.2107  -9.1960  -9.1827  -9.1555  -9.1478  -9.1424  -9.1346
    -9.1256  -9.1146  -9.1117  -9.1058  -9.1003  -9.0910  -9.0805  -9.0749
    -9.0679  -9.0595  -9.0470  -9.0439  -9.0327  -9.0126  -9.0046  -8.9616
    -8.9451  -8.9409  -8.9184  -8.9108  -8.8948  -8.8823  -8.8807  -8.8573
    -8.8522  -8.8376  -8.8217  -8.8037  -8.7767  -8.7592  -8.7401  -8.7102
    -8.7077  -8.6777  -8.6516  -8.6471  -8.6323  -8.5755  -8.4758  -8.4477
    -8.4403  -8.4388  -8.3932  -8.3784  -8.3692  -8.3567  -8.3262  -8.3215
    -8.2975  -8.2913  -8.2894  -8.2799  -8.2661  -8.2567  -8.2560  -8.2437
    -8.2313  -8.2110  -8.2015  -8.1998  -8.1761  -8.1588  -8.1363  -8.1185
    -8.1164  -8.1099  -8.1043  -8.0998  -8.0940  -8.0863  -8.0757  -8.0690
    -8.0671  -8.0584  -8.0490  -8.0432  -8.0129  -7.9975  -7.9936  -7.9908
    -7.9839  -7.9784  -7.9675  -7.9657  -7.9598  -7.9524  -7.9440  -7.9439
    -7.9355  -7.9330  -7.9258  -7.9176  -7.9135  -7.9091  -7.9003  -7.8903
    -7.8863  -7.8725  -7.8703  -7.8656  -7.8567  -7.8515  -7.8465  -7.8427
    -7.8384  -7.8369  -7.8330  -7.8230  -7.8189  -7.8149  -7.8132  -7.7996
    -7.7949  -7.7920  -7.7782  -7.7758  -7.7733  -7.7697  -7.7679  -7.7659
    -7.7577  -7.7530  -7.7298  -7.7288  -7.7250  -7.7159  -7.7040  -7.6997
    -7.6933  -7.6727  -7.6579  -7.6375  -7.6324  -7.6289  -7.6187  -7.6150
    -7.6037  -7.5986  -7.5860  -7.5775  -7.5712  -7.5678  -7.5626  -7.5480
    -7.5334  -7.5236  -7.5004  -7.4986  -7.4939  -7.4869  -7.4740  -7.4691
    -7.4548  -7.4500  -7.4484  -7.4326  -7.4226  -7.4031  -7.3581  -7.3284
    -7.3127  -7.3044  -7.2259  -7.1913  -7.1587  -7.0715  -7.0575  -7.0329
    -7.0308  -7.0109  -6.9956  -6.9907  -6.9734  -6.9436  -6.9142  -6.9084
    -6.8942  -6.8888  -6.8683  -6.8596  -6.8479  -6.8316  -6.8235  -6.7904
    -6.7812  -6.7696  -6.7161  -6.6956  -6.6663  -6.6261  -6.6145  -6.4752
    -6.4391  -6.2223  -6.0684  -6.0321  -5.9713  -5.9529  -5.8448  -5.7640
    -5.6610  -5.5570  -5.5034  -5.4231  -5.3733  -5.3140  -5.1549  -5.1123
    -5.0560  -4.8934

          k = 0.0000-0.5303 0.0000 (128388 PWs)   bands (ev):

   -94.9430 -94.9410 -94.8880 -94.8874 -94.8868 -94.8838 -94.8798 -94.8796
   -94.8710 -94.8705 -94.8654 -94.8648 -94.8602 -94.8585 -94.8573 -94.8518
   -94.8514 -94.8502 -94.8463 -94.8452 -94.8443 -94.8428 -94.8322 -94.8321
   -94.8320 -94.8312 -94.8297 -94.8287 -94.8262 -94.8203 -94.7911 -94.7877
   -94.7752 -94.7558 -94.7522 -94.7441 -94.7389 -94.7336 -94.7326 -94.7280
   -94.7249 -94.7242 -94.7231 -94.7204 -94.7179 -94.7166 -94.7162 -94.7136
   -94.7117 -94.7098 -94.7098 -94.7063 -94.7050 -94.7039 -94.7008 -94.6985
   -94.6982 -94.6923 -94.6919 -94.6879 -94.6812 -94.6774 -94.6696 -94.6652
   -61.1278 -61.1196 -61.0824 -61.0799 -61.0766 -61.0712 -61.0704 -61.0698
   -61.0692 -61.0646 -61.0557 -61.0540 -61.0493 -61.0465 -61.0446 -61.0439
   -61.0412 -61.0404 -61.0389 -61.0383 -61.0314 -61.0310 -61.0296 -61.0294
   -61.0286 -61.0274 -61.0272 -61.0227 -61.0206 -61.0178 -61.0140 -61.0128
   -61.0111 -61.0012 -60.9940 -60.9926 -60.9894 -60.9880 -60.9860 -60.9790
   -60.9776 -60.9681 -60.9674 -60.9632 -60.9513 -60.9513 -60.9468 -60.9433
   -60.9348 -60.9318 -60.9318 -60.9276 -60.9256 -60.9245 -60.9204 -60.9184
   -60.9152 -60.9038 -60.9021 -60.8967 -60.8952 -60.8930 -60.8928 -60.8887
   -60.8860 -60.8831 -60.8806 -60.8804 -60.8783 -60.8775 -60.8746 -60.8737
   -60.8721 -60.8689 -60.8665 -60.8654 -60.8649 -60.8628 -60.8587 -60.8541
   -60.8534 -60.8531 -60.8495 -60.8472 -60.8459 -60.8441 -60.8439 -60.8418
   -60.8356 -60.8290 -60.8249 -60.8176 -60.8168 -60.8135 -60.8123 -60.8100
   -60.8090 -60.8073 -60.8030 -60.7995 -60.7995 -60.7976 -60.7936 -60.7931
   -60.7850 -60.7841 -60.7812 -60.7787 -60.7785 -60.7776 -60.7773 -60.7765
   -60.7751 -60.7746 -60.7725 -60.7722 -60.7678 -60.7664 -60.7615 -60.7600
   -60.7581 -60.7580 -60.7560 -60.7541 -60.7538 -60.7508 -60.7469 -60.7450
   -60.7436 -60.7417 -60.7392 -60.7355 -60.7316 -60.7298 -60.7295 -60.7241
   -60.7238 -60.7233 -60.7201 -60.7157 -60.7123 -60.7110 -60.7099 -60.7090
   -60.7038 -60.7034 -60.7015 -60.7006 -60.6996 -60.6982 -60.6975 -60.6939
   -60.6891 -60.6869 -60.6847 -60.6784 -60.6781 -60.6728 -60.6721 -60.6715
   -60.6662 -60.6629 -60.6554 -60.6541 -60.6537 -60.6517 -60.6514 -60.6465
   -60.6458 -60.6441 -60.6406 -60.6405 -60.6391 -60.6379 -60.6375 -60.6359
   -60.6351 -60.6325 -60.6313 -60.6300 -60.6288 -60.6283 -60.6281 -60.6253
   -60.6248 -60.6238 -60.6216 -60.6175 -60.6136 -60.6091 -60.6077 -60.6019
   -22.9238 -14.7162 -14.2134 -14.0796 -13.1172 -13.0731 -13.0377 -12.8471
   -12.3836 -12.2519 -12.1829 -12.0929 -11.9868 -11.8193 -11.6799 -11.6652
   -11.6103 -11.5724 -11.5247 -11.5086 -11.4103 -11.3561 -11.3363 -11.2976
   -11.2371 -11.2089 -11.1464 -11.1294 -11.1230 -11.1104 -11.1044 -11.0922
   -11.0853 -11.0726 -11.0585 -11.0479 -10.9774 -10.9683 -10.9153 -10.8678
   -10.8547 -10.7819 -10.7630 -10.7546 -10.7511 -10.7434 -10.6761 -10.6697
   -10.6658 -10.6549 -10.6542 -10.6438 -10.6341 -10.6340 -10.6252 -10.6206
   -10.5696 -10.5617 -10.5117 -10.5006 -10.4920 -10.4736 -10.4600 -10.4504
   -10.3884 -10.3839 -10.3511 -10.3286 -10.2908 -10.2865 -10.2766 -10.2268
   -10.1927 -10.1242 -10.0562 -10.0409 -10.0153 -10.0111  -9.9971  -9.9866
    -9.9820  -9.9644  -9.9591  -9.9482  -9.9476  -9.9399  -9.9343  -9.9338
    -9.9230  -9.9089  -9.9002  -9.8994  -9.8972  -9.8947  -9.8719  -9.8703
    -9.8566  -9.8515  -9.7987  -9.7973  -9.7798  -9.7669  -9.7628  -9.7487
    -9.7375  -9.7237  -9.7232  -9.7174  -9.7110  -9.7025  -9.7021  -9.6983
    -9.6850  -9.6813  -9.6757  -9.6543  -9.6445  -9.6347  -9.6301  -9.6030
    -9.5942  -9.5328  -9.4942  -9.4797  -9.4218  -9.4212  -9.4043  -9.3924
    -9.3845  -9.3808  -9.3727  -9.3710  -9.3632  -9.3630  -9.3570  -9.3524
    -9.3425  -9.3395  -9.3384  -9.3239  -9.3175  -9.3076  -9.2997  -9.2927
    -9.2832  -9.2826  -9.2691  -9.2690  -9.2296  -9.2250  -9.2047  -9.1957
    -9.1818  -9.1758  -9.1604  -9.1573  -9.1409  -9.1377  -9.1238  -9.1149
    -9.0872  -9.0851  -9.0541  -9.0488  -9.0116  -9.0112  -8.9825  -8.9532
    -8.9185  -8.8912  -8.8849  -8.8740  -8.8638  -8.8602  -8.8482  -8.8373
    -8.8242  -8.8159  -8.7462  -8.7342  -8.6765  -8.5862  -8.5784  -8.5690
    -8.5677  -8.5571  -8.5227  -8.5158  -8.5079  -8.5052  -8.4856  -8.4638
    -8.4331  -8.4306  -8.4154  -8.4141  -8.4016  -8.3973  -8.3757  -8.3706
    -8.3638  -8.3561  -8.3516  -8.3436  -8.3163  -8.2993  -8.2627  -8.2431
    -8.2286  -8.2193  -8.2190  -8.2075  -8.1883  -8.1865  -8.1811  -8.1757
    -8.1358  -8.1306  -8.1091  -8.0943  -8.0785  -8.0766  -8.0736  -8.0702
    -8.0698  -8.0668  -8.0569  -8.0552  -8.0510  -8.0430  -8.0380  -8.0349
    -8.0339  -8.0258  -8.0241  -8.0079  -7.9972  -7.9953  -7.9380  -7.9335
    -7.9240  -7.9210  -7.9120  -7.9013  -7.9001  -7.8968  -7.8955  -7.8782
    -7.8749  -7.8649  -7.8627  -7.8543  -7.8541  -7.8517  -7.8419  -7.8378
    -7.8360  -7.8306  -7.8223  -7.8167  -7.8084  -7.8014  -7.7876  -7.7871
    -7.7805  -7.7748  -7.7544  -7.7497  -7.7340  -7.7285  -7.7155  -7.7134
    -7.7053  -7.6978  -7.6880  -7.6713  -7.6699  -7.6683  -7.6398  -7.6305
    -7.6257  -7.6251  -7.6235  -7.6182  -7.6176  -7.6101  -7.6039  -7.6038
    -7.5979  -7.5932  -7.5869  -7.5856  -7.5802  -7.5778  -7.5689  -7.5683
    -7.5651  -7.5251  -7.5094  -7.5022  -7.4884  -7.4212  -7.4186  -7.3910
    -7.3807  -7.3462  -7.3429  -7.3298  -7.3137  -7.2915  -7.2158  -7.2137
    -7.1934  -7.1881  -7.1755  -7.1564  -7.1481  -7.1432  -7.1140  -7.1107
    -7.0949  -7.0825  -7.0702  -7.0604  -7.0483  -7.0421  -7.0226  -6.9674
    -6.9454  -6.9423  -6.9088  -6.9003  -6.8754  -6.8735  -6.8714  -6.8568
    -6.8308  -6.8295  -6.8139  -6.7983  -6.7862  -6.7781  -6.7759  -6.6149
    -6.5192  -6.4768  -6.3310  -6.1989  -6.1240  -6.0570  -5.7851  -5.7218
    -5.6312  -5.4451  -5.4201  -5.1237  -5.0984  -5.0534  -5.0077  -4.9683
    -4.9494  -4.8944

          k = 0.2500-0.0884 0.0000 (128371 PWs)   bands (ev):

   -94.9430 -94.9409 -94.8894 -94.8889 -94.8858 -94.8814 -94.8799 -94.8784
   -94.8731 -94.8693 -94.8664 -94.8640 -94.8600 -94.8580 -94.8568 -94.8535
   -94.8505 -94.8498 -94.8479 -94.8471 -94.8426 -94.8413 -94.8346 -94.8336
   -94.8317 -94.8293 -94.8290 -94.8284 -94.8268 -94.8200 -94.7910 -94.7877
   -94.7754 -94.7567 -94.7495 -94.7438 -94.7399 -94.7366 -94.7318 -94.7275
   -94.7256 -94.7227 -94.7217 -94.7209 -94.7178 -94.7165 -94.7159 -94.7141
   -94.7123 -94.7108 -94.7097 -94.7062 -94.7045 -94.7035 -94.7017 -94.6987
   -94.6975 -94.6932 -94.6903 -94.6876 -94.6817 -94.6775 -94.6709 -94.6641
   -61.1286 -61.1194 -61.0845 -61.0787 -61.0758 -61.0727 -61.0706 -61.0703
   -61.0680 -61.0622 -61.0562 -61.0531 -61.0492 -61.0486 -61.0464 -61.0436
   -61.0421 -61.0407 -61.0386 -61.0354 -61.0345 -61.0328 -61.0305 -61.0295
   -61.0278 -61.0273 -61.0254 -61.0236 -61.0224 -61.0204 -61.0165 -61.0160
   -61.0103 -61.0040 -60.9991 -60.9965 -60.9936 -60.9907 -60.9843 -60.9774
   -60.9752 -60.9726 -60.9713 -60.9683 -60.9629 -60.9606 -60.9400 -60.9380
   -60.9321 -60.9243 -60.9228 -60.9208 -60.9190 -60.9160 -60.9125 -60.9085
   -60.9058 -60.9015 -60.8992 -60.8975 -60.8948 -60.8942 -60.8911 -60.8903
   -60.8884 -60.8875 -60.8868 -60.8834 -60.8814 -60.8792 -60.8756 -60.8725
   -60.8708 -60.8683 -60.8660 -60.8652 -60.8623 -60.8558 -60.8530 -60.8515
   -60.8475 -60.8458 -60.8431 -60.8416 -60.8403 -60.8372 -60.8312 -60.8298
   -60.8287 -60.8245 -60.8214 -60.8201 -60.8179 -60.8148 -60.8130 -60.8120
   -60.8110 -60.8077 -60.8056 -60.8032 -60.8029 -60.8011 -60.7973 -60.7941
   -60.7927 -60.7904 -60.7879 -60.7856 -60.7837 -60.7827 -60.7814 -60.7788
   -60.7778 -60.7752 -60.7743 -60.7723 -60.7706 -60.7673 -60.7641 -60.7619
   -60.7616 -60.7584 -60.7555 -60.7544 -60.7507 -60.7483 -60.7470 -60.7460
   -60.7424 -60.7404 -60.7396 -60.7388 -60.7342 -60.7327 -60.7306 -60.7287
   -60.7266 -60.7238 -60.7225 -60.7199 -60.7178 -60.7167 -60.7118 -60.7111
   -60.7085 -60.7056 -60.7045 -60.7022 -60.6952 -60.6936 -60.6908 -60.6901
   -60.6890 -60.6847 -60.6837 -60.6815 -60.6777 -60.6769 -60.6740 -60.6726
   -60.6680 -60.6674 -60.6643 -60.6620 -60.6580 -60.6565 -60.6531 -60.6500
   -60.6493 -60.6461 -60.6441 -60.6420 -60.6401 -60.6384 -60.6355 -60.6342
   -60.6324 -60.6301 -60.6285 -60.6267 -60.6229 -60.6225 -60.6196 -60.6188
   -60.6180 -60.6170 -60.6150 -60.6136 -60.6108 -60.6088 -60.6066 -60.6013
   -22.9238 -14.7694 -14.4041 -13.6506 -13.2487 -13.1253 -12.8636 -12.6925
   -12.5655 -12.3129 -12.3032 -12.1018 -12.0075 -11.9450 -11.8475 -11.7974
   -11.6520 -11.6036 -11.5271 -11.4515 -11.4013 -11.3306 -11.2995 -11.2705
   -11.2546 -11.2396 -11.2130 -11.1906 -11.1687 -11.0561 -10.9928 -10.9499
   -10.9240 -10.9070 -10.9020 -10.8915 -10.8767 -10.8742 -10.8617 -10.8455
   -10.8327 -10.8147 -10.7976 -10.7820 -10.7681 -10.7572 -10.7388 -10.7327
   -10.7097 -10.7010 -10.6942 -10.6769 -10.6476 -10.6181 -10.6120 -10.6062
   -10.5998 -10.5939 -10.5545 -10.5159 -10.5079 -10.4525 -10.4320 -10.4044
   -10.3984 -10.3640 -10.3092 -10.2919 -10.2522 -10.2146 -10.1773 -10.1412
   -10.1235 -10.1097 -10.0861 -10.0338 -10.0242 -10.0115 -10.0055  -9.9932
    -9.9886  -9.9808  -9.9707  -9.9637  -9.9604  -9.9509  -9.9443  -9.9358
    -9.9254  -9.9200  -9.9127  -9.9106  -9.8974  -9.8941  -9.8838  -9.8737
    -9.8721  -9.8657  -9.8614  -9.8505  -9.8499  -9.8409  -9.8317  -9.8153
    -9.7842  -9.7789  -9.7712  -9.7599  -9.7563  -9.7399  -9.7182  -9.7135
    -9.7061  -9.7000  -9.6767  -9.6499  -9.6038  -9.5939  -9.5599  -9.5460
    -9.5242  -9.5143  -9.5073  -9.4966  -9.4847  -9.4392  -9.4168  -9.4143
    -9.4016  -9.3944  -9.3927  -9.3790  -9.3664  -9.3642  -9.3566  -9.3486
    -9.3421  -9.3211  -9.3118  -9.3080  -9.3052  -9.2820  -9.2687  -9.2570
    -9.2521  -9.2107  -9.1960  -9.1827  -9.1555  -9.1478  -9.1424  -9.1346
    -9.1256  -9.1146  -9.1117  -9.1058  -9.1003  -9.0910  -9.0804  -9.0749
    -9.0679  -9.0595  -9.0470  -9.0439  -9.0327  -9.0126  -9.0046  -8.9616
    -8.9451  -8.9409  -8.9184  -8.9108  -8.8948  -8.8823  -8.8807  -8.8573
    -8.8522  -8.8376  -8.8217  -8.8037  -8.7767  -8.7592  -8.7401  -8.7102
    -8.7077  -8.6777  -8.6516  -8.6471  -8.6323  -8.5755  -8.4758  -8.4477
    -8.4403  -8.4388  -8.3932  -8.3784  -8.3692  -8.3567  -8.3262  -8.3215
    -8.2975  -8.2913  -8.2894  -8.2799  -8.2661  -8.2567  -8.2560  -8.2437
    -8.2313  -8.2110  -8.2015  -8.1998  -8.1760  -8.1588  -8.1363  -8.1185
    -8.1164  -8.1099  -8.1043  -8.0998  -8.0940  -8.0863  -8.0757  -8.0690
    -8.0671  -8.0584  -8.0490  -8.0432  -8.0129  -7.9975  -7.9936  -7.9907
    -7.9839  -7.9784  -7.9675  -7.9657  -7.9598  -7.9524  -7.9440  -7.9439
    -7.9355  -7.9330  -7.9258  -7.9176  -7.9135  -7.9091  -7.9003  -7.8903
    -7.8863  -7.8725  -7.8703  -7.8656  -7.8567  -7.8515  -7.8465  -7.8427
    -7.8384  -7.8369  -7.8330  -7.8230  -7.8189  -7.8149  -7.8132  -7.7996
    -7.7949  -7.7920  -7.7782  -7.7758  -7.7733  -7.7697  -7.7679  -7.7659
    -7.7577  -7.7530  -7.7298  -7.7288  -7.7250  -7.7159  -7.7040  -7.6997
    -7.6933  -7.6727  -7.6579  -7.6376  -7.6324  -7.6289  -7.6187  -7.6150
    -7.6037  -7.5986  -7.5860  -7.5775  -7.5712  -7.5678  -7.5626  -7.5480
    -7.5334  -7.5236  -7.5004  -7.4986  -7.4939  -7.4869  -7.4740  -7.4691
    -7.4548  -7.4500  -7.4484  -7.4326  -7.4226  -7.4031  -7.3581  -7.3284
    -7.3127  -7.3044  -7.2259  -7.1913  -7.1587  -7.0715  -7.0575  -7.0329
    -7.0309  -7.0109  -6.9956  -6.9907  -6.9734  -6.9436  -6.9142  -6.9084
    -6.8942  -6.8888  -6.8683  -6.8596  -6.8479  -6.8316  -6.8235  -6.7903
    -6.7812  -6.7696  -6.7161  -6.6956  -6.6663  -6.6261  -6.6145  -6.4752
    -6.4391  -6.2223  -6.0684  -6.0321  -5.9713  -5.9530  -5.8448  -5.7640
    -5.6610  -5.5570  -5.5034  -5.4231  -5.3733  -5.3140  -5.1549  -5.1124
    -5.0562  -4.9103

          k = 0.2500 0.1768 0.0000 (128340 PWs)   bands (ev):

   -94.9430 -94.9410 -94.8891 -94.8884 -94.8846 -94.8831 -94.8797 -94.8780
   -94.8736 -94.8718 -94.8684 -94.8623 -94.8586 -94.8566 -94.8534 -94.8532
   -94.8530 -94.8506 -94.8501 -94.8455 -94.8448 -94.8395 -94.8333 -94.8331
   -94.8307 -94.8306 -94.8302 -94.8288 -94.8261 -94.8203 -94.7911 -94.7877
   -94.7752 -94.7564 -94.7492 -94.7444 -94.7418 -94.7376 -94.7320 -94.7247
   -94.7239 -94.7216 -94.7206 -94.7195 -94.7191 -94.7174 -94.7168 -94.7148
   -94.7132 -94.7105 -94.7102 -94.7075 -94.7050 -94.7023 -94.7007 -94.6995
   -94.6980 -94.6926 -94.6917 -94.6869 -94.6807 -94.6773 -94.6708 -94.6647
   -61.1280 -61.1195 -61.0843 -61.0798 -61.0730 -61.0725 -61.0720 -61.0693
   -61.0657 -61.0622 -61.0574 -61.0543 -61.0518 -61.0497 -61.0452 -61.0422
   -61.0408 -61.0388 -61.0373 -61.0355 -61.0339 -61.0332 -61.0321 -61.0319
   -61.0287 -61.0263 -61.0260 -61.0225 -61.0220 -61.0185 -61.0142 -61.0136
   -61.0113 -60.9978 -60.9957 -60.9935 -60.9916 -60.9909 -60.9739 -60.9704
   -60.9692 -60.9680 -60.9672 -60.9670 -60.9664 -60.9595 -60.9381 -60.9363
   -60.9357 -60.9327 -60.9296 -60.9268 -60.9227 -60.9205 -60.9202 -60.9148
   -60.9132 -60.9098 -60.9042 -60.9041 -60.9015 -60.8961 -60.8930 -60.8905
   -60.8894 -60.8881 -60.8878 -60.8861 -60.8833 -60.8807 -60.8771 -60.8752
   -60.8748 -60.8696 -60.8658 -60.8649 -60.8585 -60.8578 -60.8547 -60.8546
   -60.8507 -60.8487 -60.8445 -60.8441 -60.8382 -60.8376 -60.8352 -60.8315
   -60.8257 -60.8253 -60.8242 -60.8215 -60.8172 -60.8149 -60.8138 -60.8095
   -60.8092 -60.8075 -60.8018 -60.8013 -60.8005 -60.8002 -60.7948 -60.7937
   -60.7926 -60.7908 -60.7890 -60.7859 -60.7850 -60.7844 -60.7829 -60.7794
   -60.7786 -60.7778 -60.7709 -60.7673 -60.7632 -60.7628 -60.7624 -60.7614
   -60.7594 -60.7579 -60.7535 -60.7509 -60.7487 -60.7476 -60.7458 -60.7447
   -60.7423 -60.7417 -60.7348 -60.7325 -60.7309 -60.7304 -60.7278 -60.7234
   -60.7226 -60.7214 -60.7208 -60.7159 -60.7153 -60.7129 -60.7116 -60.7079
   -60.7071 -60.7026 -60.7014 -60.7000 -60.6981 -60.6970 -60.6960 -60.6947
   -60.6889 -60.6845 -60.6831 -60.6760 -60.6730 -60.6720 -60.6689 -60.6669
   -60.6667 -60.6638 -60.6636 -60.6600 -60.6577 -60.6554 -60.6526 -60.6515
   -60.6513 -60.6485 -60.6435 -60.6432 -60.6403 -60.6389 -60.6352 -60.6345
   -60.6338 -60.6309 -60.6306 -60.6277 -60.6267 -60.6237 -60.6228 -60.6213
   -60.6198 -60.6191 -60.6182 -60.6172 -60.6166 -60.6143 -60.6106 -60.6049
   -22.9238 -14.7559 -14.3769 -13.3836 -13.3538 -13.3416 -13.1597 -12.5186
   -12.4979 -12.3306 -12.2866 -12.2282 -11.9946 -11.9273 -11.8428 -11.7563
   -11.5570 -11.5432 -11.4392 -11.3249 -11.3197 -11.3180 -11.2684 -11.2562
   -11.2075 -11.1930 -11.1911 -11.1722 -11.0941 -11.0798 -11.0678 -11.0458
   -10.9634 -10.9574 -10.9457 -10.9229 -10.8711 -10.8682 -10.8561 -10.8323
   -10.8256 -10.8188 -10.8138 -10.8003 -10.7979 -10.7897 -10.7893 -10.7866
   -10.7463 -10.7377 -10.7129 -10.7091 -10.6917 -10.6746 -10.6471 -10.6156
   -10.5803 -10.5645 -10.5511 -10.4615 -10.4527 -10.4225 -10.4108 -10.4051
   -10.3348 -10.3330 -10.3150 -10.3135 -10.2833 -10.2576 -10.2278 -10.1470
   -10.1462 -10.1145 -10.0681 -10.0451 -10.0396 -10.0342 -10.0200 -10.0180
   -10.0117 -10.0109 -10.0042  -9.9977  -9.9968  -9.9885  -9.9841  -9.9825
    -9.9726  -9.9500  -9.9421  -9.9338  -9.8926  -9.8789  -9.8702  -9.8574
    -9.8400  -9.8259  -9.8082  -9.8065  -9.8024  -9.7941  -9.7939  -9.7856
    -9.7745  -9.7531  -9.7503  -9.7213  -9.7078  -9.6817  -9.6713  -9.6643
    -9.6502  -9.6376  -9.6158  -9.6062  -9.6013  -9.5987  -9.5935  -9.5868
    -9.5842  -9.5759  -9.5715  -9.5508  -9.5288  -9.5011  -9.4959  -9.4806
    -9.4628  -9.4210  -9.4019  -9.3980  -9.3907  -9.3887  -9.3772  -9.3619
    -9.3451  -9.3316  -9.3092  -9.3019  -9.2970  -9.2929  -9.2806  -9.2736
    -9.2498  -9.2444  -9.2276  -9.2219  -9.2013  -9.1950  -9.1701  -9.1492
    -9.1328  -9.1245  -9.1048  -9.0997  -9.0986  -9.0934  -9.0759  -9.0717
    -9.0530  -9.0227  -9.0048  -8.9996  -8.9926  -8.9917  -8.9834  -8.9786
    -8.9675  -8.9638  -8.9569  -8.9496  -8.9450  -8.9374  -8.9325  -8.9203
    -8.9065  -8.8829  -8.8509  -8.8314  -8.8215  -8.6907  -8.6713  -8.6505
    -8.6392  -8.6207  -8.6149  -8.5386  -8.5258  -8.5056  -8.4710  -8.4589
    -8.4333  -8.4089  -8.3976  -8.3921  -8.3871  -8.3597  -8.3322  -8.3134
    -8.3098  -8.2934  -8.2900  -8.2773  -8.2760  -8.2593  -8.2544  -8.2270
    -8.2133  -8.2115  -8.2055  -8.1979  -8.1888  -8.1694  -8.1670  -8.1604
    -8.1592  -8.1465  -8.1163  -8.1162  -8.0792  -8.0729  -8.0550  -8.0476
    -8.0457  -8.0427  -8.0391  -8.0277  -8.0250  -8.0191  -8.0083  -8.0071
    -7.9923  -7.9894  -7.9667  -7.9636  -7.9560  -7.9515  -7.9491  -7.9413
    -7.9339  -7.9316  -7.9220  -7.9159  -7.9115  -7.9022  -7.8799  -7.8735
    -7.8652  -7.8598  -7.8574  -7.8481  -7.8425  -7.8325  -7.8210  -7.8141
    -7.7963  -7.7938  -7.7924  -7.7903  -7.7849  -7.7738  -7.7688  -7.7514
    -7.7453  -7.7418  -7.7304  -7.7301  -7.7235  -7.7171  -7.7152  -7.7111
    -7.7089  -7.7032  -7.7031  -7.7008  -7.6874  -7.6866  -7.6720  -7.6713
    -7.6634  -7.6409  -7.6348  -7.6309  -7.6279  -7.6245  -7.6240  -7.6211
    -7.6036  -7.6004  -7.5912  -7.5902  -7.5780  -7.5688  -7.5512  -7.5506
    -7.5415  -7.5220  -7.5179  -7.5141  -7.4722  -7.4707  -7.4532  -7.4447
    -7.4282  -7.4145  -7.4112  -7.3989  -7.3930  -7.3408  -7.3207  -7.3038
    -7.2828  -7.2795  -7.2510  -7.2095  -7.1204  -7.1113  -7.1032  -7.0387
    -7.0378  -7.0079  -6.9977  -6.9432  -6.9218  -6.9058  -6.8926  -6.8840
    -6.8764  -6.8676  -6.8613  -6.8463  -6.8403  -6.8204  -6.8131  -6.7636
    -6.7546  -6.6920  -6.6621  -6.6568  -6.5518  -6.5472  -6.5421  -6.4527
    -6.4215  -6.2208  -6.2175  -6.0127  -5.9698  -5.9188  -5.8746  -5.8740
    -5.8459  -5.7947  -5.7455  -5.7439  -5.6932  -5.6128  -5.5389  -5.4910
    -5.2889  -5.1503

          k = 0.2500-0.6187 0.0000 (128424 PWs)   bands (ev):

   -94.9429 -94.9410 -94.8885 -94.8862 -94.8859 -94.8825 -94.8816 -94.8784
   -94.8764 -94.8713 -94.8655 -94.8594 -94.8592 -94.8591 -94.8560 -94.8542
   -94.8513 -94.8496 -94.8491 -94.8479 -94.8421 -94.8394 -94.8334 -94.8324
   -94.8319 -94.8313 -94.8298 -94.8285 -94.8260 -94.8207 -94.7911 -94.7876
   -94.7750 -94.7550 -94.7521 -94.7463 -94.7398 -94.7355 -94.7296 -94.7265
   -94.7245 -94.7231 -94.7222 -94.7210 -94.7182 -94.7173 -94.7156 -94.7142
   -94.7127 -94.7106 -94.7093 -94.7068 -94.7059 -94.7025 -94.7010 -94.6991
   -94.6973 -94.6939 -94.6920 -94.6874 -94.6807 -94.6763 -94.6697 -94.6659
   -61.1272 -61.1197 -61.0825 -61.0804 -61.0751 -61.0715 -61.0700 -61.0689
   -61.0676 -61.0637 -61.0602 -61.0518 -61.0499 -61.0491 -61.0439 -61.0424
   -61.0400 -61.0393 -61.0381 -61.0370 -61.0333 -61.0320 -61.0316 -61.0303
   -61.0291 -61.0275 -61.0249 -61.0226 -61.0185 -61.0170 -61.0143 -61.0120
   -61.0096 -60.9992 -60.9877 -60.9844 -60.9821 -60.9804 -60.9800 -60.9755
   -60.9713 -60.9676 -60.9643 -60.9602 -60.9577 -60.9497 -60.9447 -60.9442
   -60.9416 -60.9400 -60.9379 -60.9336 -60.9301 -60.9299 -60.9242 -60.9200
   -60.9172 -60.9128 -60.9092 -60.9034 -60.9007 -60.8999 -60.8963 -60.8928
   -60.8889 -60.8882 -60.8857 -60.8817 -60.8786 -60.8766 -60.8732 -60.8712
   -60.8702 -60.8694 -60.8675 -60.8669 -60.8660 -60.8643 -60.8624 -60.8572
   -60.8560 -60.8527 -60.8501 -60.8479 -60.8443 -60.8415 -60.8394 -60.8362
   -60.8333 -60.8321 -60.8311 -60.8256 -60.8230 -60.8168 -60.8136 -60.8119
   -60.8090 -60.8064 -60.8036 -60.8003 -60.7969 -60.7950 -60.7920 -60.7903
   -60.7858 -60.7851 -60.7819 -60.7811 -60.7790 -60.7772 -60.7764 -60.7734
   -60.7729 -60.7701 -60.7688 -60.7669 -60.7658 -60.7616 -60.7607 -60.7586
   -60.7562 -60.7538 -60.7530 -60.7517 -60.7498 -60.7472 -60.7468 -60.7454
   -60.7442 -60.7383 -60.7352 -60.7326 -60.7316 -60.7283 -60.7250 -60.7224
   -60.7214 -60.7194 -60.7137 -60.7134 -60.7117 -60.7103 -60.7093 -60.7087
   -60.7084 -60.7071 -60.7059 -60.7016 -60.6950 -60.6939 -60.6917 -60.6904
   -60.6880 -60.6834 -60.6818 -60.6790 -60.6782 -60.6685 -60.6660 -60.6644
   -60.6613 -60.6574 -60.6562 -60.6550 -60.6534 -60.6523 -60.6514 -60.6479
   -60.6465 -60.6447 -60.6433 -60.6422 -60.6399 -60.6395 -60.6379 -60.6371
   -60.6357 -60.6349 -60.6337 -60.6318 -60.6303 -60.6292 -60.6286 -60.6274
   -60.6263 -60.6246 -60.6234 -60.6215 -60.6184 -60.6164 -60.6149 -60.6078
   -22.9238 -14.7094 -14.1850 -13.9090 -13.6282 -13.0033 -12.8948 -12.7149
   -12.5437 -12.4019 -12.1805 -12.1149 -11.7598 -11.7206 -11.6245 -11.5979
   -11.5871 -11.4992 -11.4938 -11.4684 -11.3644 -11.3547 -11.2923 -11.2808
   -11.2570 -11.2207 -11.1911 -11.1637 -11.1385 -11.1276 -11.0990 -11.0903
   -11.0795 -11.0704 -11.0312 -10.9820 -10.9745 -10.9659 -10.9536 -10.9353
   -10.9091 -10.8799 -10.8601 -10.8577 -10.8368 -10.7839 -10.7431 -10.7349
   -10.7118 -10.6769 -10.6602 -10.6488 -10.6068 -10.5944 -10.5624 -10.5407
   -10.5153 -10.5051 -10.4865 -10.4758 -10.4539 -10.4377 -10.4291 -10.4139
   -10.3813 -10.3700 -10.3429 -10.3263 -10.3142 -10.3077 -10.2517 -10.2287
   -10.2039 -10.1977 -10.1503 -10.0920 -10.0611 -10.0466 -10.0334 -10.0269
   -10.0193 -10.0060 -10.0016  -9.9921  -9.9800  -9.9667  -9.9248  -9.9123
    -9.8916  -9.8802  -9.8714  -9.8627  -9.8479  -9.8377  -9.8266  -9.8147
    -9.8075  -9.8031  -9.7982  -9.7902  -9.7795  -9.7771  -9.7663  -9.7577
    -9.7393  -9.7294  -9.7191  -9.7136  -9.6910  -9.6842  -9.6785  -9.6648
    -9.6612  -9.6522  -9.6341  -9.6177  -9.6128  -9.5856  -9.5779  -9.5704
    -9.5641  -9.5510  -9.5454  -9.5420  -9.5305  -9.5229  -9.5139  -9.5013
    -9.4957  -9.4916  -9.4815  -9.4724  -9.4703  -9.4599  -9.4409  -9.4194
    -9.4020  -9.3778  -9.3618  -9.3410  -9.2903  -9.2681  -9.2556  -9.2415
    -9.2401  -9.2299  -9.2242  -9.2083  -9.2003  -9.1936  -9.1866  -9.1744
    -9.1619  -9.1609  -9.1551  -9.1505  -9.1357  -9.1318  -9.1197  -9.0985
    -9.0891  -9.0824  -9.0764  -9.0715  -9.0357  -9.0180  -8.9658  -8.9538
    -8.9327  -8.9280  -8.8949  -8.8869  -8.8610  -8.8378  -8.8225  -8.7969
    -8.7740  -8.7338  -8.7093  -8.6787  -8.6654  -8.6531  -8.6428  -8.6128
    -8.5741  -8.5544  -8.5503  -8.5231  -8.4936  -8.4871  -8.4848  -8.4682
    -8.4530  -8.4403  -8.4385  -8.4279  -8.4211  -8.4027  -8.3716  -8.3507
    -8.3421  -8.3326  -8.3118  -8.3011  -8.2824  -8.2714  -8.2636  -8.2496
    -8.2435  -8.2153  -8.2140  -8.1997  -8.1899  -8.1825  -8.1768  -8.1731
    -8.1568  -8.1400  -8.1297  -8.1171  -8.1067  -8.0857  -8.0794  -8.0752
    -8.0686  -8.0618  -8.0571  -8.0459  -8.0412  -8.0317  -8.0269  -8.0210
    -8.0119  -8.0085  -7.9924  -7.9729  -7.9651  -7.9602  -7.9510  -7.9435
    -7.9322  -7.9256  -7.9147  -7.9104  -7.8985  -7.8912  -7.8851  -7.8733
    -7.8668  -7.8569  -7.8485  -7.8407  -7.8347  -7.8265  -7.8249  -7.8203
    -7.8081  -7.7962  -7.7818  -7.7784  -7.7744  -7.7683  -7.7542  -7.7529
    -7.7443  -7.7405  -7.7375  -7.7309  -7.7231  -7.7167  -7.7115  -7.6956
    -7.6869  -7.6828  -7.6782  -7.6739  -7.6649  -7.6594  -7.6537  -7.6480
    -7.6425  -7.6367  -7.6306  -7.6297  -7.6199  -7.6180  -7.6058  -7.5923
    -7.5830  -7.5672  -7.5582  -7.5484  -7.5342  -7.5174  -7.5137  -7.5105
    -7.4940  -7.4711  -7.4559  -7.4229  -7.4096  -7.4056  -7.3923  -7.3626
    -7.3510  -7.3187  -7.3062  -7.2764  -7.2640  -7.2498  -7.2247  -7.2111
    -7.2033  -7.1933  -7.1867  -7.1370  -7.1297  -7.1137  -7.1068  -7.0850
    -7.0621  -7.0501  -7.0405  -7.0073  -6.9948  -6.9883  -6.9768  -6.9691
    -6.9486  -6.9217  -6.9073  -6.8983  -6.8847  -6.8807  -6.8739  -6.8458
    -6.8304  -6.8169  -6.7945  -6.7856  -6.7566  -6.7070  -6.6706  -6.6566
    -6.5344  -6.4263  -6.3766  -6.2282  -6.1374  -6.0716  -5.9867  -5.9415
    -5.8983  -5.7391  -5.6723  -5.6671  -5.5520  -5.4135  -5.3810  -5.3527
    -5.2025  -5.1245

          k = 0.2500-0.3536 0.0000 (128397 PWs)   bands (ev):

   -94.9430 -94.9410 -94.8881 -94.8877 -94.8873 -94.8802 -94.8798 -94.8796
   -94.8781 -94.8661 -94.8647 -94.8620 -94.8617 -94.8586 -94.8585 -94.8541
   -94.8502 -94.8500 -94.8480 -94.8459 -94.8435 -94.8387 -94.8358 -94.8333
   -94.8319 -94.8296 -94.8290 -94.8278 -94.8270 -94.8203 -94.7911 -94.7876
   -94.7752 -94.7555 -94.7518 -94.7464 -94.7365 -94.7341 -94.7303 -94.7293
   -94.7273 -94.7244 -94.7217 -94.7207 -94.7189 -94.7157 -94.7155 -94.7145
   -94.7120 -94.7109 -94.7069 -94.7067 -94.7054 -94.7031 -94.7026 -94.6982
   -94.6967 -94.6944 -94.6909 -94.6881 -94.6818 -94.6762 -94.6704 -94.6650
   -61.1278 -61.1195 -61.0828 -61.0791 -61.0767 -61.0719 -61.0703 -61.0696
   -61.0693 -61.0622 -61.0610 -61.0501 -61.0493 -61.0447 -61.0440 -61.0440
   -61.0437 -61.0401 -61.0401 -61.0353 -61.0346 -61.0326 -61.0317 -61.0296
   -61.0271 -61.0254 -61.0248 -61.0224 -61.0197 -61.0185 -61.0165 -61.0163
   -61.0105 -60.9975 -60.9941 -60.9932 -60.9883 -60.9849 -60.9808 -60.9789
   -60.9751 -60.9723 -60.9678 -60.9658 -60.9650 -60.9618 -60.9418 -60.9415
   -60.9330 -60.9315 -60.9269 -60.9234 -60.9177 -60.9153 -60.9114 -60.9092
   -60.9084 -60.9050 -60.9038 -60.9027 -60.8988 -60.8983 -60.8968 -60.8959
[...]
    -5.6992  -5.6739  -5.6604  -5.6328  -5.6095  -5.5940  -5.5713  -5.5568
    -5.5483  -5.5425  -5.5361  -5.5193  -5.5172  -5.5097  -5.4908  -5.4811
    -5.4695  -5.4336  -5.4190  -5.3968  -5.3885  -5.3666  -5.3562  -5.3375
    -5.3258  -5.3054  -5.2952  -5.2843  -5.2721  -5.2608  -5.2491  -5.2337
    -5.2202  -5.2118  -5.2056  -5.1952  -5.1841  -5.1629  -5.1614  -5.1520
    -5.1393  -5.1239  -5.1162  -5.1019  -5.0992  -5.0901  -5.0764  -5.0649
    -5.0446  -5.0380  -5.0255  -5.0249  -5.0102  -5.0068  -5.0047  -4.9994
    -4.9884  -4.9861  -4.9719  -4.9623  -4.9507  -4.9396  -4.9355  -4.9296
    -4.9116  -4.9063  -4.8970  -4.8941  -4.8776  -4.8726  -4.8596  -4.8557
    -4.8369  -4.8208  -4.8098  -4.8026  -4.7933  -4.7873  -4.7833  -4.7777
    -4.7697  -4.7675  -4.7622  -4.7527  -4.7470  -4.7445  -4.7238  -4.7157
    -4.7093  -4.7010  -4.6862  -4.6770  -4.6709  -4.6618  -4.6582  -4.6506
    -4.6471  -4.6423  -4.6383  -4.6338  -4.6233  -4.6113  -4.6064  -4.6021
    -4.5876  -4.5845  -4.5721  -4.5687  -4.5647  -4.5507  -4.5353  -4.5244
    -4.5116  -4.4895  -4.4778  -4.4767  -4.4603  -4.4486  -4.4396  -4.4283
    -4.4239  -4.4160  -4.4093  -4.4002  -4.3903  -4.3727  -4.3533  -4.3454
    -4.3299  -4.3186  -4.3059  -4.2897  -4.2708  -4.2439  -4.2086  -4.1766
    -4.1631  -4.1273  -4.0650  -4.0320  -4.0042  -3.9138  -3.8709  -3.8441
    -3.8152  -3.7488

          k =-0.5000-0.3536 0.0000 (128560 PWs)   bands (ev):

   -92.3482 -92.3465 -91.9940 -91.9918 -91.9246 -91.9226 -91.8954 -91.8900
   -91.8769 -91.8731 -91.8668 -91.8653 -91.8608 -91.8569 -91.8532 -91.8528
   -91.8488 -91.8483 -91.8477 -91.8456 -91.8440 -91.8383 -91.8349 -91.8348
   -91.8321 -91.8282 -91.8279 -91.8271 -91.8266 -91.8263 -91.8258 -91.8241
   -91.8087 -91.8050 -91.8049 -91.8039 -91.7997 -91.7983 -91.7966 -91.7865
   -91.7843 -91.7832 -91.7829 -91.7826 -91.7824 -91.7798 -91.7794 -91.7736
   -91.7734 -91.7630 -91.7621 -91.7607 -91.7607 -91.7602 -91.7597 -91.7589
   -91.7587 -91.7578 -91.7568 -91.7515 -91.7384 -91.7383 -91.7377 -91.7374
   -58.7862 -58.7704 -58.4404 -58.4351 -58.2853 -58.2683 -58.2255 -58.2221
   -58.1542 -58.1534 -58.1516 -58.1514 -58.1456 -58.1446 -58.1440 -58.1360
   -58.1358 -58.1332 -58.1323 -58.1286 -58.1273 -58.1270 -58.1245 -58.1244
   -58.1233 -58.1176 -58.1136 -58.1132 -58.1102 -58.1036 -58.1012 -58.1009
   -58.0996 -58.0906 -58.0853 -58.0846 -58.0844 -58.0834 -58.0782 -58.0756
   -58.0733 -58.0650 -58.0639 -58.0622 -58.0549 -58.0544 -58.0504 -58.0490
   -58.0488 -58.0478 -58.0435 -58.0433 -58.0404 -58.0375 -58.0366 -58.0359
   -58.0337 -58.0322 -58.0309 -58.0297 -58.0273 -58.0271 -58.0263 -58.0233
   -58.0168 -58.0157 -58.0150 -58.0127 -58.0062 -58.0020 -58.0018 -57.9963
   -57.9876 -57.9849 -57.9821 -57.9747 -57.9672 -57.9654 -57.9652 -57.9637
   -57.9620 -57.9542 -57.9539 -57.9504 -57.9453 -57.9418 -57.9384 -57.9348
   -57.9346 -57.9336 -57.9317 -57.9301 -57.9252 -57.9238 -57.9231 -57.9213
   -57.9205 -57.9189 -57.9188 -57.9157 -57.9042 -57.9017 -57.9002 -57.8969
   -57.8958 -57.8910 -57.8898 -57.8882 -57.8881 -57.8871 -57.8843 -57.8834
   -57.8826 -57.8826 -57.8780 -57.8769 -57.8769 -57.8754 -57.8744 -57.8706
   -57.8694 -57.8616 -57.8607 -57.8591 -57.8587 -57.8536 -57.8528 -57.8511
   -57.8488 -57.8471 -57.8471 -57.8468 -57.8409 -57.8366 -57.8346 -57.8342
   -57.8319 -57.8296 -57.8289 -57.8289 -57.8277 -57.8272 -57.8232 -57.8230
   -57.8224 -57.8216 -57.8189 -57.8182 -57.8165 -57.8153 -57.8152 -57.8128
   -57.8087 -57.8081 -57.8062 -57.8056 -57.8053 -57.8028 -57.7992 -57.7985
   -57.7985 -57.7962 -57.7959 -57.7956 -57.7951 -57.7946 -57.7942 -57.7926
   -57.7925 -57.7912 -57.7905 -57.7892 -57.7882 -57.7880 -57.7868 -57.7837
   -57.7829 -57.7807 -57.7806 -57.7800 -57.7800 -57.7734 -57.7722 -57.7722
   -57.7710 -57.7694 -57.7688 -57.7668 -57.7666 -57.7658 -57.7625 -57.7619
   -22.9794 -14.4943 -13.8411 -13.7497 -13.2838 -13.2011 -12.5913 -12.4318
   -12.1640 -11.8901 -11.7674 -11.6207 -11.2553 -11.2375 -11.1890 -11.1368
   -10.7840 -10.7589 -10.4235 -10.4143 -10.4027 -10.3835 -10.3597 -10.3259
   -10.3060 -10.2873 -10.2707 -10.2287 -10.2163 -10.1660  -9.8661  -9.8437
    -9.8353  -9.8342  -9.8004  -9.7900  -9.6423  -9.6002  -9.3840  -9.3655
    -9.3600  -9.3367  -9.3244  -9.3062  -9.2980  -9.2754  -9.2365  -9.2241
    -9.2088  -9.1235  -9.0935  -9.0863  -9.0720  -9.0648  -9.0410  -8.9718
    -8.8263  -8.8192  -8.7974  -8.7826  -8.7708  -8.7643  -8.5614  -8.5421
    -8.5297  -8.5007  -8.4970  -8.4731  -8.3842  -8.3630  -8.3401  -8.3156
    -8.3116  -8.2794  -8.2711  -8.2683  -8.2656  -8.2577  -8.2430  -8.2386
    -8.2108  -8.2026  -8.1660  -8.1588  -8.1524  -8.1482  -8.1407  -8.1371
    -8.1342  -8.1177  -8.0957  -8.0245  -8.0114  -7.9324  -7.9268  -7.9180
    -7.8551  -7.8122  -7.7946  -7.7927  -7.7899  -7.7827  -7.7759  -7.7613
    -7.7530  -7.7470  -7.7395  -7.7174  -7.7158  -7.7115  -7.7093  -7.7024
    -7.6939  -7.6849  -7.6758  -7.6688  -7.6618  -7.6499  -7.6492  -7.6434
    -7.6405  -7.6399  -7.6354  -7.6305  -7.6159  -7.6128  -7.6026  -7.5815
    -7.5645  -7.5612  -7.5585  -7.5576  -7.5476  -7.5385  -7.5285  -7.5266
    -7.5263  -7.4945  -7.4922  -7.4875  -7.4373  -7.4264  -7.3425  -7.3217
    -7.2915  -7.2753  -7.2654  -7.2641  -7.2513  -7.2468  -7.2310  -7.2210
    -7.2116  -7.1617  -7.1481  -7.1145  -7.1037  -7.1022  -7.0967  -7.0799
    -7.0697  -7.0517  -7.0291  -7.0198  -7.0093  -7.0089  -6.9772  -6.9172
    -6.8723  -6.8500  -6.8270  -6.8021  -6.7683  -6.7632  -6.7576  -6.7528
    -6.7510  -6.7346  -6.7268  -6.7065  -6.7061  -6.6735  -6.6730  -6.6463
    -6.6445  -6.6438  -6.6385  -6.6075  -6.5910  -6.3711  -6.3559  -6.3463
    -6.2873  -6.2476  -6.2445  -6.2115  -6.0824  -6.0375  -5.9766  -5.9674
    -5.9441  -5.9017  -5.8994  -5.8743  -5.8703  -5.8480  -5.8454  -5.8071
    -5.8027  -5.7951  -5.7918  -5.7504  -5.6977  -5.6973  -5.6819  -5.6792
    -5.6606  -5.6387  -5.6357  -5.6091  -5.5982  -5.5904  -5.5634  -5.5131
    -5.5125  -5.4989  -5.4958  -5.4949  -5.4914  -5.4787  -5.4760  -5.4724
    -5.4696  -5.4544  -5.4485  -5.4435  -5.3971  -5.3938  -5.3929  -5.3786
    -5.3284  -5.3184  -5.3038  -5.2969  -5.2884  -5.2789  -5.2612  -5.2421
    -5.1886  -5.1735  -5.1639  -5.1582  -5.1193  -5.1146  -5.0837  -5.0761
    -5.0548  -5.0460  -5.0444  -5.0431  -5.0389  -5.0272  -5.0154  -5.0083
    -4.9954  -4.9846  -4.9758  -4.9749  -4.9708  -4.9707  -4.9702  -4.9559
    -4.9519  -4.9326  -4.9242  -4.9234  -4.9213  -4.9211  -4.9136  -4.9036
    -4.8973  -4.8892  -4.8801  -4.8733  -4.8716  -4.8696  -4.8660  -4.8643
    -4.8623  -4.8440  -4.8355  -4.8353  -4.8192  -4.8029  -4.8010  -4.8004
    -4.7987  -4.7885  -4.7880  -4.7851  -4.7773  -4.7552  -4.7523  -4.7411
    -4.7049  -4.6855  -4.6803  -4.6793  -4.6690  -4.6594  -4.6572  -4.6486
    -4.6372  -4.6337  -4.6199  -4.6100  -4.6081  -4.6058  -4.5999  -4.5930
    -4.5887  -4.5856  -4.5827  -4.5748  -4.5711  -4.5701  -4.5696  -4.5441
    -4.5432  -4.5333  -4.5330  -4.5258  -4.5238  -4.5176  -4.5092  -4.5054
    -4.5032  -4.4949  -4.4924  -4.4745  -4.4454  -4.4242  -4.4237  -4.4004
    -4.3968  -4.3790  -4.3159  -4.2861  -4.2049  -4.1912  -4.1833  -4.1777
    -3.9846  -3.9750  -3.9714  -3.9678  -3.9207  -3.9060  -3.8987  -3.8982
    -3.8784  -3.8750

     the Fermi energy is    -6.7281 ev

!    total energy              =  -21093.75801590 Ry
     Harris-Foulkes estimate   =  -21093.75801747 Ry
     estimated scf accuracy    <          9.8E-11 Ry

     The total energy is the sum of the following terms:

     one-electron contribution = -744029.93426969 Ry
     hartree contribution      =  371755.59103731 Ry
     xc contribution           =   -2234.27087181 Ry
     ewald contribution        =  358289.69004942 Ry
     Dispersion Correction     =      -1.39259460 Ry
     one-center paw contrib.   =   -4873.44300439 Ry
     smearing contrib. (-TS)   =       0.00163785 Ry

     total magnetization       =   160.98 Bohr mag/cell
     absolute magnetization    =   167.65 Bohr mag/cell

     convergence has been achieved in  14 iterations

     negative rho (up, down):  2.467E-02 1.968E-02

     Forces acting on atoms (cartesian axes, Ry/au):

     atom    1 type  1   force =     0.00054171   -0.00036536    0.00899101
     atom    2 type  1   force =     0.00169108   -0.00237727   -0.01304152
     atom    3 type  1   force =    -0.00033540   -0.00030872    0.00866897
     atom    4 type  1   force =     0.00047151    0.00055930   -0.00802048
     atom    5 type  1   force =    -0.00000299    0.00001176   -0.00001150
     atom    6 type  1   force =    -0.00000783    0.00000397    0.00002113
     atom    7 type  1   force =     0.00000881   -0.00000756   -0.00004428
     atom    8 type  1   force =    -0.00000297   -0.00003219    0.00009857
     atom    9 type  1   force =    -0.00000372    0.00001081    0.00932076
     atom   10 type  1   force =    -0.00018362   -0.00012609    0.00903288
     atom   11 type  1   force =    -0.00034232    0.00131702   -0.00698237
     atom   12 type  1   force =     0.00098024    0.00079155   -0.01113840
     atom   13 type  1   force =     0.00000393   -0.00000509    0.00005318
     atom   14 type  1   force =    -0.00001988   -0.00002499   -0.00001768
     atom   15 type  1   force =    -0.00000795    0.00001080    0.00007554
     atom   16 type  1   force =    -0.00004025   -0.00004892    0.00000272
     atom   17 type  1   force =    -0.00038478   -0.00021756    0.00863240
     atom   18 type  1   force =     0.00068033    0.00032683   -0.00801547
     atom   19 type  1   force =     0.00035011    0.00028530    0.00863113
     atom   20 type  1   force =     0.00056123   -0.00074603   -0.01131255
     atom   21 type  1   force =     0.00000564   -0.00000286   -0.00004112
     atom   22 type  1   force =    -0.00002072   -0.00002105    0.00009581
     atom   23 type  1   force =    -0.00000388   -0.00001231   -0.00004294
     atom   24 type  1   force =     0.00007980   -0.00012524   -0.00005285
     atom   25 type  1   force =     0.00002358   -0.00001112    0.00767257
     atom   26 type  1   force =    -0.00066878    0.00093277    0.00943902
     atom   27 type  1   force =    -0.00009585   -0.00008436   -0.00641645
     atom   28 type  1   force =    -0.00110058    0.00080690   -0.00697386
     atom   29 type  1   force =     0.00000070   -0.00000932   -0.00004629
     atom   30 type  1   force =    -0.00002461    0.00002933   -0.00000687
     atom   31 type  1   force =    -0.00008591   -0.00008367    0.00003448
     atom   32 type  1   force =    -0.00001920    0.00000053    0.00007473
     atom   33 type  1   force =    -0.00053573    0.00036594    0.00897183
     atom   34 type  1   force =    -0.00050098   -0.00053012   -0.00800598
     atom   35 type  1   force =    -0.00017836    0.00061715    0.00898934
     atom   36 type  1   force =    -0.00180832    0.00255029   -0.01303332
     atom   37 type  1   force =     0.00000950   -0.00003154   -0.00000837
     atom   38 type  1   force =     0.00001298    0.00000683    0.00009603
     atom   39 type  1   force =     0.00001804   -0.00002324   -0.00000910
     atom   40 type  1   force =     0.00002063   -0.00003466    0.00002705
     atom   41 type  1   force =     0.00000506   -0.00000039    0.00782611
     atom   42 type  1   force =     0.00067754   -0.00092318    0.00949786
     atom   43 type  1   force =    -0.00106137   -0.00063773   -0.01114132
     atom   44 type  1   force =     0.00034314   -0.00126053   -0.00695111
     atom   45 type  1   force =     0.00000531   -0.00001154    0.00004780
     atom   46 type  1   force =     0.00003005   -0.00005027   -0.00000542
     atom   47 type  1   force =     0.00005099    0.00001662    0.00000346
     atom   48 type  1   force =     0.00002170   -0.00004309    0.00007166
     atom   49 type  1   force =     0.00040320    0.00020499    0.00868701
     atom   50 type  1   force =    -0.00047909    0.00070876   -0.01132598
     atom   51 type  1   force =     0.00017399   -0.00064224    0.00899966
     atom   52 type  1   force =    -0.00067781   -0.00021859   -0.00801311
     atom   53 type  1   force =    -0.00000222   -0.00001659   -0.00004489
     atom   54 type  1   force =    -0.00006541    0.00007609   -0.00005169
     atom   55 type  1   force =    -0.00001588    0.00000180   -0.00001150
     atom   56 type  1   force =     0.00002194   -0.00001911    0.00009728
     atom   57 type  1   force =    -0.00003863   -0.00000871    0.00932290
     atom   58 type  1   force =     0.00017404    0.00014065    0.00902271
     atom   59 type  1   force =     0.00109403   -0.00070732   -0.00695273
     atom   60 type  1   force =     0.00013780    0.00009046   -0.00642631
     atom   61 type  1   force =     0.00000086   -0.00001222    0.00005114
     atom   62 type  1   force =     0.00002523    0.00000502   -0.00001926
     atom   63 type  1   force =     0.00002721   -0.00004605    0.00006881
     atom   64 type  1   force =     0.00008914    0.00004231    0.00003568
     atom   65 type  2   force =    -0.00001373   -0.00003895   -0.00006989
     atom   66 type  3   force =    -0.00001224   -0.00004801    0.00037141

     Total force =     0.000563     Total SCF correction =     0.000044

     bfgs converged in   6 scf cycles and   5 bfgs steps
     (criteria: energy <  7.3E-07 Ry, force <  3.9E-04 Ry/Bohr)

     End of BFGS Geometry Optimization

     Final energy   =  -21093.7580158971 Ry
Begin final coordinates

ATOMIC_POSITIONS (angstrom)
Fe       1.654912953   1.170200133   0.000000000    0   0   0
Fe       0.000000000   0.000000000   2.026984232    0   0   0
Fe       4.964738858   3.510600399   0.000000000    0   0   0
Fe       3.309825906   2.340400266   2.026984232    0   0   0
Fe       1.674396797   1.170135795   4.024931588
Fe       3.317582715   9.351511739   5.993664305
Fe       4.975246130   3.522373150   4.041069974
Fe       3.364542372   2.336820707   6.011960784
Fe       2.482363858   3.510600399   0.000000000    0   0   0
Fe       4.137287953   1.170200133   0.000000000    0   0   0
Fe       0.827450906   2.340400266   2.026984232    0   0   0
Fe       2.482375000   0.000000000   2.026984232    0   0   0
Fe       2.482387522   3.510923211   4.039753097
Fe       4.160874302   1.187345721   4.032512142
Fe       0.857864064   2.323055388   5.997268247
Fe       2.494803342   0.009087265   6.010513871
Fe       6.619662953   1.170200133   0.000000000    0   0   0
Fe       4.964750000   0.000000000   2.026984232    0   0   0
Fe       9.929488858   3.510600399   0.000000000    0   0   0
Fe       8.274575906   2.340400266   2.026984232    0   0   0
Fe       6.633984150   1.176740935   4.040841143
Fe       4.979494245   0.053502748   6.012218665
Fe       9.919262302   3.499718772   4.040815976
Fe       8.360464245   2.220270967   5.978937263
Fe       7.447113858   3.510600399   0.000000000    0   0   0
Fe       9.102037953   1.170200133   0.000000000    0   0   0
Fe       5.792200906   2.340400266   2.026984232    0   0   0
Fe       7.447125000   0.000000000   2.026984232    0   0   0
Fe       7.447385545   3.510936020   3.999706642
Fe       9.119219693   1.146535147   4.006360607
Fe       5.882297405   2.404688155   6.051535815
Fe      10.764171005   9.328126767   5.997290911
Fe       3.309814764   5.851000664   0.000000000    0   0   0
Fe       1.654901811   4.680800531   2.026984232    0   0   0
Fe       6.619640670   8.191400930   0.000000000    0   0   0
Fe       4.964727717   7.021200797   2.026984232    0   0   0
Fe       3.290652299   5.851635206   4.024979927
Fe      11.530421348   4.685374481   6.012161691
Fe       6.626004064   8.210151360   4.024953769
Fe       4.957524535   7.032267806   5.992509273
Fe       4.137265670   8.191400930   0.000000000    0   0   0
Fe       5.792189764   5.851000664   0.000000000    0   0   0
Fe      12.411852717   7.021200797   2.026984232    0   0   0
Fe       4.137276811   4.680800531   2.026984232    0   0   0
Fe       4.137311842   8.191933612   4.021109575
Fe       5.775518522   5.875209950   4.006106179
Fe      12.400015554   7.013184215   6.010433686
Fe       4.107399461   4.699325677   5.997989448
Fe       8.274564764   5.851000664   0.000000000    0   0   0
Fe       6.619651811   4.680800531   2.026984232    0   0   0
Fe      11.584390670   8.191400930   0.000000000    0   0   0
Fe       9.929477717   7.021200797   2.026984232    0   0   0
Fe       8.260667188   5.845555999   4.041062332
Fe       6.534345153   4.802853070   5.978942698
Fe      11.578512781   8.173489438   4.024917536
Fe       9.915656002   6.969388282   6.011828420
Fe       9.102015670   8.191400930   0.000000000    0   0   0
Fe      10.756939764   5.851000664   0.000000000    0   0   0
Fe       7.447102717   7.021200797   2.026984232    0   0   0
Fe       9.102026811   4.680800531   2.026984232    0   0   0
Fe       9.102287279   8.192050985   4.039754609
Fe      10.733620160   5.834929685   4.032516543
Fe       7.440580173   7.056615628   5.997963680
Fe       9.013146724   4.618397183   6.051332760
N        7.448851461   3.512687181   6.997395469
H        7.448964220   3.513230705   8.026644719
End final coordinates



     Writing output data file Fe_NH_paper_480c_ESM_pn25.save/

     init_run     :     85.17s CPU     86.80s WALL (       1 calls)
     electrons    :  44628.36s CPU  44937.20s WALL (       6 calls)
     update_pot   :    116.45s CPU    116.58s WALL (       5 calls)
     forces       :    267.64s CPU    269.59s WALL (       6 calls)

     Called by init_run:
     wfcinit      :     59.64s CPU     61.07s WALL (       1 calls)
     potinit      :      8.35s CPU      8.39s WALL (       1 calls)
     hinit0       :     14.50s CPU     14.56s WALL (       1 calls)

     Called by electrons:
     c_bands      :  41420.30s CPU  41685.32s WALL (     114 calls)
     sum_band     :   1779.74s CPU   1808.72s WALL (     114 calls)
     v_of_rho     :    187.26s CPU    187.97s WALL (     115 calls)
     newd         :     33.78s CPU     35.43s WALL (     115 calls)
     PAW_pot      :     78.07s CPU     78.57s WALL (     120 calls)
     mix_rho      :   1108.74s CPU   1118.51s WALL (     114 calls)

     Called by c_bands:
     init_us_2    :     53.80s CPU     55.20s WALL (     720 calls)
     cegterg      :  28972.44s CPU  29149.94s WALL (     344 calls)

     Called by sum_band:
     sum_band:bec :      3.37s CPU      3.39s WALL (     357 calls)
     addusdens    :     41.29s CPU     43.93s WALL (     114 calls)

     Called by *egterg:
     h_psi        :   8694.96s CPU   8767.11s WALL (    3039 calls)
     s_psi        :   1838.16s CPU   1841.37s WALL (    3039 calls)
     g_psi        :     25.36s CPU     25.41s WALL (    2692 calls)
     cdiaghg      :  10842.93s CPU  10890.41s WALL (    3006 calls)

     Called by h_psi:
     h_psi:pot    :   8649.99s CPU   8695.10s WALL (    3039 calls)
     h_psi:calbec :   1848.16s CPU   1850.92s WALL (    3039 calls)
     vloc_psi     :   4961.25s CPU   5000.84s WALL (    3039 calls)
     add_vuspsi   :   1840.55s CPU   1843.31s WALL (    3039 calls)

     General routines
     calbec       :   2616.37s CPU   2620.09s WALL (    3468 calls)
     fft          :    118.99s CPU    119.63s WALL (    2968 calls)
     ffts         :    562.93s CPU    566.96s WALL (   67517 calls)
     fftw         :   4657.94s CPU   4696.63s WALL ( 1420214 calls)
     interpolate  :     11.57s CPU     11.61s WALL (     230 calls)
     davcio       :      0.55s CPU     72.08s WALL (    2871 calls)

     Parallel routines
     fft_scatt_xy :   1004.00s CPU   1008.77s WALL ( 1490699 calls)
     fft_scatt_yz :   1361.61s CPU   1381.61s WALL ( 1490699 calls)

     PWSCF        :     12h32m CPU     12h37m WALL


   This run was terminated on:   9:39:23  13Jun2022            

=------------------------------------------------------------------------------=
   JOB DONE.
=------------------------------------------------------------------------------=
