     Message from routine get_command_line:
     unexpected argument # 4     :-in

     Program PWSCF v.6.7MaX starts on  1Jul2022 at  1:43:10 

     This program is part of the open-source Quantum ESPRESSO suite
     for quantum simulation of materials; please cite
         "P. Giannozzi et al., J. Phys.:Condens. Matter 21 395502 (2009);
         "P. Giannozzi et al., J. Phys.:Condens. Matter 29 465901 (2017);
          URL http://www.quantum-espresso.org", 
     in publications or presentations arising from this work. More details at
     http://www.quantum-espresso.org/quote

     Parallel version (MPI), running on   120 processors

     MPI processes distributed on     1 nodes
     K-points division:     npool     =       8
     R & G space division:  proc/nbgrp/npool/nimage =      15
     Waiting for input...
     Reading input from standard input
Warning: card &CELL ignored
Warning: card / ignored

     Current dimensions of program PWSCF are:
     Max number of different atomic species (ntypx) = 10
     Max number of k-points (npk) =  40000
     Max angular momentum in pseudopotentials (lmaxx) =  3

     IMPORTANT: XC functional enforced from input :
     Exchange-correlation= PBE
                           (   1   4   3   4   0   0   0)
     Any further DFT definition will be discarded
     Please, verify this is what you really want


     -------------------------------------------------
     Parameters for Dispersion (Grimme-D2) Correction:
     -------------------------------------------------
       atom      VdW radius       C_6     

        N          2.640         42.670
        H          1.892          4.857

     Subspace diagonalization in iterative solution of the eigenvalue problem:
     one sub-group per band group will be used
     scalapack distributed-memory algorithm (size of sub-group:  3*  3 procs)


     Parallelization info
     --------------------
     sticks:   dense  smooth     PW     G-vecs:    dense   smooth      PW
     Min        3636    1818    468               639190   225950   29545
     Max        3637    1819    470               639197   225953   29547
     Sum       54553   27281   7033              9587919  3389267  443191



     bravais-lattice index     =            0
     lattice parameter (alat)  =      37.7945  a.u.
     unit-cell volume          =   53986.6760 (a.u.)^3
     number of atoms/cell      =            4
     number of atomic types    =            2
     number of electrons       =         8.00
     number of Kohn-Sham states=            8
     kinetic-energy cutoff     =      60.0000  Ry
     charge density cutoff     =     480.0000  Ry
     scf convergence threshold =      1.0E-08
     mixing beta               =       0.7000
     number of iterations used =           10  plain     mixing
     energy convergence thresh.=      7.3E-07
     force convergence thresh. =      3.9E-04
     Exchange-correlation= PBE
                           (   1   4   3   4   0   0   0)
     nstep                     =           50


     Effective Screening Medium Method
     =================================
     Boundary Conditions: Metal-Slab-Metal
     field strength                   =     0.02 Ry/a.u.
     grid points for fit at edges     =        4 


     celldm(1)=  37.794522  celldm(2)=   0.000000  celldm(3)=   0.000000
     celldm(4)=   0.000000  celldm(5)=   0.000000  celldm(6)=   0.000000

     crystal axes: (cart. coord. in units of alat)
               a(1) = (   1.000000   0.000000   0.000000 )  
               a(2) = (   0.000000   1.000000   0.000000 )  
               a(3) = (   0.000000   0.000000   1.000000 )  

     reciprocal axes: (cart. coord. in units 2 pi/alat)
               b(1) = (  1.000000  0.000000  0.000000 )  
               b(2) = (  0.000000  1.000000  0.000000 )  
               b(3) = (  0.000000  0.000000  1.000000 )  


     PseudoPot. # 1 for N  read from file:
     ../../SSSP/N.pbe-n-radius_5.UPF
     MD5 check sum: 16739722b17309cd8fe442a2ace49922
     Pseudo is Ultrasoft + core correction, Zval =  5.0
     Generated using "atomic" code by A. Dal Corso  v.5.1
     Using radial grid of 1085 points,  4 beta functions with: 
                l(1) =   0
                l(2) =   0
                l(3) =   1
                l(4) =   1
     Q(r) pseudized with 0 coefficients 


     PseudoPot. # 2 for H  read from file:
     ../../SSSP/H.pbe-rrkjus_psl.1.0.0.UPF
     MD5 check sum: f52b6d4d1c606e5624b1dc7b2218f220
     Pseudo is Ultrasoft, Zval =  1.0
     Generated using "atomic" code by A. Dal Corso  v.5.1
     Using radial grid of  929 points,  2 beta functions with: 
                l(1) =   0
                l(2) =   0
     Q(r) pseudized with 0 coefficients 


     atomic species   valence    mass     pseudopotential
        N              5.00    14.00700     N ( 1.00)
        H              1.00     1.00800     H ( 1.00)

     Starting magnetic structure 
     atomic species   magnetization
        N            0.100
        H            0.100

     No symmetry found



   Cartesian axes

     site n.     atom                  positions (alat units)
         1           N   tau(   1) = (   0.5000000   0.5000000   0.0000000  )
         2           H   tau(   2) = (   0.5000000   0.5478613  -0.0174102  )
         3           H   tau(   3) = (   0.5414491   0.4760695  -0.0174105  )
         4           H   tau(   4) = (   0.4585510   0.4760695  -0.0174106  )

     number of k points=    10  Methfessel-Paxton smearing, width (Ry)=  0.0100
                       cart. coord. in units 2pi/alat
        k(    1) = (   0.0000000   0.0000000   0.0000000), wk =   0.0625000
        k(    2) = (   0.0000000   0.2500000   0.0000000), wk =   0.1250000
        k(    3) = (   0.0000000  -0.5000000   0.0000000), wk =   0.0625000
        k(    4) = (   0.2500000   0.0000000   0.0000000), wk =   0.1250000
        k(    5) = (   0.2500000   0.2500000   0.0000000), wk =   0.1250000
        k(    6) = (   0.2500000  -0.5000000   0.0000000), wk =   0.1250000
        k(    7) = (   0.2500000  -0.2500000   0.0000000), wk =   0.1250000
        k(    8) = (  -0.5000000   0.0000000   0.0000000), wk =   0.0625000
        k(    9) = (  -0.5000000   0.2500000   0.0000000), wk =   0.1250000
        k(   10) = (  -0.5000000  -0.5000000   0.0000000), wk =   0.0625000

     Dense  grid:  9587919 G-vectors     FFT dimensions: ( 270, 270, 270)

     Smooth grid:  3389267 G-vectors     FFT dimensions: ( 192, 192, 192)

     Estimated max dynamical RAM per process >     390.11 MB

     Estimated total dynamical RAM >      45.72 GB
     Generating pointlists ...
     new r_m :   0.0210 (alat units)  0.7940 (a.u.) for type    1
     new r_m :   0.0210 (alat units)  0.7940 (a.u.) for type    2

     Initial potential from superposition of free atoms

     starting charge    7.99996, renormalised to    8.00000

     negative rho (up, down):  9.690E-05 7.928E-05
     Starting wfcs are    7 randomized atomic wfcs +    1 random wfcs

     total cpu time spent up to now is       22.6 secs

     Self-consistent Calculation

     iteration #  1     ecut=    60.00 Ry     beta= 0.70
     CG style diagonalization
     c_bands:  2 eigenvalues not converged
     c_bands:  2 eigenvalues not converged
     c_bands:  3 eigenvalues not converged
     ethr =  1.00E-04,  avg # of iterations = 12.7

     negative rho (up, down):  2.128E-04 2.046E-04

     total cpu time spent up to now is       59.3 secs

     total energy              =     -23.51216237 Ry
     estimated scf accuracy    <       0.68797405 Ry

     total magnetization       =     0.00 Bohr mag/cell
     absolute magnetization    =     0.06 Bohr mag/cell

     iteration #  2     ecut=    60.00 Ry     beta= 0.70
     CG style diagonalization
     ethr =  8.60E-03,  avg # of iterations =  3.5

     negative rho (up, down):  1.434E-04 1.266E-04

     total cpu time spent up to now is       78.1 secs

     total energy              =     -23.60737963 Ry
     estimated scf accuracy    <       0.40360187 Ry

     total magnetization       =     0.01 Bohr mag/cell
     absolute magnetization    =     0.06 Bohr mag/cell

     iteration #  3     ecut=    60.00 Ry     beta= 0.70
     CG style diagonalization
     ethr =  5.05E-03,  avg # of iterations =  3.4

     negative rho (up, down):  2.312E-04 2.381E-04

     total cpu time spent up to now is       96.7 secs

     total energy              =     -23.77037698 Ry
     estimated scf accuracy    <       0.00866121 Ry

     total magnetization       =     0.02 Bohr mag/cell
     absolute magnetization    =     0.04 Bohr mag/cell

     iteration #  4     ecut=    60.00 Ry     beta= 0.70
     CG style diagonalization
     ethr =  1.08E-04,  avg # of iterations =  5.2

     negative rho (up, down):  1.571E-04 1.428E-04

     total cpu time spent up to now is      119.1 secs

     total energy              =     -23.77436424 Ry
     estimated scf accuracy    <       0.00461369 Ry

     total magnetization       =     0.07 Bohr mag/cell
     absolute magnetization    =     0.07 Bohr mag/cell

     iteration #  5     ecut=    60.00 Ry     beta= 0.70
     CG style diagonalization
     ethr =  5.77E-05,  avg # of iterations =  5.4

     negative rho (up, down):  1.700E-04 1.541E-04

     total cpu time spent up to now is      141.8 secs

     total energy              =     -23.77655374 Ry
     estimated scf accuracy    <       0.00041624 Ry

     total magnetization       =     0.04 Bohr mag/cell
     absolute magnetization    =     0.05 Bohr mag/cell

     iteration #  6     ecut=    60.00 Ry     beta= 0.70
     CG style diagonalization
     ethr =  5.20E-06,  avg # of iterations =  6.4

     negative rho (up, down):  1.691E-04 1.518E-04

     total cpu time spent up to now is      167.0 secs

     total energy              =     -23.77696605 Ry
     estimated scf accuracy    <       0.00012092 Ry

     total magnetization       =     0.00 Bohr mag/cell
     absolute magnetization    =     0.01 Bohr mag/cell

     iteration #  7     ecut=    60.00 Ry     beta= 0.70
     CG style diagonalization
     ethr =  1.51E-06,  avg # of iterations =  5.5

     negative rho (up, down):  1.887E-04 1.749E-04

     total cpu time spent up to now is      190.4 secs

     total energy              =     -23.77705898 Ry
     estimated scf accuracy    <       0.00011907 Ry

     total magnetization       =    -0.00 Bohr mag/cell
     absolute magnetization    =     0.01 Bohr mag/cell

     iteration #  8     ecut=    60.00 Ry     beta= 0.70
     CG style diagonalization
     ethr =  1.49E-06,  avg # of iterations =  4.2

     negative rho (up, down):  2.128E-04 2.168E-04

     total cpu time spent up to now is      211.2 secs

     total energy              =     -23.77703324 Ry
     estimated scf accuracy    <       0.00009142 Ry

     total magnetization       =    -0.00 Bohr mag/cell
     absolute magnetization    =     0.01 Bohr mag/cell

     iteration #  9     ecut=    60.00 Ry     beta= 0.70
     CG style diagonalization
     ethr =  1.14E-06,  avg # of iterations =  4.7

     negative rho (up, down):  2.035E-04 2.015E-04

     total cpu time spent up to now is      232.9 secs

     total energy              =     -23.77707278 Ry
     estimated scf accuracy    <       0.00012105 Ry

     total magnetization       =     0.00 Bohr mag/cell
     absolute magnetization    =     0.01 Bohr mag/cell

     iteration # 10     ecut=    60.00 Ry     beta= 0.70
     CG style diagonalization
     ethr =  1.14E-06,  avg # of iterations =  3.5

     negative rho (up, down):  2.029E-04 2.008E-04

     total cpu time spent up to now is      252.5 secs

     total energy              =     -23.77707848 Ry
     estimated scf accuracy    <       0.00007708 Ry

     total magnetization       =    -0.00 Bohr mag/cell
     absolute magnetization    =     0.00 Bohr mag/cell

     iteration # 11     ecut=    60.00 Ry     beta= 0.70
     CG style diagonalization
     ethr =  9.63E-07,  avg # of iterations =  3.2

     negative rho (up, down):  2.059E-04 2.089E-04

     total cpu time spent up to now is      271.6 secs

     total energy              =     -23.77706371 Ry
     estimated scf accuracy    <       0.00006471 Ry

     total magnetization       =    -0.00 Bohr mag/cell
     absolute magnetization    =     0.00 Bohr mag/cell

     iteration # 12     ecut=    60.00 Ry     beta= 0.70
     CG style diagonalization
     ethr =  8.09E-07,  avg # of iterations =  3.1

     negative rho (up, down):  2.078E-04 2.137E-04

     total cpu time spent up to now is      290.5 secs

     total energy              =     -23.77705864 Ry
     estimated scf accuracy    <       0.00001483 Ry

     total magnetization       =    -0.00 Bohr mag/cell
     absolute magnetization    =     0.00 Bohr mag/cell

     iteration # 13     ecut=    60.00 Ry     beta= 0.70
     CG style diagonalization
     ethr =  1.85E-07,  avg # of iterations =  3.4

     negative rho (up, down):  2.054E-04 2.081E-04

     total cpu time spent up to now is      310.0 secs

     total energy              =     -23.77706218 Ry
     estimated scf accuracy    <       0.00000029 Ry

     total magnetization       =    -0.00 Bohr mag/cell
     absolute magnetization    =     0.00 Bohr mag/cell

     iteration # 14     ecut=    60.00 Ry     beta= 0.70
     CG style diagonalization
     ethr =  3.60E-09,  avg # of iterations =  4.2

     negative rho (up, down):  2.046E-04 2.064E-04

     total cpu time spent up to now is      331.1 secs

     total energy              =     -23.77706283 Ry
     estimated scf accuracy    <       0.00000058 Ry

     total magnetization       =    -0.00 Bohr mag/cell
     absolute magnetization    =     0.00 Bohr mag/cell

     iteration # 15     ecut=    60.00 Ry     beta= 0.70
     CG style diagonalization
     ethr =  3.60E-09,  avg # of iterations =  3.1

     negative rho (up, down):  2.028E-04 2.028E-04

     total cpu time spent up to now is      350.0 secs

     total energy              =     -23.77706264 Ry
     estimated scf accuracy    <       0.00000094 Ry

     total magnetization       =     0.00 Bohr mag/cell
     absolute magnetization    =     0.00 Bohr mag/cell

     iteration # 16     ecut=    60.00 Ry     beta= 0.70
     CG style diagonalization
     ethr =  3.60E-09,  avg # of iterations =  3.2

     negative rho (up, down):  2.025E-04 2.022E-04

     total cpu time spent up to now is      369.1 secs

     total energy              =     -23.77706260 Ry
     estimated scf accuracy    <       0.00000020 Ry

     total magnetization       =     0.00 Bohr mag/cell
     absolute magnetization    =     0.00 Bohr mag/cell

     iteration # 17     ecut=    60.00 Ry     beta= 0.70
     CG style diagonalization
     ethr =  2.56E-09,  avg # of iterations =  3.1

     negative rho (up, down):  2.027E-04 2.026E-04

     total cpu time spent up to now is      387.9 secs

     total energy              =     -23.77706261 Ry
     estimated scf accuracy    <       0.00000002 Ry

     total magnetization       =     0.00 Bohr mag/cell
     absolute magnetization    =     0.00 Bohr mag/cell

     iteration # 18     ecut=    60.00 Ry     beta= 0.70
     CG style diagonalization
     ethr =  2.11E-10,  avg # of iterations =  3.5

     negative rho (up, down):  2.028E-04 2.028E-04

     Magnetic moment per site:
     atom:    1    charge:    1.3366    magn:   -0.0000    constr:    0.0000
     atom:    2    charge:    0.4428    magn:   -0.0000    constr:    0.0000
     atom:    3    charge:    0.4428    magn:   -0.0000    constr:    0.0000
     atom:    4    charge:    0.4428    magn:   -0.0000    constr:    0.0000

     total cpu time spent up to now is      405.2 secs

     End of self-consistent calculation

 ------ SPIN UP ------------


          k = 0.0000 0.0000 0.0000 (423701 PWs)   bands (ev):

   -16.9425  -7.2377  -7.2377  -1.9778   1.5767   1.9528   1.9531   1.9552

          k = 0.0000 0.2500 0.0000 (423725 PWs)   bands (ev):

   -16.9425  -7.2377  -7.2377  -1.9778   1.6003   1.7884   1.9777   1.9782

          k = 0.0000-0.5000 0.0000 (423542 PWs)   bands (ev):

   -16.9425  -7.2377  -7.2377  -1.9778   1.6692   1.6731   2.0487   2.0490

          k = 0.2500 0.0000 0.0000 (423725 PWs)   bands (ev):

   -16.9425  -7.2377  -7.2377  -1.9778   1.6004   1.7882   1.9786   1.9788

          k = 0.2500 0.2500 0.0000 (423766 PWs)   bands (ev):

   -16.9425  -7.2377  -7.2377  -1.9778   1.6240   1.8112   1.8131   2.0013

          k = 0.2500-0.5000 0.0000 (423782 PWs)   bands (ev):

   -16.9425  -7.2377  -7.2377  -1.9778   1.6920   1.6964   1.8801   1.8846

          k = 0.2500-0.2500 0.0000 (423766 PWs)   bands (ev):

   -16.9425  -7.2377  -7.2377  -1.9778   1.6238   1.8110   1.8133   2.0011

          k =-0.5000 0.0000 0.0000 (423542 PWs)   bands (ev):

   -16.9425  -7.2377  -7.2377  -1.9778   1.6694   1.6730   2.0470   2.0491

          k =-0.5000 0.2500 0.0000 (423782 PWs)   bands (ev):

   -16.9425  -7.2377  -7.2377  -1.9778   1.6924   1.6965   1.8805   1.8845

          k =-0.5000-0.5000 0.0000 (423708 PWs)   bands (ev):

   -16.9425  -7.2377  -7.2377  -1.9778   1.7615   1.7635   1.7637   1.7702

 ------ SPIN DOWN ----------


          k = 0.0000 0.0000 0.0000 (423701 PWs)   bands (ev):

   -16.9425  -7.2377  -7.2376  -1.9778   1.5767   1.9524   1.9530   1.9551

          k = 0.0000 0.2500 0.0000 (423725 PWs)   bands (ev):

   -16.9425  -7.2377  -7.2376  -1.9778   1.6003   1.7888   1.9768   1.9773

          k = 0.0000-0.5000 0.0000 (423542 PWs)   bands (ev):

   -16.9425  -7.2377  -7.2376  -1.9778   1.6687   1.6737   2.0454   2.0486

          k = 0.2500 0.0000 0.0000 (423725 PWs)   bands (ev):

   -16.9425  -7.2377  -7.2376  -1.9778   1.6003   1.7887   1.9772   1.9784

          k = 0.2500 0.2500 0.0000 (423766 PWs)   bands (ev):

   -16.9425  -7.2377  -7.2376  -1.9778   1.6237   1.8109   1.8131   2.0002

          k = 0.2500-0.5000 0.0000 (423782 PWs)   bands (ev):

   -16.9425  -7.2377  -7.2376  -1.9778   1.6922   1.6964   1.8803   1.8845

          k = 0.2500-0.2500 0.0000 (423766 PWs)   bands (ev):

   -16.9425  -7.2377  -7.2376  -1.9778   1.6237   1.8108   1.8134   1.9999

          k =-0.5000 0.0000 0.0000 (423542 PWs)   bands (ev):

   -16.9425  -7.2377  -7.2376  -1.9778   1.6688   1.6737   2.0466   2.0488

          k =-0.5000 0.2500 0.0000 (423782 PWs)   bands (ev):

   -16.9425  -7.2377  -7.2376  -1.9778   1.6922   1.6964   1.8802   1.8847

          k =-0.5000-0.5000 0.0000 (423708 PWs)   bands (ev):

   -16.9425  -7.2377  -7.2376  -1.9778   1.7616   1.7635   1.7636   1.7702

     the Fermi energy is    -0.1208 ev

!    total energy              =     -23.77706262 Ry
     estimated scf accuracy    <          1.5E-09 Ry
     smearing contrib. (-TS)   =       0.00000000 Ry
     internal energy E=F+TS    =     -23.77706262 Ry

     The total energy is F=E-TS. E is the sum of the following terms:
     one-electron contribution =     -64.47945912 Ry
     hartree contribution      =      34.50930046 Ry
     xc contribution           =      -7.58666728 Ry
     ewald contribution        =      13.78012876 Ry
     Dispersion Correction     =      -0.00036544 Ry

     total magnetization       =    -0.00 Bohr mag/cell
     absolute magnetization    =     0.00 Bohr mag/cell

     convergence has been achieved in  18 iterations

     negative rho (up, down):  2.028E-04 2.028E-04

     Forces acting on atoms (cartesian axes, Ry/au):

     atom    1 type  1   force =     0.00000026    0.00000007    0.01943743
     atom    2 type  2   force =    -0.00000009   -0.00404479   -0.00648377
     atom    3 type  2   force =    -0.00350326    0.00202234   -0.00648405
     atom    4 type  2   force =     0.00350309    0.00202238   -0.00648412

     Total force =     0.013237     Total SCF correction =     0.000018

     BFGS Geometry Optimization
     Energy error            =      0.0E+00
     Gradient error          =      6.5E-03

     number of scf cycles    =   1
     number of bfgs steps    =   0

     energy   new            =     -23.7770626188 Ry

     new trust radius        =       0.0076423554 bohr
     new conv_thr            =       0.0000000100 Ry


ATOMIC_POSITIONS (angstrom)
N            10.0000000000       10.0000000000        0.0000000000    0   0   0
H            10.0000007699       10.9550855444       -0.3516355089
H            10.8271273456        9.5224606051       -0.3516417596
H             9.1728735334        9.5224604720       -0.3516434248



     Writing output data file ./NH3_ESM_p25.save/
     NEW-OLD atomic charge density approx. for the potential

     negative rho (up, down):  2.030E-04 2.030E-04
     Generating pointlists ...

     total cpu time spent up to now is      428.5 secs

     Self-consistent Calculation

     iteration #  1     ecut=    60.00 Ry     beta= 0.70
     CG style diagonalization
     ethr =  1.00E-06,  avg # of iterations =  2.5

     Threshold (ethr) on eigenvalues was too large:
     Diagonalizing with lowered threshold

     CG style diagonalization
     ethr =  5.43E-08,  avg # of iterations =  2.5

     negative rho (up, down):  2.030E-04 2.030E-04

     total cpu time spent up to now is      453.1 secs

     total energy              =     -23.77722659 Ry
     estimated scf accuracy    <       0.00000454 Ry

     total magnetization       =    -0.00 Bohr mag/cell
     absolute magnetization    =     0.00 Bohr mag/cell

     iteration #  2     ecut=    60.00 Ry     beta= 0.70
     CG style diagonalization
     ethr =  5.68E-08,  avg # of iterations =  3.5

     negative rho (up, down):  2.028E-04 2.028E-04

     total cpu time spent up to now is      471.9 secs

     total energy              =     -23.77722735 Ry
     estimated scf accuracy    <       0.00000098 Ry

     total magnetization       =     0.00 Bohr mag/cell
     absolute magnetization    =     0.00 Bohr mag/cell

     iteration #  3     ecut=    60.00 Ry     beta= 0.70
     CG style diagonalization
     ethr =  1.22E-08,  avg # of iterations =  3.6

     negative rho (up, down):  2.029E-04 2.029E-04

     total cpu time spent up to now is      490.9 secs

     total energy              =     -23.77722776 Ry
     estimated scf accuracy    <       0.00000014 Ry

     total magnetization       =    -0.00 Bohr mag/cell
     absolute magnetization    =     0.00 Bohr mag/cell

     iteration #  4     ecut=    60.00 Ry     beta= 0.70
     CG style diagonalization
     ethr =  1.71E-09,  avg # of iterations =  3.4

     negative rho (up, down):  2.029E-04 2.029E-04

     Magnetic moment per site:
     atom:    1    charge:    1.3370    magn:    0.0000    constr:    0.0000
     atom:    2    charge:    0.4437    magn:    0.0000    constr:    0.0000
     atom:    3    charge:    0.4436    magn:    0.0000    constr:    0.0000
     atom:    4    charge:    0.4436    magn:    0.0000    constr:    0.0000

     total cpu time spent up to now is      507.8 secs

     End of self-consistent calculation

 ------ SPIN UP ------------


          k = 0.0000 0.0000 0.0000 (423701 PWs)   bands (ev):

   -16.9601  -7.2350  -7.2350  -1.9925   1.5769   1.9528   1.9531   1.9555

          k = 0.0000 0.2500 0.0000 (423725 PWs)   bands (ev):

   -16.9601  -7.2350  -7.2350  -1.9925   1.6004   1.7885   1.9777   1.9781

          k = 0.0000-0.5000 0.0000 (423542 PWs)   bands (ev):

   -16.9601  -7.2350  -7.2350  -1.9925   1.6691   1.6732   2.0488   2.0491

          k = 0.2500 0.0000 0.0000 (423725 PWs)   bands (ev):

   -16.9601  -7.2350  -7.2350  -1.9926   1.6005   1.7884   1.9785   1.9787

          k = 0.2500 0.2500 0.0000 (423766 PWs)   bands (ev):

   -16.9601  -7.2350  -7.2350  -1.9926   1.6240   1.8112   1.8132   2.0012

          k = 0.2500-0.5000 0.0000 (423782 PWs)   bands (ev):

   -16.9601  -7.2350  -7.2350  -1.9926   1.6921   1.6966   1.8802   1.8848

          k = 0.2500-0.2500 0.0000 (423766 PWs)   bands (ev):

   -16.9601  -7.2350  -7.2350  -1.9926   1.6239   1.8110   1.8134   2.0011

          k =-0.5000 0.0000 0.0000 (423542 PWs)   bands (ev):

   -16.9601  -7.2350  -7.2350  -1.9925   1.6693   1.6732   2.0470   2.0491

          k =-0.5000 0.2500 0.0000 (423782 PWs)   bands (ev):

   -16.9601  -7.2350  -7.2350  -1.9926   1.6924   1.6967   1.8805   1.8847

          k =-0.5000-0.5000 0.0000 (423708 PWs)   bands (ev):

   -16.9601  -7.2350  -7.2350  -1.9926   1.7616   1.7636   1.7638   1.7705

 ------ SPIN DOWN ----------


          k = 0.0000 0.0000 0.0000 (423701 PWs)   bands (ev):

   -16.9601  -7.2350  -7.2350  -1.9926   1.5769   1.9526   1.9530   1.9553

          k = 0.0000 0.2500 0.0000 (423725 PWs)   bands (ev):

   -16.9601  -7.2350  -7.2350  -1.9926   1.6004   1.7888   1.9769   1.9773

          k = 0.0000-0.5000 0.0000 (423542 PWs)   bands (ev):

   -16.9601  -7.2350  -7.2350  -1.9925   1.6688   1.6738   2.0455   2.0488

          k = 0.2500 0.0000 0.0000 (423725 PWs)   bands (ev):

   -16.9601  -7.2350  -7.2350  -1.9926   1.6004   1.7887   1.9773   1.9783

          k = 0.2500 0.2500 0.0000 (423766 PWs)   bands (ev):

   -16.9601  -7.2350  -7.2350  -1.9926   1.6238   1.8110   1.8133   2.0003

          k = 0.2500-0.5000 0.0000 (423782 PWs)   bands (ev):

   -16.9601  -7.2350  -7.2350  -1.9926   1.6922   1.6966   1.8803   1.8848

          k = 0.2500-0.2500 0.0000 (423766 PWs)   bands (ev):

   -16.9601  -7.2350  -7.2350  -1.9926   1.6238   1.8109   1.8135   2.0001

          k =-0.5000 0.0000 0.0000 (423542 PWs)   bands (ev):

   -16.9601  -7.2350  -7.2350  -1.9925   1.6688   1.6737   2.0468   2.0490

          k =-0.5000 0.2500 0.0000 (423782 PWs)   bands (ev):

   -16.9601  -7.2350  -7.2350  -1.9926   1.6923   1.6966   1.8803   1.8848

          k =-0.5000-0.5000 0.0000 (423708 PWs)   bands (ev):

   -16.9601  -7.2350  -7.2350  -1.9926   1.7616   1.7636   1.7638   1.7705

     the Fermi energy is    -0.1229 ev

!    total energy              =     -23.77722778 Ry
     estimated scf accuracy    <          8.7E-10 Ry
     smearing contrib. (-TS)   =       0.00000000 Ry
     internal energy E=F+TS    =     -23.77722778 Ry

     The total energy is F=E-TS. E is the sum of the following terms:
     one-electron contribution =     -64.50760775 Ry
     hartree contribution      =      34.52302154 Ry
     xc contribution           =      -7.58904763 Ry
     ewald contribution        =      13.79676351 Ry
     Dispersion Correction     =      -0.00035746 Ry

     total magnetization       =    -0.00 Bohr mag/cell
     absolute magnetization    =     0.00 Bohr mag/cell

     convergence has been achieved in   4 iterations

     negative rho (up, down):  2.029E-04 2.029E-04

     Forces acting on atoms (cartesian axes, Ry/au):

     atom    1 type  1   force =     0.00000019    0.00000016    0.01981535
     atom    2 type  2   force =    -0.00000010   -0.00219546   -0.00659875
     atom    3 type  2   force =    -0.00190137    0.00109762   -0.00659918
     atom    4 type  2   force =     0.00190128    0.00109768   -0.00659927

     Total force =     0.012046     Total SCF correction =     0.000004
     Energy error            =      1.7E-04
     Gradient error          =      6.6E-03

     number of scf cycles    =   2
     number of bfgs steps    =   1

     energy   old            =     -23.7770626188 Ry
     energy   new            =     -23.7772277820 Ry

     CASE: energy  _new < energy  _old


     WARNING: bfgs curvature condition failed, Theta= 0.904
     new trust radius        =       0.0084065909 bohr
     new conv_thr            =       0.0000000017 Ry


ATOMIC_POSITIONS (angstrom)
N            10.0000000000       10.0000000000        0.0000000000    0   0   0
H            10.0000007098       10.9533336776       -0.3557243262
H            10.8256100872        9.5233364823       -0.3557308136
H             9.1743907175        9.5233363820       -0.3557325281



     Writing output data file ./NH3_ESM_p25.save/
     NEW-OLD atomic charge density approx. for the potential

     negative rho (up, down):  2.030E-04 2.030E-04
     Generating pointlists ...

     total cpu time spent up to now is      529.8 secs

     Self-consistent Calculation

     iteration #  1     ecut=    60.00 Ry     beta= 0.70
     CG style diagonalization
     ethr =  1.00E-06,  avg # of iterations =  2.5

     Threshold (ethr) on eigenvalues was too large:
     Diagonalizing with lowered threshold

     CG style diagonalization
     ethr =  4.94E-08,  avg # of iterations =  2.6

     negative rho (up, down):  2.029E-04 2.029E-04

     total cpu time spent up to now is      554.7 secs

     total energy              =     -23.77739481 Ry
     estimated scf accuracy    <       0.00000336 Ry

     total magnetization       =    -0.00 Bohr mag/cell
     absolute magnetization    =     0.00 Bohr mag/cell

     iteration #  2     ecut=    60.00 Ry     beta= 0.70
     CG style diagonalization
     ethr =  4.20E-08,  avg # of iterations =  3.1

     negative rho (up, down):  2.029E-04 2.029E-04

     total cpu time spent up to now is      572.7 secs

     total energy              =     -23.77739540 Ry
     estimated scf accuracy    <       0.00000033 Ry

     total magnetization       =    -0.00 Bohr mag/cell
     absolute magnetization    =     0.00 Bohr mag/cell

     iteration #  3     ecut=    60.00 Ry     beta= 0.70
     CG style diagonalization
     ethr =  4.14E-09,  avg # of iterations =  3.1

     negative rho (up, down):  2.029E-04 2.029E-04

     total cpu time spent up to now is      590.8 secs

     total energy              =     -23.77739546 Ry
     estimated scf accuracy    <          2.5E-09 Ry

     total magnetization       =     0.00 Bohr mag/cell
     absolute magnetization    =     0.00 Bohr mag/cell

     iteration #  4     ecut=    60.00 Ry     beta= 0.70
     CG style diagonalization
     ethr =  3.17E-11,  avg # of iterations =  4.3

     negative rho (up, down):  2.029E-04 2.029E-04

     Magnetic moment per site:
     atom:    1    charge:    1.3370    magn:    0.0000    constr:    0.0000
     atom:    2    charge:    0.4441    magn:   -0.0000    constr:    0.0000
     atom:    3    charge:    0.4439    magn:   -0.0000    constr:    0.0000
     atom:    4    charge:    0.4439    magn:   -0.0000    constr:    0.0000

     total cpu time spent up to now is      609.5 secs

     End of self-consistent calculation

 ------ SPIN UP ------------


          k = 0.0000 0.0000 0.0000 (423701 PWs)   bands (ev):

   -16.9726  -7.2270  -7.2270  -2.0088   1.5770   1.9529   1.9531   1.9557

          k = 0.0000 0.2500 0.0000 (423725 PWs)   bands (ev):

   -16.9726  -7.2270  -7.2270  -2.0088   1.6005   1.7887   1.9777   1.9781

          k = 0.0000-0.5000 0.0000 (423542 PWs)   bands (ev):

   -16.9726  -7.2270  -7.2270  -2.0088   1.6691   1.6734   2.0489   2.0492

          k = 0.2500 0.0000 0.0000 (423725 PWs)   bands (ev):

   -16.9726  -7.2270  -7.2270  -2.0088   1.6006   1.7885   1.9784   1.9785

          k = 0.2500 0.2500 0.0000 (423766 PWs)   bands (ev):

   -16.9726  -7.2270  -7.2270  -2.0088   1.6241   1.8112   1.8133   2.0013

          k = 0.2500-0.5000 0.0000 (423782 PWs)   bands (ev):

   -16.9726  -7.2270  -7.2270  -2.0088   1.6922   1.6968   1.8803   1.8850

          k = 0.2500-0.2500 0.0000 (423766 PWs)   bands (ev):

   -16.9726  -7.2270  -7.2270  -2.0088   1.6241   1.8111   1.8135   2.0012

          k =-0.5000 0.0000 0.0000 (423542 PWs)   bands (ev):

   -16.9726  -7.2270  -7.2270  -2.0088   1.6693   1.6734   2.0471   2.0493

          k =-0.5000 0.2500 0.0000 (423782 PWs)   bands (ev):

   -16.9726  -7.2270  -7.2270  -2.0088   1.6924   1.6968   1.8805   1.8849

          k =-0.5000-0.5000 0.0000 (423708 PWs)   bands (ev):

   -16.9726  -7.2270  -7.2270  -2.0088   1.7617   1.7638   1.7639   1.7708

 ------ SPIN DOWN ----------


          k = 0.0000 0.0000 0.0000 (423701 PWs)   bands (ev):

   -16.9726  -7.2270  -7.2270  -2.0088   1.5771   1.9528   1.9531   1.9556

          k = 0.0000 0.2500 0.0000 (423725 PWs)   bands (ev):

   -16.9726  -7.2270  -7.2270  -2.0088   1.6006   1.7889   1.9770   1.9774

          k = 0.0000-0.5000 0.0000 (423542 PWs)   bands (ev):

   -16.9726  -7.2270  -7.2270  -2.0088   1.6688   1.6738   2.0455   2.0490

          k = 0.2500 0.0000 0.0000 (423725 PWs)   bands (ev):

   -16.9726  -7.2270  -7.2270  -2.0088   1.6005   1.7888   1.9774   1.9782

          k = 0.2500 0.2500 0.0000 (423766 PWs)   bands (ev):

   -16.9726  -7.2270  -7.2270  -2.0088   1.6240   1.8110   1.8134   2.0005

          k = 0.2500-0.5000 0.0000 (423782 PWs)   bands (ev):

   -16.9726  -7.2270  -7.2270  -2.0088   1.6923   1.6968   1.8804   1.8850

          k = 0.2500-0.2500 0.0000 (423766 PWs)   bands (ev):

   -16.9726  -7.2270  -7.2270  -2.0088   1.6240   1.8110   1.8136   2.0002

          k =-0.5000 0.0000 0.0000 (423542 PWs)   bands (ev):

   -16.9726  -7.2270  -7.2270  -2.0088   1.6689   1.6738   2.0470   2.0492

          k =-0.5000 0.2500 0.0000 (423782 PWs)   bands (ev):

   -16.9726  -7.2270  -7.2270  -2.0088   1.6924   1.6968   1.8804   1.8850

          k =-0.5000-0.5000 0.0000 (423708 PWs)   bands (ev):

   -16.9726  -7.2270  -7.2270  -2.0088   1.7617   1.7638   1.7639   1.7708

     the Fermi energy is    -0.1244 ev

!    total energy              =     -23.77739547 Ry
     estimated scf accuracy    <          1.4E-09 Ry
     smearing contrib. (-TS)   =       0.00000000 Ry
     internal energy E=F+TS    =     -23.77739547 Ry

     The total energy is F=E-TS. E is the sum of the following terms:
     one-electron contribution =     -64.51831103 Ry
     hartree contribution      =      34.52787973 Ry
     xc contribution           =      -7.58985701 Ry
     ewald contribution        =      13.80324391 Ry
     Dispersion Correction     =      -0.00035106 Ry

     total magnetization       =     0.00 Bohr mag/cell
     absolute magnetization    =     0.00 Bohr mag/cell

     convergence has been achieved in   4 iterations

     negative rho (up, down):  2.029E-04 2.029E-04

     Forces acting on atoms (cartesian axes, Ry/au):

     atom    1 type  1   force =     0.00000011    0.00000013    0.01925095
     atom    2 type  2   force =    -0.00000008   -0.00117950   -0.00641844
     atom    3 type  2   force =    -0.00102150    0.00058965   -0.00641878
     atom    4 type  2   force =     0.00102148    0.00058973   -0.00641881

     Total force =     0.011304     Total SCF correction =     0.000017
     Energy error            =      1.7E-04
     Gradient error          =      6.4E-03

     number of scf cycles    =   3
     number of bfgs steps    =   2

     energy   old            =     -23.7772277820 Ry
     energy   new            =     -23.7773954684 Ry

     CASE: energy  _new < energy  _old

     new trust radius        =       0.0126098864 bohr
     new conv_thr            =       0.0000000017 Ry


ATOMIC_POSITIONS (angstrom)
N            10.0000000000       10.0000000000        0.0000000000    0   0   0
H            10.0000006266       10.9511913746       -0.3620436005
H            10.8237546446        9.5244075488       -0.3620503842
H             9.1762460937        9.5244075188       -0.3620521298



     Writing output data file ./NH3_ESM_p25.save/
     NEW-OLD atomic charge density approx. for the potential

     negative rho (up, down):  2.029E-04 2.029E-04
     Generating pointlists ...

     total cpu time spent up to now is      631.6 secs

     Self-consistent Calculation

     iteration #  1     ecut=    60.00 Ry     beta= 0.70
     CG style diagonalization
     ethr =  1.00E-06,  avg # of iterations =  2.6

     negative rho (up, down):  2.026E-04 2.026E-04

     total cpu time spent up to now is      648.9 secs

     total energy              =     -23.77761927 Ry
     estimated scf accuracy    <       0.00000963 Ry

     total magnetization       =     0.00 Bohr mag/cell
     absolute magnetization    =     0.00 Bohr mag/cell

     iteration #  2     ecut=    60.00 Ry     beta= 0.70
     CG style diagonalization
     ethr =  1.20E-07,  avg # of iterations =  3.9

     negative rho (up, down):  2.027E-04 2.027E-04

     total cpu time spent up to now is      668.4 secs

     total energy              =     -23.77762568 Ry
     estimated scf accuracy    <       0.00000071 Ry

     total magnetization       =     0.00 Bohr mag/cell
     absolute magnetization    =     0.00 Bohr mag/cell

     iteration #  3     ecut=    60.00 Ry     beta= 0.70
     CG style diagonalization
     ethr =  8.85E-09,  avg # of iterations =  3.5

     negative rho (up, down):  2.027E-04 2.027E-04

     total cpu time spent up to now is      687.2 secs

     total energy              =     -23.77762595 Ry
     estimated scf accuracy    <       0.00000018 Ry

     total magnetization       =    -0.00 Bohr mag/cell
     absolute magnetization    =     0.00 Bohr mag/cell

     iteration #  4     ecut=    60.00 Ry     beta= 0.70
     CG style diagonalization
     ethr =  2.28E-09,  avg # of iterations =  3.5

     negative rho (up, down):  2.027E-04 2.027E-04

     total cpu time spent up to now is      706.0 secs

     total energy              =     -23.77762601 Ry
     estimated scf accuracy    <          3.6E-09 Ry

     total magnetization       =    -0.00 Bohr mag/cell
     absolute magnetization    =     0.00 Bohr mag/cell

     iteration #  5     ecut=    60.00 Ry     beta= 0.70
     CG style diagonalization
     ethr =  4.47E-11,  avg # of iterations =  4.2

     negative rho (up, down):  2.028E-04 2.028E-04

     total cpu time spent up to now is      726.4 secs

     total energy              =     -23.77762603 Ry
     estimated scf accuracy    <          2.6E-09 Ry

     total magnetization       =     0.00 Bohr mag/cell
     absolute magnetization    =     0.00 Bohr mag/cell

     iteration #  6     ecut=    60.00 Ry     beta= 0.70
     CG style diagonalization
     ethr =  3.27E-11,  avg # of iterations =  3.1

     negative rho (up, down):  2.028E-04 2.028E-04

     Magnetic moment per site:
     atom:    1    charge:    1.3367    magn:    0.0000    constr:    0.0000
     atom:    2    charge:    0.4443    magn:   -0.0000    constr:    0.0000
     atom:    3    charge:    0.4440    magn:   -0.0000    constr:    0.0000
     atom:    4    charge:    0.4440    magn:   -0.0000    constr:    0.0000

     total cpu time spent up to now is      742.9 secs

     End of self-consistent calculation

 ------ SPIN UP ------------


          k = 0.0000 0.0000 0.0000 (423701 PWs)   bands (ev):

   -16.9859  -7.2109  -7.2109  -2.0331   1.5773   1.9531   1.9533   1.9561

          k = 0.0000 0.2500 0.0000 (423725 PWs)   bands (ev):

   -16.9859  -7.2109  -7.2109  -2.0331   1.6008   1.7889   1.9777   1.9782

          k = 0.0000-0.5000 0.0000 (423542 PWs)   bands (ev):

   -16.9859  -7.2109  -7.2109  -2.0331   1.6692   1.6737   2.0491   2.0495

          k = 0.2500 0.0000 0.0000 (423725 PWs)   bands (ev):

   -16.9859  -7.2109  -7.2109  -2.0331   1.6008   1.7888   1.9783   1.9785

          k = 0.2500 0.2500 0.0000 (423766 PWs)   bands (ev):

   -16.9859  -7.2109  -7.2109  -2.0331   1.6244   1.8114   1.8136   2.0014

          k = 0.2500-0.5000 0.0000 (423782 PWs)   bands (ev):

   -16.9859  -7.2109  -7.2109  -2.0331   1.6924   1.6972   1.8805   1.8854

          k = 0.2500-0.2500 0.0000 (423766 PWs)   bands (ev):

   -16.9859  -7.2109  -7.2109  -2.0331   1.6243   1.8113   1.8138   2.0013

          k =-0.5000 0.0000 0.0000 (423542 PWs)   bands (ev):

   -16.9859  -7.2109  -7.2109  -2.0331   1.6694   1.6737   2.0473   2.0495

          k =-0.5000 0.2500 0.0000 (423782 PWs)   bands (ev):

   -16.9859  -7.2109  -7.2109  -2.0331   1.6926   1.6971   1.8807   1.8853

          k =-0.5000-0.5000 0.0000 (423708 PWs)   bands (ev):

   -16.9859  -7.2109  -7.2109  -2.0331   1.7618   1.7640   1.7642   1.7712

 ------ SPIN DOWN ----------


          k = 0.0000 0.0000 0.0000 (423701 PWs)   bands (ev):

   -16.9859  -7.2109  -7.2109  -2.0331   1.5773   1.9530   1.9532   1.9559

          k = 0.0000 0.2500 0.0000 (423725 PWs)   bands (ev):

   -16.9859  -7.2109  -7.2109  -2.0331   1.6008   1.7891   1.9772   1.9775

          k = 0.0000-0.5000 0.0000 (423542 PWs)   bands (ev):

   -16.9859  -7.2109  -7.2109  -2.0331   1.6690   1.6741   2.0457   2.0493

          k = 0.2500 0.0000 0.0000 (423725 PWs)   bands (ev):

   -16.9859  -7.2109  -7.2109  -2.0331   1.6008   1.7890   1.9776   1.9783

          k = 0.2500 0.2500 0.0000 (423766 PWs)   bands (ev):

   -16.9859  -7.2109  -7.2109  -2.0331   1.6243   1.8112   1.8137   2.0007

          k = 0.2500-0.5000 0.0000 (423782 PWs)   bands (ev):

   -16.9859  -7.2109  -7.2109  -2.0331   1.6925   1.6972   1.8806   1.8853

          k = 0.2500-0.2500 0.0000 (423766 PWs)   bands (ev):

   -16.9859  -7.2109  -7.2109  -2.0331   1.6243   1.8112   1.8138   2.0005

          k =-0.5000 0.0000 0.0000 (423542 PWs)   bands (ev):

   -16.9859  -7.2109  -7.2109  -2.0331   1.6691   1.6740   2.0473   2.0495

          k =-0.5000 0.2500 0.0000 (423782 PWs)   bands (ev):

   -16.9859  -7.2109  -7.2109  -2.0331   1.6925   1.6971   1.8806   1.8853

          k =-0.5000-0.5000 0.0000 (423708 PWs)   bands (ev):

   -16.9859  -7.2109  -7.2109  -2.0331   1.7619   1.7640   1.7642   1.7713

     the Fermi energy is    -0.1258 ev

!    total energy              =     -23.77762603 Ry
     estimated scf accuracy    <          8.4E-11 Ry
     smearing contrib. (-TS)   =       0.00000000 Ry
     internal energy E=F+TS    =     -23.77762603 Ry

     The total energy is F=E-TS. E is the sum of the following terms:
     one-electron contribution =     -64.51875297 Ry
     hartree contribution      =      34.52775488 Ry
     xc contribution           =      -7.58974905 Ry
     ewald contribution        =      13.80346451 Ry
     Dispersion Correction     =      -0.00034340 Ry

     total magnetization       =     0.00 Bohr mag/cell
     absolute magnetization    =     0.00 Bohr mag/cell

     convergence has been achieved in   6 iterations

     negative rho (up, down):  2.028E-04 2.028E-04

     Forces acting on atoms (cartesian axes, Ry/au):

     atom    1 type  1   force =    -0.00000001   -0.00000010    0.01758603
     atom    2 type  2   force =    -0.00000005   -0.00054697   -0.00585905
     atom    3 type  2   force =    -0.00047377    0.00027349   -0.00585930
     atom    4 type  2   force =     0.00047383    0.00027358   -0.00585930

     Total force =     0.010193     Total SCF correction =     0.000001
     Energy error            =      2.3E-04
     Gradient error          =      5.9E-03

     number of scf cycles    =   4
     number of bfgs steps    =   3

     energy   old            =     -23.7773954684 Ry
     energy   new            =     -23.7776260272 Ry

     CASE: energy  _new < energy  _old

     new trust radius        =       0.0189148296 bohr
     new conv_thr            =       0.0000000015 Ry


ATOMIC_POSITIONS (angstrom)
N            10.0000000000       10.0000000000        0.0000000000    0   0   0
H            10.0000005223       10.9482731833       -0.3716175562
H            10.8212271150        9.5258666076       -0.3716247300
H             9.1787735856        9.5258666969       -0.3716265021



     Writing output data file ./NH3_ESM_p25.save/
     NEW-OLD atomic charge density approx. for the potential

     negative rho (up, down):  2.027E-04 2.027E-04
     Generating pointlists ...

     total cpu time spent up to now is      765.6 secs

     Self-consistent Calculation

     iteration #  1     ecut=    60.00 Ry     beta= 0.70
     CG style diagonalization
     ethr =  1.00E-06,  avg # of iterations =  3.2

     negative rho (up, down):  2.022E-04 2.022E-04

     total cpu time spent up to now is      784.1 secs

     total energy              =     -23.77791216 Ry
     estimated scf accuracy    <       0.00002309 Ry

     total magnetization       =     0.00 Bohr mag/cell
     absolute magnetization    =     0.00 Bohr mag/cell

     iteration #  2     ecut=    60.00 Ry     beta= 0.70
     CG style diagonalization
     ethr =  2.89E-07,  avg # of iterations =  3.5

     negative rho (up, down):  2.025E-04 2.025E-04

     total cpu time spent up to now is      802.9 secs

     total energy              =     -23.77792018 Ry
     estimated scf accuracy    <       0.00000306 Ry

     total magnetization       =    -0.00 Bohr mag/cell
     absolute magnetization    =     0.00 Bohr mag/cell

     iteration #  3     ecut=    60.00 Ry     beta= 0.70
     CG style diagonalization
     ethr =  3.82E-08,  avg # of iterations =  3.5

     negative rho (up, down):  2.024E-04 2.024E-04

     total cpu time spent up to now is      821.7 secs

     total energy              =     -23.77792125 Ry
     estimated scf accuracy    <       0.00000093 Ry

     total magnetization       =     0.00 Bohr mag/cell
     absolute magnetization    =     0.00 Bohr mag/cell

     iteration #  4     ecut=    60.00 Ry     beta= 0.70
     CG style diagonalization
     ethr =  1.16E-08,  avg # of iterations =  3.4

     negative rho (up, down):  2.025E-04 2.025E-04

     total cpu time spent up to now is      840.3 secs

     total energy              =     -23.77792143 Ry
     estimated scf accuracy    <       0.00000001 Ry

     total magnetization       =     0.00 Bohr mag/cell
     absolute magnetization    =     0.00 Bohr mag/cell

     iteration #  5     ecut=    60.00 Ry     beta= 0.70
     CG style diagonalization
     ethr =  1.75E-10,  avg # of iterations =  4.1

     negative rho (up, down):  2.025E-04 2.025E-04

     total cpu time spent up to now is      860.5 secs

     total energy              =     -23.77792147 Ry
     estimated scf accuracy    <          3.8E-09 Ry

     total magnetization       =     0.00 Bohr mag/cell
     absolute magnetization    =     0.00 Bohr mag/cell

     iteration #  6     ecut=    60.00 Ry     beta= 0.70
     CG style diagonalization
     ethr =  4.77E-11,  avg # of iterations =  3.1

     negative rho (up, down):  2.025E-04 2.025E-04

     Magnetic moment per site:
     atom:    1    charge:    1.3360    magn:    0.0000    constr:    0.0000
     atom:    2    charge:    0.4441    magn:   -0.0000    constr:    0.0000
     atom:    3    charge:    0.4437    magn:   -0.0000    constr:    0.0000
     atom:    4    charge:    0.4437    magn:   -0.0000    constr:    0.0000

     total cpu time spent up to now is      876.9 secs

     End of self-consistent calculation

 ------ SPIN UP ------------


          k = 0.0000 0.0000 0.0000 (423701 PWs)   bands (ev):

   -17.0021  -7.1835  -7.1835  -2.0699   1.5777   1.9534   1.9536   1.9566

          k = 0.0000 0.2500 0.0000 (423725 PWs)   bands (ev):

   -17.0021  -7.1835  -7.1835  -2.0699   1.6012   1.7893   1.9779   1.9785

          k = 0.0000-0.5000 0.0000 (423542 PWs)   bands (ev):

   -17.0021  -7.1835  -7.1835  -2.0699   1.6695   1.6742   2.0496   2.0500

          k = 0.2500 0.0000 0.0000 (423725 PWs)   bands (ev):

   -17.0021  -7.1835  -7.1835  -2.0699   1.6012   1.7892   1.9785   1.9786

          k = 0.2500 0.2500 0.0000 (423766 PWs)   bands (ev):

   -17.0021  -7.1835  -7.1835  -2.0699   1.6247   1.8117   1.8141   2.0017

          k = 0.2500-0.5000 0.0000 (423782 PWs)   bands (ev):

   -17.0021  -7.1835  -7.1835  -2.0699   1.6928   1.6977   1.8808   1.8859

          k = 0.2500-0.2500 0.0000 (423766 PWs)   bands (ev):

   -17.0021  -7.1835  -7.1835  -2.0699   1.6247   1.8116   1.8142   2.0016

          k =-0.5000 0.0000 0.0000 (423542 PWs)   bands (ev):

   -17.0021  -7.1835  -7.1835  -2.0699   1.6696   1.6742   2.0477   2.0500

          k =-0.5000 0.2500 0.0000 (423782 PWs)   bands (ev):

   -17.0021  -7.1835  -7.1835  -2.0699   1.6929   1.6976   1.8809   1.8858

          k =-0.5000-0.5000 0.0000 (423708 PWs)   bands (ev):

   -17.0021  -7.1835  -7.1835  -2.0699   1.7621   1.7644   1.7645   1.7719

 ------ SPIN DOWN ----------


          k = 0.0000 0.0000 0.0000 (423701 PWs)   bands (ev):

   -17.0021  -7.1835  -7.1835  -2.0699   1.5777   1.9534   1.9536   1.9564

          k = 0.0000 0.2500 0.0000 (423725 PWs)   bands (ev):

   -17.0021  -7.1835  -7.1835  -2.0699   1.6012   1.7894   1.9776   1.9779

          k = 0.0000-0.5000 0.0000 (423542 PWs)   bands (ev):

   -17.0021  -7.1835  -7.1835  -2.0699   1.6693   1.6745   2.0459   2.0498

          k = 0.2500 0.0000 0.0000 (423725 PWs)   bands (ev):

   -17.0021  -7.1835  -7.1835  -2.0699   1.6012   1.7894   1.9779   1.9785

          k = 0.2500 0.2500 0.0000 (423766 PWs)   bands (ev):

   -17.0021  -7.1835  -7.1835  -2.0699   1.6247   1.8116   1.8141   2.0011

          k = 0.2500-0.5000 0.0000 (423782 PWs)   bands (ev):

   -17.0021  -7.1835  -7.1835  -2.0699   1.6928   1.6977   1.8808   1.8858

          k = 0.2500-0.2500 0.0000 (423766 PWs)   bands (ev):

   -17.0021  -7.1835  -7.1835  -2.0699   1.6247   1.8115   1.8142   2.0009

          k =-0.5000 0.0000 0.0000 (423542 PWs)   bands (ev):

   -17.0021  -7.1835  -7.1835  -2.0699   1.6694   1.6744   2.0477   2.0499

          k =-0.5000 0.2500 0.0000 (423782 PWs)   bands (ev):

   -17.0021  -7.1835  -7.1835  -2.0699   1.6928   1.6976   1.8809   1.8858

          k =-0.5000-0.5000 0.0000 (423708 PWs)   bands (ev):

   -17.0021  -7.1835  -7.1835  -2.0699   1.7621   1.7644   1.7645   1.7719

     the Fermi energy is    -0.1274 ev

!    total energy              =     -23.77792148 Ry
     estimated scf accuracy    <          1.3E-09 Ry
     smearing contrib. (-TS)   =       0.00000000 Ry
     internal energy E=F+TS    =     -23.77792148 Ry

     The total energy is F=E-TS. E is the sum of the following terms:
     one-electron contribution =     -64.50824258 Ry
     hartree contribution      =      34.52200804 Ry
     xc contribution           =      -7.58858654 Ry
     ewald contribution        =      13.79723284 Ry
     Dispersion Correction     =      -0.00033323 Ry

     total magnetization       =    -0.00 Bohr mag/cell
     absolute magnetization    =     0.00 Bohr mag/cell

     convergence has been achieved in   6 iterations

     negative rho (up, down):  2.025E-04 2.025E-04

     Forces acting on atoms (cartesian axes, Ry/au):

     atom    1 type  1   force =    -0.00000005   -0.00000027    0.01439915
     atom    2 type  2   force =    -0.00000001   -0.00015157   -0.00480032
     atom    3 type  2   force =    -0.00013127    0.00007590   -0.00480049
     atom    4 type  2   force =     0.00013133    0.00007594   -0.00480047

     Total force =     0.008319     Total SCF correction =     0.000018
     Energy error            =      3.0E-04
     Gradient error          =      4.8E-03

     number of scf cycles    =   5
     number of bfgs steps    =   4

     energy   old            =     -23.7776260272 Ry
     energy   new            =     -23.7779214784 Ry

     CASE: energy  _new < energy  _old

     new trust radius        =       0.0283722443 bohr
     new conv_thr            =       0.0000000012 Ry


ATOMIC_POSITIONS (angstrom)
N            10.0000000000       10.0000000000        0.0000000000    0   0   0
H            10.0000003933       10.9440845824       -0.3860347054
H            10.8175992698        9.5279609607       -0.3860424302
H             9.1824013819        9.5279612027       -0.3860442234



     Writing output data file ./NH3_ESM_p25.save/
     NEW-OLD atomic charge density approx. for the potential

     negative rho (up, down):  2.023E-04 2.023E-04
     Generating pointlists ...

     total cpu time spent up to now is      899.6 secs

     Self-consistent Calculation

     iteration #  1     ecut=    60.00 Ry     beta= 0.70
     CG style diagonalization
     ethr =  1.00E-06,  avg # of iterations =  3.5

     negative rho (up, down):  2.014E-04 2.014E-04

     total cpu time spent up to now is      918.6 secs

     total energy              =     -23.77821859 Ry
     estimated scf accuracy    <       0.00005504 Ry

     total magnetization       =     0.00 Bohr mag/cell
     absolute magnetization    =     0.00 Bohr mag/cell

     iteration #  2     ecut=    60.00 Ry     beta= 0.70
     CG style diagonalization
     ethr =  6.88E-07,  avg # of iterations =  3.5

     negative rho (up, down):  2.020E-04 2.020E-04

     total cpu time spent up to now is      937.4 secs

     total energy              =     -23.77823655 Ry
     estimated scf accuracy    <       0.00000888 Ry

     total magnetization       =    -0.00 Bohr mag/cell
     absolute magnetization    =     0.00 Bohr mag/cell

     iteration #  3     ecut=    60.00 Ry     beta= 0.70
     CG style diagonalization
     ethr =  1.11E-07,  avg # of iterations =  3.5

     negative rho (up, down):  2.019E-04 2.019E-04

     total cpu time spent up to now is      956.3 secs

     total energy              =     -23.77823991 Ry
     estimated scf accuracy    <       0.00000219 Ry

     total magnetization       =    -0.00 Bohr mag/cell
     absolute magnetization    =     0.00 Bohr mag/cell

     iteration #  4     ecut=    60.00 Ry     beta= 0.70
     CG style diagonalization
     ethr =  2.73E-08,  avg # of iterations =  3.5

     negative rho (up, down):  2.020E-04 2.020E-04

     total cpu time spent up to now is      975.1 secs

     total energy              =     -23.77824049 Ry
     estimated scf accuracy    <       0.00000003 Ry

     total magnetization       =    -0.00 Bohr mag/cell
     absolute magnetization    =     0.00 Bohr mag/cell

     iteration #  5     ecut=    60.00 Ry     beta= 0.70
     CG style diagonalization
     ethr =  3.40E-10,  avg # of iterations =  4.0

     negative rho (up, down):  2.020E-04 2.020E-04

     total cpu time spent up to now is      995.1 secs

     total energy              =     -23.77824058 Ry
     estimated scf accuracy    <          4.6E-09 Ry

     total magnetization       =    -0.00 Bohr mag/cell
     absolute magnetization    =     0.00 Bohr mag/cell

     iteration #  6     ecut=    60.00 Ry     beta= 0.70
     CG style diagonalization
     ethr =  5.71E-11,  avg # of iterations =  3.5

     negative rho (up, down):  2.020E-04 2.020E-04

     total cpu time spent up to now is     1014.2 secs

     total energy              =     -23.77824058 Ry
     estimated scf accuracy    <          2.1E-09 Ry

     total magnetization       =     0.00 Bohr mag/cell
     absolute magnetization    =     0.00 Bohr mag/cell

     iteration #  7     ecut=    60.00 Ry     beta= 0.70
     CG style diagonalization
     ethr =  2.63E-11,  avg # of iterations =  3.5

     negative rho (up, down):  2.020E-04 2.020E-04

     Magnetic moment per site:
     atom:    1    charge:    1.3347    magn:    0.0000    constr:    0.0000
     atom:    2    charge:    0.4432    magn:   -0.0000    constr:    0.0000
     atom:    3    charge:    0.4432    magn:   -0.0000    constr:    0.0000
     atom:    4    charge:    0.4432    magn:   -0.0000    constr:    0.0000

     total cpu time spent up to now is     1031.4 secs

     End of self-consistent calculation

 ------ SPIN UP ------------


          k = 0.0000 0.0000 0.0000 (423701 PWs)   bands (ev):

   -17.0225  -7.1383  -7.1383  -2.1257   1.5783   1.9539   1.9542   1.9574

          k = 0.0000 0.2500 0.0000 (423725 PWs)   bands (ev):

   -17.0225  -7.1383  -7.1383  -2.1257   1.6018   1.7899   1.9784   1.9790

          k = 0.0000-0.5000 0.0000 (423542 PWs)   bands (ev):

   -17.0225  -7.1383  -7.1383  -2.1257   1.6699   1.6750   2.0502   2.0508

          k = 0.2500 0.0000 0.0000 (423725 PWs)   bands (ev):

   -17.0225  -7.1383  -7.1383  -2.1257   1.6018   1.7899   1.9788   1.9790

          k = 0.2500 0.2500 0.0000 (423766 PWs)   bands (ev):

   -17.0225  -7.1383  -7.1383  -2.1257   1.6253   1.8122   1.8148   2.0021

          k = 0.2500-0.5000 0.0000 (423782 PWs)   bands (ev):

   -17.0225  -7.1383  -7.1383  -2.1257   1.6932   1.6984   1.8813   1.8866

          k = 0.2500-0.2500 0.0000 (423766 PWs)   bands (ev):

   -17.0225  -7.1383  -7.1383  -2.1257   1.6253   1.8121   1.8148   2.0021

          k =-0.5000 0.0000 0.0000 (423542 PWs)   bands (ev):

   -17.0225  -7.1383  -7.1383  -2.1257   1.6700   1.6749   2.0483   2.0507

          k =-0.5000 0.2500 0.0000 (423782 PWs)   bands (ev):

   -17.0225  -7.1383  -7.1383  -2.1257   1.6933   1.6984   1.8814   1.8865

          k =-0.5000-0.5000 0.0000 (423708 PWs)   bands (ev):

   -17.0225  -7.1383  -7.1383  -2.1257   1.7625   1.7650   1.7651   1.7729

 ------ SPIN DOWN ----------


          k = 0.0000 0.0000 0.0000 (423701 PWs)   bands (ev):

   -17.0225  -7.1383  -7.1383  -2.1257   1.5783   1.9540   1.9541   1.9572

          k = 0.0000 0.2500 0.0000 (423725 PWs)   bands (ev):

   -17.0225  -7.1383  -7.1383  -2.1257   1.6018   1.7900   1.9781   1.9785

          k = 0.0000-0.5000 0.0000 (423542 PWs)   bands (ev):

   -17.0225  -7.1383  -7.1383  -2.1257   1.6697   1.6752   2.0464   2.0505

          k = 0.2500 0.0000 0.0000 (423725 PWs)   bands (ev):

   -17.0225  -7.1383  -7.1383  -2.1257   1.6018   1.7900   1.9784   1.9790

          k = 0.2500 0.2500 0.0000 (423766 PWs)   bands (ev):

   -17.0225  -7.1383  -7.1383  -2.1257   1.6253   1.8121   1.8148   2.0017

          k = 0.2500-0.5000 0.0000 (423782 PWs)   bands (ev):

   -17.0225  -7.1383  -7.1383  -2.1257   1.6932   1.6984   1.8813   1.8866

          k = 0.2500-0.2500 0.0000 (423766 PWs)   bands (ev):

   -17.0225  -7.1383  -7.1383  -2.1257   1.6253   1.8121   1.8149   2.0015

          k =-0.5000 0.0000 0.0000 (423542 PWs)   bands (ev):

   -17.0225  -7.1383  -7.1383  -2.1257   1.6698   1.6751   2.0483   2.0506

          k =-0.5000 0.2500 0.0000 (423782 PWs)   bands (ev):

   -17.0225  -7.1383  -7.1383  -2.1257   1.6933   1.6984   1.8813   1.8866

          k =-0.5000-0.5000 0.0000 (423708 PWs)   bands (ev):

   -17.0225  -7.1383  -7.1383  -2.1257   1.7625   1.7650   1.7651   1.7729

     the Fermi energy is    -0.1293 ev

!    total energy              =     -23.77824058 Ry
     estimated scf accuracy    <          2.8E-10 Ry
     smearing contrib. (-TS)   =       0.00000000 Ry
     internal energy E=F+TS    =     -23.77824058 Ry

     The total energy is F=E-TS. E is the sum of the following terms:
     one-electron contribution =     -64.48182912 Ry
     hartree contribution      =      34.50795135 Ry
     xc contribution           =      -7.58584241 Ry
     ewald contribution        =      13.78179879 Ry
     Dispersion Correction     =      -0.00031919 Ry

     total magnetization       =     0.00 Bohr mag/cell
     absolute magnetization    =     0.00 Bohr mag/cell

     convergence has been achieved in   7 iterations

     negative rho (up, down):  2.020E-04 2.020E-04

     Forces acting on atoms (cartesian axes, Ry/au):

     atom    1 type  1   force =    -0.00000010   -0.00000048    0.00878445
     atom    2 type  2   force =     0.00000004   -0.00000939   -0.00292926
     atom    3 type  2   force =    -0.00000797    0.00000494   -0.00292942
     atom    4 type  2   force =     0.00000803    0.00000493   -0.00292937

     Total force =     0.005074     Total SCF correction =     0.000008
     Energy error            =      3.2E-04
     Gradient error          =      2.9E-03

     number of scf cycles    =   6
     number of bfgs steps    =   5

     energy   old            =     -23.7779214784 Ry
     energy   new            =     -23.7782405787 Ry

     CASE: energy  _new < energy  _old

     new trust radius        =       0.0425583665 bohr
     new conv_thr            =       0.0000000008 Ry


ATOMIC_POSITIONS (angstrom)
N            10.0000000000       10.0000000000        0.0000000000    0   0   0
H            10.0000002557       10.9378734539       -0.4076811459
H            10.8122198768        9.5310668351       -0.4076897697
H             9.1877807314        9.5310672595       -0.4076915499



     Writing output data file ./NH3_ESM_p25.save/
     NEW-OLD atomic charge density approx. for the potential

     negative rho (up, down):  2.015E-04 2.015E-04
     Generating pointlists ...

     total cpu time spent up to now is     1054.4 secs

     Self-consistent Calculation

     iteration #  1     ecut=    60.00 Ry     beta= 0.70
     CG style diagonalization
     ethr =  1.00E-06,  avg # of iterations =  4.1

     negative rho (up, down):  2.004E-04 2.004E-04

     total cpu time spent up to now is     1074.7 secs

     total energy              =     -23.77837718 Ry
     estimated scf accuracy    <       0.00013673 Ry

     total magnetization       =    -0.00 Bohr mag/cell
     absolute magnetization    =     0.00 Bohr mag/cell

     iteration #  2     ecut=    60.00 Ry     beta= 0.70
     CG style diagonalization
     ethr =  1.71E-06,  avg # of iterations =  3.5

     negative rho (up, down):  2.015E-04 2.015E-04

     total cpu time spent up to now is     1093.4 secs

     total energy              =     -23.77838664 Ry
     estimated scf accuracy    <       0.00004882 Ry

     total magnetization       =    -0.00 Bohr mag/cell
     absolute magnetization    =     0.00 Bohr mag/cell

     iteration #  3     ecut=    60.00 Ry     beta= 0.70
     CG style diagonalization
     ethr =  6.10E-07,  avg # of iterations =  3.5

     negative rho (up, down):  2.012E-04 2.012E-04

     total cpu time spent up to now is     1112.3 secs

     total energy              =     -23.77840722 Ry
     estimated scf accuracy    <       0.00000398 Ry

     total magnetization       =     0.00 Bohr mag/cell
     absolute magnetization    =     0.00 Bohr mag/cell

     iteration #  4     ecut=    60.00 Ry     beta= 0.70
     CG style diagonalization
     ethr =  4.97E-08,  avg # of iterations =  3.2

     negative rho (up, down):  2.012E-04 2.012E-04

     total cpu time spent up to now is     1130.6 secs

     total energy              =     -23.77840766 Ry
     estimated scf accuracy    <       0.00000024 Ry

     total magnetization       =     0.00 Bohr mag/cell
     absolute magnetization    =     0.00 Bohr mag/cell

     iteration #  5     ecut=    60.00 Ry     beta= 0.70
     CG style diagonalization
     ethr =  3.05E-09,  avg # of iterations =  3.5

     negative rho (up, down):  2.012E-04 2.012E-04

     total cpu time spent up to now is     1149.5 secs

     total energy              =     -23.77840772 Ry
     estimated scf accuracy    <       0.00000004 Ry

     total magnetization       =     0.00 Bohr mag/cell
     absolute magnetization    =     0.00 Bohr mag/cell

     iteration #  6     ecut=    60.00 Ry     beta= 0.70
     CG style diagonalization
     ethr =  5.07E-10,  avg # of iterations =  3.8

     negative rho (up, down):  2.012E-04 2.012E-04

     total cpu time spent up to now is     1169.0 secs

     total energy              =     -23.77840775 Ry
     estimated scf accuracy    <          9.9E-09 Ry

     total magnetization       =     0.00 Bohr mag/cell
     absolute magnetization    =     0.00 Bohr mag/cell

     iteration #  7     ecut=    60.00 Ry     beta= 0.70
     CG style diagonalization
     ethr =  1.24E-10,  avg # of iterations =  4.6

     negative rho (up, down):  2.012E-04 2.012E-04

     total cpu time spent up to now is     1190.4 secs

     total energy              =     -23.77840776 Ry
     estimated scf accuracy    <       0.00000008 Ry

     total magnetization       =     0.00 Bohr mag/cell
     absolute magnetization    =     0.00 Bohr mag/cell

     iteration #  8     ecut=    60.00 Ry     beta= 0.70
     CG style diagonalization
     ethr =  1.24E-10,  avg # of iterations =  3.1

     negative rho (up, down):  2.012E-04 2.012E-04

     total cpu time spent up to now is     1208.9 secs

     total energy              =     -23.77840774 Ry
     estimated scf accuracy    <       0.00000005 Ry

     total magnetization       =    -0.00 Bohr mag/cell
     absolute magnetization    =     0.00 Bohr mag/cell

     iteration #  9     ecut=    60.00 Ry     beta= 0.70
     CG style diagonalization
     ethr =  1.24E-10,  avg # of iterations =  3.5

     negative rho (up, down):  2.012E-04 2.012E-04

     total cpu time spent up to now is     1228.3 secs

     total energy              =     -23.77840775 Ry
     estimated scf accuracy    <          7.1E-09 Ry

     total magnetization       =     0.00 Bohr mag/cell
     absolute magnetization    =     0.00 Bohr mag/cell

     iteration # 10     ecut=    60.00 Ry     beta= 0.70
     CG style diagonalization
     ethr =  8.94E-11,  avg # of iterations =  3.4

     negative rho (up, down):  2.012E-04 2.012E-04

     total cpu time spent up to now is     1247.5 secs

     total energy              =     -23.77840775 Ry
     estimated scf accuracy    <          7.6E-09 Ry

     total magnetization       =    -0.00 Bohr mag/cell
     absolute magnetization    =     0.00 Bohr mag/cell

     iteration # 11     ecut=    60.00 Ry     beta= 0.70
     CG style diagonalization
     ethr =  8.94E-11,  avg # of iterations =  3.0

     negative rho (up, down):  2.012E-04 2.012E-04

     total cpu time spent up to now is     1266.1 secs

     total energy              =     -23.77840775 Ry
     estimated scf accuracy    <          7.9E-09 Ry

     total magnetization       =     0.00 Bohr mag/cell
     absolute magnetization    =     0.00 Bohr mag/cell

     iteration # 12     ecut=    60.00 Ry     beta= 0.70
     CG style diagonalization
     ethr =  8.94E-11,  avg # of iterations =  3.0

     negative rho (up, down):  2.012E-04 2.012E-04

     total cpu time spent up to now is     1284.7 secs

     total energy              =     -23.77840775 Ry
     estimated scf accuracy    <          5.5E-09 Ry

     total magnetization       =    -0.00 Bohr mag/cell
     absolute magnetization    =     0.00 Bohr mag/cell

     iteration # 13     ecut=    60.00 Ry     beta= 0.70
     CG style diagonalization
     ethr =  6.88E-11,  avg # of iterations =  3.0

     negative rho (up, down):  2.012E-04 2.012E-04

     total cpu time spent up to now is     1303.3 secs

     total energy              =     -23.77840774 Ry
     estimated scf accuracy    <          5.3E-09 Ry

     total magnetization       =    -0.00 Bohr mag/cell
     absolute magnetization    =     0.00 Bohr mag/cell

     iteration # 14     ecut=    60.00 Ry     beta= 0.70
     CG style diagonalization
     ethr =  6.62E-11,  avg # of iterations =  3.4

     negative rho (up, down):  2.012E-04 2.012E-04

     Magnetic moment per site:
     atom:    1    charge:    1.3324    magn:   -0.0000    constr:    0.0000
     atom:    2    charge:    0.4417    magn:    0.0000    constr:    0.0000
     atom:    3    charge:    0.4418    magn:    0.0000    constr:    0.0000
     atom:    4    charge:    0.4418    magn:    0.0000    constr:    0.0000

     total cpu time spent up to now is     1320.3 secs

     End of self-consistent calculation

 ------ SPIN UP ------------


          k = 0.0000 0.0000 0.0000 (423701 PWs)   bands (ev):

   -17.0504  -7.0658  -7.0658  -2.2133   1.5792   1.9547   1.9549   1.9586

          k = 0.0000 0.2500 0.0000 (423725 PWs)   bands (ev):

   -17.0504  -7.0658  -7.0658  -2.2133   1.6027   1.7908   1.9789   1.9797

          k = 0.0000-0.5000 0.0000 (423542 PWs)   bands (ev):

   -17.0504  -7.0658  -7.0658  -2.2133   1.6705   1.6760   2.0512   2.0519

          k = 0.2500 0.0000 0.0000 (423725 PWs)   bands (ev):

   -17.0504  -7.0658  -7.0658  -2.2133   1.6027   1.7907   1.9792   1.9797

          k = 0.2500 0.2500 0.0000 (423766 PWs)   bands (ev):

   -17.0504  -7.0658  -7.0658  -2.2133   1.6262   1.8128   1.8157   2.0028

          k = 0.2500-0.5000 0.0000 (423782 PWs)   bands (ev):

   -17.0504  -7.0658  -7.0658  -2.2133   1.6939   1.6995   1.8819   1.8877

          k = 0.2500-0.2500 0.0000 (423766 PWs)   bands (ev):

   -17.0504  -7.0658  -7.0658  -2.2133   1.6262   1.8128   1.8158   2.0028

          k =-0.5000 0.0000 0.0000 (423542 PWs)   bands (ev):

   -17.0504  -7.0658  -7.0658  -2.2133   1.6705   1.6760   2.0491   2.0517

          k =-0.5000 0.2500 0.0000 (423782 PWs)   bands (ev):

   -17.0504  -7.0658  -7.0658  -2.2133   1.6939   1.6994   1.8820   1.8876

          k =-0.5000-0.5000 0.0000 (423708 PWs)   bands (ev):

   -17.0504  -7.0658  -7.0658  -2.2133   1.7631   1.7657   1.7658   1.7743

 ------ SPIN DOWN ----------


          k = 0.0000 0.0000 0.0000 (423701 PWs)   bands (ev):

   -17.0504  -7.0658  -7.0658  -2.2133   1.5792   1.9548   1.9549   1.9584

          k = 0.0000 0.2500 0.0000 (423725 PWs)   bands (ev):

   -17.0504  -7.0658  -7.0658  -2.2133   1.6027   1.7908   1.9788   1.9793

          k = 0.0000-0.5000 0.0000 (423542 PWs)   bands (ev):

   -17.0504  -7.0658  -7.0658  -2.2133   1.6704   1.6761   2.0471   2.0515

          k = 0.2500 0.0000 0.0000 (423725 PWs)   bands (ev):

   -17.0504  -7.0658  -7.0658  -2.2133   1.6027   1.7908   1.9790   1.9797

          k = 0.2500 0.2500 0.0000 (423766 PWs)   bands (ev):

   -17.0504  -7.0658  -7.0658  -2.2133   1.6261   1.8128   1.8158   2.0025

          k = 0.2500-0.5000 0.0000 (423782 PWs)   bands (ev):

   -17.0504  -7.0658  -7.0658  -2.2133   1.6939   1.6995   1.8819   1.8877

          k = 0.2500-0.2500 0.0000 (423766 PWs)   bands (ev):

   -17.0504  -7.0658  -7.0658  -2.2133   1.6261   1.8128   1.8158   2.0024

          k =-0.5000 0.0000 0.0000 (423542 PWs)   bands (ev):

   -17.0504  -7.0658  -7.0658  -2.2133   1.6705   1.6761   2.0492   2.0516

          k =-0.5000 0.2500 0.0000 (423782 PWs)   bands (ev):

   -17.0504  -7.0658  -7.0658  -2.2133   1.6939   1.6994   1.8820   1.8877

          k =-0.5000-0.5000 0.0000 (423708 PWs)   bands (ev):

   -17.0504  -7.0658  -7.0658  -2.2133   1.7631   1.7657   1.7658   1.7744

     the Fermi energy is    -0.1318 ev

!    total energy              =     -23.77840774 Ry
     estimated scf accuracy    <          5.0E-10 Ry
     smearing contrib. (-TS)   =       0.00000000 Ry
     internal energy E=F+TS    =     -23.77840774 Ry

     The total energy is F=E-TS. E is the sum of the following terms:
     one-electron contribution =     -64.42969028 Ry
     hartree contribution      =      34.48072945 Ry
     xc contribution           =      -7.58055169 Ry
     ewald contribution        =      13.75140424 Ry
     Dispersion Correction     =      -0.00029947 Ry

     total magnetization       =     0.00 Bohr mag/cell
     absolute magnetization    =     0.00 Bohr mag/cell

     convergence has been achieved in  14 iterations

     negative rho (up, down):  2.012E-04 2.012E-04

     Forces acting on atoms (cartesian axes, Ry/au):

     atom    1 type  1   force =    -0.00000012   -0.00000035   -0.00103249
     atom    2 type  2   force =     0.00000009   -0.00021826    0.00034223
     atom    3 type  2   force =    -0.00018882    0.00010935    0.00034210
     atom    4 type  2   force =     0.00018886    0.00010927    0.00034217

     Total force =     0.000703     Total SCF correction =     0.000004
     Energy error            =      1.7E-04
     Gradient error          =      3.4E-04

     number of scf cycles    =   7
     number of bfgs steps    =   6

     energy   old            =     -23.7782405787 Ry
     energy   new            =     -23.7784077440 Ry

     CASE: energy  _new < energy  _old

     new trust radius        =       0.0036576380 bohr
     new conv_thr            =            1.0E-10 Ry


ATOMIC_POSITIONS (angstrom)
N            10.0000000000       10.0000000000        0.0000000000    0   0   0
H            10.0000003114       10.9383364553       -0.4058018606
H            10.8126209875        9.5308354234       -0.4058104786
H             9.1873796460        9.5308357935       -0.4058122245



     Writing output data file ./NH3_ESM_p25.save/
     NEW-OLD atomic charge density approx. for the potential

     negative rho (up, down):  2.012E-04 2.012E-04
     Generating pointlists ...

     total cpu time spent up to now is     1344.5 secs

     Self-consistent Calculation

     iteration #  1     ecut=    60.00 Ry     beta= 0.70
     CG style diagonalization
     ethr =  1.00E-06,  avg # of iterations =  2.4

     Threshold (ethr) on eigenvalues was too large:
     Diagonalizing with lowered threshold

     CG style diagonalization
     ethr =  1.28E-08,  avg # of iterations =  2.8

     negative rho (up, down):  2.013E-04 2.013E-04

     total cpu time spent up to now is     1369.2 secs

     total energy              =     -23.77840891 Ry
     estimated scf accuracy    <       0.00000112 Ry

     total magnetization       =     0.00 Bohr mag/cell
     absolute magnetization    =     0.00 Bohr mag/cell

     iteration #  2     ecut=    60.00 Ry     beta= 0.70
     CG style diagonalization
     ethr =  1.40E-08,  avg # of iterations =  3.5

     negative rho (up, down):  2.013E-04 2.013E-04

     total cpu time spent up to now is     1388.0 secs

     total energy              =     -23.77840905 Ry
     estimated scf accuracy    <       0.00000032 Ry

     total magnetization       =     0.00 Bohr mag/cell
     absolute magnetization    =     0.00 Bohr mag/cell

     iteration #  3     ecut=    60.00 Ry     beta= 0.70
     CG style diagonalization
     ethr =  3.95E-09,  avg # of iterations =  3.5

     negative rho (up, down):  2.013E-04 2.013E-04

     total cpu time spent up to now is     1406.7 secs

     total energy              =     -23.77840919 Ry
     estimated scf accuracy    <       0.00000003 Ry

     total magnetization       =    -0.00 Bohr mag/cell
     absolute magnetization    =     0.00 Bohr mag/cell

     iteration #  4     ecut=    60.00 Ry     beta= 0.70
     CG style diagonalization
     ethr =  3.37E-10,  avg # of iterations =  3.2

     negative rho (up, down):  2.013E-04 2.013E-04

     total cpu time spent up to now is     1425.1 secs

     total energy              =     -23.77840919 Ry
     estimated scf accuracy    <          5.1E-10 Ry

     total magnetization       =     0.00 Bohr mag/cell
     absolute magnetization    =     0.00 Bohr mag/cell

     iteration #  5     ecut=    60.00 Ry     beta= 0.70
     CG style diagonalization
     ethr =  6.41E-12,  avg # of iterations =  3.5

     negative rho (up, down):  2.013E-04 2.013E-04

     Magnetic moment per site:
     atom:    1    charge:    1.3327    magn:   -0.0000    constr:    0.0000
     atom:    2    charge:    0.4419    magn:   -0.0000    constr:    0.0000
     atom:    3    charge:    0.4420    magn:   -0.0000    constr:    0.0000
     atom:    4    charge:    0.4420    magn:   -0.0000    constr:    0.0000

     total cpu time spent up to now is     1442.3 secs

     End of self-consistent calculation

 ------ SPIN UP ------------


          k = 0.0000 0.0000 0.0000 (423701 PWs)   bands (ev):

   -17.0489  -7.0727  -7.0727  -2.2056   1.5791   1.9546   1.9549   1.9585

          k = 0.0000 0.2500 0.0000 (423725 PWs)   bands (ev):

   -17.0489  -7.0727  -7.0727  -2.2056   1.6026   1.7907   1.9788   1.9795

          k = 0.0000-0.5000 0.0000 (423542 PWs)   bands (ev):

   -17.0489  -7.0727  -7.0727  -2.2056   1.6704   1.6759   2.0511   2.0518

          k = 0.2500 0.0000 0.0000 (423725 PWs)   bands (ev):

   -17.0489  -7.0727  -7.0727  -2.2056   1.6026   1.7907   1.9790   1.9795

          k = 0.2500 0.2500 0.0000 (423766 PWs)   bands (ev):

   -17.0489  -7.0727  -7.0727  -2.2056   1.6261   1.8128   1.8156   2.0027

          k = 0.2500-0.5000 0.0000 (423782 PWs)   bands (ev):

   -17.0489  -7.0727  -7.0727  -2.2056   1.6938   1.6994   1.8819   1.8876

          k = 0.2500-0.2500 0.0000 (423766 PWs)   bands (ev):

   -17.0489  -7.0727  -7.0727  -2.2056   1.6261   1.8127   1.8157   2.0026

          k =-0.5000 0.0000 0.0000 (423542 PWs)   bands (ev):

   -17.0489  -7.0727  -7.0727  -2.2056   1.6704   1.6759   2.0490   2.0516

          k =-0.5000 0.2500 0.0000 (423782 PWs)   bands (ev):

   -17.0489  -7.0727  -7.0727  -2.2056   1.6939   1.6994   1.8819   1.8876

          k =-0.5000-0.5000 0.0000 (423708 PWs)   bands (ev):

   -17.0489  -7.0727  -7.0727  -2.2056   1.7630   1.7657   1.7658   1.7742

 ------ SPIN DOWN ----------


          k = 0.0000 0.0000 0.0000 (423701 PWs)   bands (ev):

   -17.0489  -7.0727  -7.0727  -2.2056   1.5791   1.9547   1.9548   1.9583

          k = 0.0000 0.2500 0.0000 (423725 PWs)   bands (ev):

   -17.0489  -7.0727  -7.0727  -2.2056   1.6026   1.7907   1.9786   1.9792

          k = 0.0000-0.5000 0.0000 (423542 PWs)   bands (ev):

   -17.0489  -7.0727  -7.0727  -2.2056   1.6703   1.6760   2.0470   2.0514

          k = 0.2500 0.0000 0.0000 (423725 PWs)   bands (ev):

   -17.0489  -7.0727  -7.0727  -2.2056   1.6026   1.7907   1.9788   1.9795

          k = 0.2500 0.2500 0.0000 (423766 PWs)   bands (ev):

   -17.0489  -7.0727  -7.0727  -2.2056   1.6261   1.8127   1.8157   2.0024

          k = 0.2500-0.5000 0.0000 (423782 PWs)   bands (ev):

   -17.0489  -7.0727  -7.0727  -2.2056   1.6938   1.6994   1.8819   1.8876

          k = 0.2500-0.2500 0.0000 (423766 PWs)   bands (ev):

   -17.0489  -7.0727  -7.0727  -2.2056   1.6261   1.8127   1.8157   2.0023

          k =-0.5000 0.0000 0.0000 (423542 PWs)   bands (ev):

   -17.0489  -7.0727  -7.0727  -2.2056   1.6704   1.6760   2.0491   2.0515

          k =-0.5000 0.2500 0.0000 (423782 PWs)   bands (ev):

   -17.0489  -7.0727  -7.0727  -2.2056   1.6939   1.6994   1.8819   1.8876

          k =-0.5000-0.5000 0.0000 (423708 PWs)   bands (ev):

   -17.0489  -7.0727  -7.0727  -2.2056   1.7630   1.7657   1.7658   1.7742

     the Fermi energy is    -0.1317 ev

!    total energy              =     -23.77840920 Ry
     estimated scf accuracy    <          4.8E-11 Ry
     smearing contrib. (-TS)   =       0.00000000 Ry
     internal energy E=F+TS    =     -23.77840920 Ry

     The total energy is F=E-TS. E is the sum of the following terms:
     one-electron contribution =     -64.43681121 Ry
     hartree contribution      =      34.48440608 Ry
     xc contribution           =      -7.58124568 Ry
     ewald contribution        =      13.75554250 Ry
     Dispersion Correction     =      -0.00030089 Ry

     total magnetization       =     0.00 Bohr mag/cell
     absolute magnetization    =     0.00 Bohr mag/cell

     convergence has been achieved in   5 iterations

     negative rho (up, down):  2.013E-04 2.013E-04

     Forces acting on atoms (cartesian axes, Ry/au):

     atom    1 type  1   force =    -0.00000009   -0.00000033   -0.00001621
     atom    2 type  2   force =     0.00000007   -0.00008093    0.00000790
     atom    3 type  2   force =    -0.00006999    0.00004066    0.00000779
     atom    4 type  2   force =     0.00007001    0.00004060    0.00000784

     Total force =     0.000141     Total SCF correction =     0.000000
     Energy error            =      1.5E-06
     Gradient error          =      8.1E-05

     number of scf cycles    =   8
     number of bfgs steps    =   7

     energy   old            =     -23.7784077440 Ry
     energy   new            =     -23.7784091955 Ry

     CASE: energy  _new < energy  _old

     new trust radius        =       0.0002029010 bohr
     new conv_thr            =            1.0E-10 Ry


ATOMIC_POSITIONS (angstrom)
N            10.0000000000       10.0000000000        0.0000000000    0   0   0
H            10.0000003453       10.9382799089       -0.4058930678
H            10.8125720673        9.5308637982       -0.4059017482
H             9.1874285774        9.5308641357       -0.4059034682



     Writing output data file ./NH3_ESM_p25.save/
     NEW-OLD atomic charge density approx. for the potential

     negative rho (up, down):  2.013E-04 2.013E-04
     Generating pointlists ...

     total cpu time spent up to now is     1464.7 secs

     Self-consistent Calculation

     iteration #  1     ecut=    60.00 Ry     beta= 0.70
     CG style diagonalization
     ethr =  1.00E-06,  avg # of iterations =  2.0

     Threshold (ethr) on eigenvalues was too large:
     Diagonalizing with lowered threshold

     CG style diagonalization
[...]

     total energy              =     -23.77840921 Ry
     estimated scf accuracy    <          1.8E-10 Ry

     total magnetization       =     0.00 Bohr mag/cell
     absolute magnetization    =     0.00 Bohr mag/cell

     iteration #  3     ecut=    60.00 Ry     beta= 0.70
     CG style diagonalization
     ethr =  2.27E-12,  avg # of iterations =  3.4

     negative rho (up, down):  2.013E-04 2.013E-04

     Magnetic moment per site:
     atom:    1    charge:    1.3327    magn:   -0.0000    constr:    0.0000
     atom:    2    charge:    0.4419    magn:   -0.0000    constr:    0.0000
     atom:    3    charge:    0.4420    magn:   -0.0000    constr:    0.0000
     atom:    4    charge:    0.4420    magn:   -0.0000    constr:    0.0000

     total cpu time spent up to now is     1524.0 secs

     End of self-consistent calculation

 ------ SPIN UP ------------


          k = 0.0000 0.0000 0.0000 (423701 PWs)   bands (ev):

   -17.0494  -7.0725  -7.0725  -2.2060   1.5791   1.9546   1.9548   1.9585

          k = 0.0000 0.2500 0.0000 (423725 PWs)   bands (ev):

   -17.0494  -7.0725  -7.0725  -2.2060   1.6026   1.7907   1.9787   1.9795

          k = 0.0000-0.5000 0.0000 (423542 PWs)   bands (ev):

   -17.0494  -7.0725  -7.0725  -2.2060   1.6704   1.6759   2.0511   2.0518

          k = 0.2500 0.0000 0.0000 (423725 PWs)   bands (ev):

   -17.0494  -7.0725  -7.0725  -2.2060   1.6026   1.7907   1.9789   1.9794

          k = 0.2500 0.2500 0.0000 (423766 PWs)   bands (ev):

   -17.0494  -7.0725  -7.0725  -2.2060   1.6261   1.8128   1.8156   2.0026

          k = 0.2500-0.5000 0.0000 (423782 PWs)   bands (ev):

   -17.0494  -7.0725  -7.0725  -2.2060   1.6938   1.6994   1.8819   1.8876

          k = 0.2500-0.2500 0.0000 (423766 PWs)   bands (ev):

   -17.0494  -7.0725  -7.0725  -2.2060   1.6261   1.8127   1.8157   2.0026

          k =-0.5000 0.0000 0.0000 (423542 PWs)   bands (ev):

   -17.0494  -7.0725  -7.0725  -2.2060   1.6704   1.6759   2.0490   2.0516

          k =-0.5000 0.2500 0.0000 (423782 PWs)   bands (ev):

   -17.0494  -7.0725  -7.0725  -2.2060   1.6939   1.6994   1.8819   1.8876

          k =-0.5000-0.5000 0.0000 (423708 PWs)   bands (ev):

   -17.0494  -7.0725  -7.0725  -2.2060   1.7630   1.7657   1.7658   1.7742

 ------ SPIN DOWN ----------


          k = 0.0000 0.0000 0.0000 (423701 PWs)   bands (ev):

   -17.0494  -7.0725  -7.0725  -2.2060   1.5791   1.9547   1.9548   1.9583

          k = 0.0000 0.2500 0.0000 (423725 PWs)   bands (ev):

   -17.0494  -7.0725  -7.0725  -2.2060   1.6026   1.7907   1.9786   1.9792

          k = 0.0000-0.5000 0.0000 (423542 PWs)   bands (ev):

   -17.0494  -7.0725  -7.0725  -2.2060   1.6703   1.6760   2.0470   2.0514

          k = 0.2500 0.0000 0.0000 (423725 PWs)   bands (ev):

   -17.0494  -7.0725  -7.0725  -2.2060   1.6026   1.7907   1.9788   1.9795

          k = 0.2500 0.2500 0.0000 (423766 PWs)   bands (ev):

   -17.0494  -7.0725  -7.0725  -2.2060   1.6261   1.8127   1.8157   2.0024

          k = 0.2500-0.5000 0.0000 (423782 PWs)   bands (ev):

   -17.0494  -7.0725  -7.0725  -2.2060   1.6938   1.6994   1.8819   1.8876

          k = 0.2500-0.2500 0.0000 (423766 PWs)   bands (ev):

   -17.0494  -7.0725  -7.0725  -2.2060   1.6261   1.8127   1.8157   2.0023

          k =-0.5000 0.0000 0.0000 (423542 PWs)   bands (ev):

   -17.0494  -7.0725  -7.0725  -2.2060   1.6704   1.6759   2.0491   2.0515

          k =-0.5000 0.2500 0.0000 (423782 PWs)   bands (ev):

   -17.0494  -7.0725  -7.0725  -2.2060   1.6939   1.6994   1.8819   1.8876

          k =-0.5000-0.5000 0.0000 (423708 PWs)   bands (ev):

   -17.0494  -7.0725  -7.0725  -2.2060   1.7630   1.7657   1.7658   1.7742

     the Fermi energy is    -0.1318 ev

!    total energy              =     -23.77840921 Ry
     estimated scf accuracy    <          2.1E-11 Ry
     smearing contrib. (-TS)   =       0.00000000 Ry
     internal energy E=F+TS    =     -23.77840921 Ry

     The total energy is F=E-TS. E is the sum of the following terms:
     one-electron contribution =     -64.43734253 Ry
     hartree contribution      =      34.48462675 Ry
     xc contribution           =      -7.58128084 Ry
     ewald contribution        =      13.75588813 Ry
     Dispersion Correction     =      -0.00030072 Ry

     total magnetization       =    -0.00 Bohr mag/cell
     absolute magnetization    =     0.00 Bohr mag/cell

     convergence has been achieved in   3 iterations

     negative rho (up, down):  2.013E-04 2.013E-04

     Forces acting on atoms (cartesian axes, Ry/au):

     atom    1 type  1   force =    -0.00000007   -0.00000032   -0.00002336
     atom    2 type  2   force =     0.00000006   -0.00003587    0.00000743
     atom    3 type  2   force =    -0.00003102    0.00001812    0.00000731
     atom    4 type  2   force =     0.00003104    0.00001807    0.00000735

     Total force =     0.000063     Total SCF correction =     0.000002
     Energy error            =      1.6E-08
     Gradient error          =      3.6E-05
Begin final coordinates

ATOMIC_POSITIONS (angstrom)
N            10.0000000000       10.0000000000        0.0000000000    0   0   0
H            10.0000003453       10.9382799089       -0.4058930678
H            10.8125720673        9.5308637982       -0.4059017482
H             9.1874285774        9.5308641357       -0.4059034682
End final coordinates



     Writing output data file ./NH3_ESM_p25.save/

     lsda relaxation :  a final configuration with zero
                        absolute magnetization has been found

     the program is checking if it is really the minimum energy structure
     by performing a new scf iteration without any "electronic" history

     Initial potential from superposition of free atoms

     starting charge    7.99996, renormalised to    8.00000

     negative rho (up, down):  9.705E-05 7.941E-05

     total cpu time spent up to now is     1543.9 secs

     Self-consistent Calculation

     iteration #  1     ecut=    60.00 Ry     beta= 0.70
     CG style diagonalization
     ethr =  1.00E-06,  avg # of iterations =  6.6

     negative rho (up, down):  2.100E-04 2.020E-04

     total cpu time spent up to now is     1569.1 secs

     total energy              =     -23.51047202 Ry
     estimated scf accuracy    <       0.68672002 Ry

     total magnetization       =    -0.00 Bohr mag/cell
     absolute magnetization    =     0.06 Bohr mag/cell

     iteration #  2     ecut=    60.00 Ry     beta= 0.70
     CG style diagonalization
     ethr =  8.58E-03,  avg # of iterations =  3.5

     negative rho (up, down):  1.625E-04 1.370E-04

     total cpu time spent up to now is     1588.0 secs

     total energy              =     -23.59607056 Ry
     estimated scf accuracy    <       0.41974254 Ry

     total magnetization       =    -0.00 Bohr mag/cell
     absolute magnetization    =     0.05 Bohr mag/cell

     iteration #  3     ecut=    60.00 Ry     beta= 0.70
     CG style diagonalization
     ethr =  5.25E-03,  avg # of iterations =  3.5

     negative rho (up, down):  2.360E-04 2.468E-04

     total cpu time spent up to now is     1606.8 secs

     total energy              =     -23.77355386 Ry
     estimated scf accuracy    <       0.00774523 Ry

     total magnetization       =     0.00 Bohr mag/cell
     absolute magnetization    =     0.03 Bohr mag/cell

     iteration #  4     ecut=    60.00 Ry     beta= 0.70
     CG style diagonalization
     ethr =  9.68E-05,  avg # of iterations =  3.7

     negative rho (up, down):  1.596E-04 1.415E-04

     total cpu time spent up to now is     1626.1 secs

     total energy              =     -23.77658964 Ry
     estimated scf accuracy    <       0.00385061 Ry

     total magnetization       =    -0.00 Bohr mag/cell
     absolute magnetization    =     0.01 Bohr mag/cell

     iteration #  5     ecut=    60.00 Ry     beta= 0.70
     CG style diagonalization
     ethr =  4.81E-05,  avg # of iterations =  3.4

     negative rho (up, down):  1.744E-04 1.563E-04

     total cpu time spent up to now is     1645.0 secs

     total energy              =     -23.77834996 Ry
     estimated scf accuracy    <       0.00014797 Ry

     total magnetization       =     0.00 Bohr mag/cell
     absolute magnetization    =     0.01 Bohr mag/cell

     iteration #  6     ecut=    60.00 Ry     beta= 0.70
     CG style diagonalization
     ethr =  1.85E-06,  avg # of iterations =  4.3

     negative rho (up, down):  2.017E-04 1.999E-04

     total cpu time spent up to now is     1665.8 secs

     total energy              =     -23.77840381 Ry
     estimated scf accuracy    <       0.00000442 Ry

     total magnetization       =    -0.00 Bohr mag/cell
     absolute magnetization    =     0.01 Bohr mag/cell

     iteration #  7     ecut=    60.00 Ry     beta= 0.70
     CG style diagonalization
     ethr =  5.52E-08,  avg # of iterations =  4.3

     negative rho (up, down):  2.071E-04 2.132E-04

     total cpu time spent up to now is     1686.7 secs

     total energy              =     -23.77840855 Ry
     estimated scf accuracy    <       0.00000177 Ry

     total magnetization       =     0.00 Bohr mag/cell
     absolute magnetization    =     0.00 Bohr mag/cell

     iteration #  8     ecut=    60.00 Ry     beta= 0.70
     CG style diagonalization
     ethr =  2.21E-08,  avg # of iterations =  3.5

     negative rho (up, down):  2.043E-04 2.076E-04

     total cpu time spent up to now is     1706.0 secs

     total energy              =     -23.77840906 Ry
     estimated scf accuracy    <       0.00000025 Ry

     total magnetization       =    -0.00 Bohr mag/cell
     absolute magnetization    =     0.00 Bohr mag/cell

     iteration #  9     ecut=    60.00 Ry     beta= 0.70
     CG style diagonalization
     ethr =  3.11E-09,  avg # of iterations =  3.6

     negative rho (up, down):  2.018E-04 2.022E-04

     total cpu time spent up to now is     1725.6 secs

     total energy              =     -23.77840920 Ry
     estimated scf accuracy    <       0.00000024 Ry

     total magnetization       =     0.00 Bohr mag/cell
     absolute magnetization    =     0.00 Bohr mag/cell

     iteration # 10     ecut=    60.00 Ry     beta= 0.70
     CG style diagonalization
     ethr =  2.97E-09,  avg # of iterations =  3.1

     negative rho (up, down):  2.018E-04 2.022E-04

     total cpu time spent up to now is     1744.5 secs

     total energy              =     -23.77840919 Ry
     estimated scf accuracy    <       0.00000005 Ry

     total magnetization       =     0.00 Bohr mag/cell
     absolute magnetization    =     0.00 Bohr mag/cell

     iteration # 11     ecut=    60.00 Ry     beta= 0.70
     CG style diagonalization
     ethr =  6.09E-10,  avg # of iterations =  3.7

     negative rho (up, down):  2.015E-04 2.017E-04

     total cpu time spent up to now is     1764.5 secs

     total energy              =     -23.77840921 Ry
     estimated scf accuracy    <          5.1E-09 Ry

     total magnetization       =    -0.00 Bohr mag/cell
     absolute magnetization    =     0.00 Bohr mag/cell

     iteration # 12     ecut=    60.00 Ry     beta= 0.70
     CG style diagonalization
     ethr =  6.36E-11,  avg # of iterations =  3.7

     negative rho (up, down):  2.014E-04 2.014E-04

     total cpu time spent up to now is     1784.6 secs

     total energy              =     -23.77840921 Ry
     estimated scf accuracy    <       0.00000001 Ry

     total magnetization       =    -0.00 Bohr mag/cell
     absolute magnetization    =     0.00 Bohr mag/cell

     iteration # 13     ecut=    60.00 Ry     beta= 0.70
     CG style diagonalization
     ethr =  6.36E-11,  avg # of iterations =  3.4

     negative rho (up, down):  2.013E-04 2.012E-04

     total cpu time spent up to now is     1804.0 secs

     total energy              =     -23.77840921 Ry
     estimated scf accuracy    <          1.6E-09 Ry

     total magnetization       =     0.00 Bohr mag/cell
     absolute magnetization    =     0.00 Bohr mag/cell

     iteration # 14     ecut=    60.00 Ry     beta= 0.70
     CG style diagonalization
     ethr =  1.97E-11,  avg # of iterations =  3.6

     negative rho (up, down):  2.013E-04 2.013E-04

     Magnetic moment per site:
     atom:    1    charge:    1.3327    magn:    0.0000    constr:    0.0000
     atom:    2    charge:    0.4419    magn:   -0.0000    constr:    0.0000
     atom:    3    charge:    0.4420    magn:   -0.0000    constr:    0.0000
     atom:    4    charge:    0.4420    magn:   -0.0000    constr:    0.0000

     total cpu time spent up to now is     1821.4 secs

     End of self-consistent calculation

 ------ SPIN UP ------------


          k = 0.0000 0.0000 0.0000 (423701 PWs)   bands (ev):

   -17.0494  -7.0725  -7.0725  -2.2061   1.5792   1.9549   1.9549   1.9587

          k = 0.0000 0.2500 0.0000 (423725 PWs)   bands (ev):

   -17.0494  -7.0725  -7.0725  -2.2061   1.6026   1.7908   1.9789   1.9794

          k = 0.0000-0.5000 0.0000 (423542 PWs)   bands (ev):

   -17.0494  -7.0725  -7.0725  -2.2061   1.6704   1.6760   2.0512   2.0520

          k = 0.2500 0.0000 0.0000 (423725 PWs)   bands (ev):

   -17.0494  -7.0725  -7.0725  -2.2061   1.6026   1.7908   1.9789   1.9795

          k = 0.2500 0.2500 0.0000 (423766 PWs)   bands (ev):

   -17.0494  -7.0725  -7.0725  -2.2061   1.6262   1.8128   1.8157   2.0026

          k = 0.2500-0.5000 0.0000 (423782 PWs)   bands (ev):

   -17.0494  -7.0726  -7.0725  -2.2061   1.6939   1.6996   1.8819   1.8876

          k = 0.2500-0.2500 0.0000 (423766 PWs)   bands (ev):

   -17.0494  -7.0726  -7.0725  -2.2061   1.6261   1.8128   1.8158   2.0026

          k =-0.5000 0.0000 0.0000 (423542 PWs)   bands (ev):

   -17.0494  -7.0725  -7.0725  -2.2061   1.6704   1.6761   2.0492   2.0515

          k =-0.5000 0.2500 0.0000 (423782 PWs)   bands (ev):

   -17.0494  -7.0725  -7.0725  -2.2061   1.6939   1.6996   1.8820   1.8877

          k =-0.5000-0.5000 0.0000 (423708 PWs)   bands (ev):

   -17.0494  -7.0725  -7.0725  -2.2061   1.7630   1.7658   1.7659   1.7745

 ------ SPIN DOWN ----------


          k = 0.0000 0.0000 0.0000 (423701 PWs)   bands (ev):

   -17.0494  -7.0725  -7.0725  -2.2061   1.5792   1.9548   1.9550   1.9583

          k = 0.0000 0.2500 0.0000 (423725 PWs)   bands (ev):

   -17.0494  -7.0725  -7.0725  -2.2061   1.6027   1.7909   1.9786   1.9792

          k = 0.0000-0.5000 0.0000 (423542 PWs)   bands (ev):

   -17.0494  -7.0725  -7.0725  -2.2061   1.6704   1.6763   2.0471   2.0514

          k = 0.2500 0.0000 0.0000 (423725 PWs)   bands (ev):

   -17.0494  -7.0725  -7.0725  -2.2061   1.6027   1.7908   1.9786   1.9795

          k = 0.2500 0.2500 0.0000 (423766 PWs)   bands (ev):

   -17.0494  -7.0725  -7.0725  -2.2061   1.6262   1.8128   1.8158   2.0024

          k = 0.2500-0.5000 0.0000 (423782 PWs)   bands (ev):

   -17.0494  -7.0725  -7.0725  -2.2061   1.6939   1.6996   1.8819   1.8877

          k = 0.2500-0.2500 0.0000 (423766 PWs)   bands (ev):

   -17.0494  -7.0725  -7.0725  -2.2061   1.6262   1.8128   1.8157   2.0024

          k =-0.5000 0.0000 0.0000 (423542 PWs)   bands (ev):

   -17.0494  -7.0725  -7.0725  -2.2061   1.6704   1.6761   2.0493   2.0516

          k =-0.5000 0.2500 0.0000 (423782 PWs)   bands (ev):

   -17.0494  -7.0725  -7.0725  -2.2061   1.6939   1.6996   1.8819   1.8877

          k =-0.5000-0.5000 0.0000 (423708 PWs)   bands (ev):

   -17.0494  -7.0725  -7.0725  -2.2061   1.7631   1.7658   1.7659   1.7742

     the Fermi energy is    -0.1316 ev

!    total energy              =     -23.77840921 Ry
     estimated scf accuracy    <          6.1E-11 Ry
     smearing contrib. (-TS)   =       0.00000000 Ry
     internal energy E=F+TS    =     -23.77840921 Ry

     The total energy is F=E-TS. E is the sum of the following terms:
     one-electron contribution =     -64.43738518 Ry
     hartree contribution      =      34.48467876 Ry
     xc contribution           =      -7.58129020 Ry
     ewald contribution        =      13.75588813 Ry
     Dispersion Correction     =      -0.00030072 Ry

     total magnetization       =     0.00 Bohr mag/cell
     absolute magnetization    =     0.00 Bohr mag/cell

     convergence has been achieved in  14 iterations

     negative rho (up, down):  2.013E-04 2.013E-04

     Forces acting on atoms (cartesian axes, Ry/au):

     atom    1 type  1   force =    -0.00000007   -0.00000032   -0.00001765
     atom    2 type  2   force =     0.00000006   -0.00003744    0.00000887
     atom    3 type  2   force =    -0.00003238    0.00001891    0.00000876
     atom    4 type  2   force =     0.00003239    0.00001885    0.00000880

     Total force =     0.000067     Total SCF correction =     0.000003
     Energy error            =      1.6E-08
     Gradient error          =      3.7E-05

     bfgs converged in   9 scf cycles and   8 bfgs steps
     (criteria: energy <  7.3E-07 Ry, force <  3.9E-04 Ry/Bohr)

     End of BFGS Geometry Optimization

     Final energy   =     -23.7784092117 Ry

     File ./NH3_ESM_p25.bfgs deleted, as requested
Begin final coordinates

ATOMIC_POSITIONS (angstrom)
N            10.0000000000       10.0000000000        0.0000000000    0   0   0
H            10.0000003453       10.9382799089       -0.4058930678
H            10.8125720673        9.5308637982       -0.4059017482
H             9.1874285774        9.5308641357       -0.4059034682
End final coordinates



     Writing output data file ./NH3_ESM_p25.save/

     init_run     :     20.37s CPU     21.74s WALL (       1 calls)
     electrons    :   1508.42s CPU   1620.31s WALL (      10 calls)
     update_pot   :     61.95s CPU     65.59s WALL (       8 calls)
     forces       :     89.47s CPU     95.10s WALL (      10 calls)

     Called by init_run:
     wfcinit      :      1.02s CPU      1.30s WALL (       1 calls)
     potinit      :     15.01s CPU     16.13s WALL (       2 calls)
     hinit0       :      1.96s CPU      2.13s WALL (       1 calls)

     Called by electrons:
     c_bands      :    591.98s CPU    603.00s WALL (      85 calls)
     sum_band     :    192.58s CPU    199.24s WALL (      85 calls)
     v_of_rho     :    514.21s CPU    560.08s WALL (      91 calls)
     newd         :     77.33s CPU     81.72s WALL (      91 calls)
     mix_rho      :    109.26s CPU    133.04s WALL (      85 calls)

     Called by c_bands:
     init_us_2    :      3.37s CPU      3.54s WALL (     543 calls)
     ccgdiagg     :    456.43s CPU    462.49s WALL (     255 calls)
     wfcrot       :    115.76s CPU    117.62s WALL (     216 calls)

     Called by *cgdiagg:
     h_psi        :    491.82s CPU    498.04s WALL (    6022 calls)
     s_psi        :     32.93s CPU     33.46s WALL (   11828 calls)

     Called by h_psi:
     h_psi:calbec :     21.14s CPU     21.48s WALL (    6022 calls)
     vloc_psi     :    444.00s CPU    449.46s WALL (    6022 calls)
     add_vuspsi   :     24.14s CPU     24.55s WALL (    6022 calls)
     hs_1psi      :    400.14s CPU    404.98s WALL (    5806 calls)
     s_1psi       :     35.46s CPU     36.14s WALL (    5806 calls)

     General routines
     calbec       :     41.34s CPU     42.07s WALL (   12203 calls)
     fft          :    549.79s CPU    565.20s WALL (    2419 calls)
     ffts         :     27.06s CPU     27.32s WALL (     352 calls)
     fftw         :    420.53s CPU    425.64s WALL (   17108 calls)
     interpolate  :     59.93s CPU     64.87s WALL (     182 calls)
     davcio       :      0.28s CPU     14.97s WALL (    1691 calls)

     Parallel routines
     fft_scatt_xy :    158.00s CPU    160.20s WALL (   19879 calls)
     fft_scatt_yz :    352.13s CPU    356.42s WALL (   19879 calls)

     PWSCF        :  28m31.55s CPU  30m35.85s WALL


   This run was terminated on:   2:13:46   1Jul2022            

=------------------------------------------------------------------------------=
   JOB DONE.
=------------------------------------------------------------------------------=
