
     Program PHONON v.6.7MaX starts on 20Sep2022 at 23: 1: 4 

     This program is part of the open-source Quantum ESPRESSO suite
     for quantum simulation of materials; please cite
         "P. Giannozzi et al., J. Phys.:Condens. Matter 21 395502 (2009);
         "P. Giannozzi et al., J. Phys.:Condens. Matter 29 465901 (2017);
          URL http://www.quantum-espresso.org", 
     in publications or presentations arising from this work. More details at
     http://www.quantum-espresso.org/quote

     Parallel version (MPI), running on   120 processors

     MPI processes distributed on     1 nodes
     K-points division:     npool     =       8
     R & G space division:  proc/nbgrp/npool/nimage =      15
     Waiting for input...
     Reading input from standard input

     Reading xml data from directory:

     ./NH3_ESM_p25.save/

     IMPORTANT: XC functional enforced from input :
     Exchange-correlation= PBE
                           (   1   4   3   4   0   0   0)
     Any further DFT definition will be discarded
     Please, verify this is what you really want


     Parallelization info
     --------------------
     sticks:   dense  smooth     PW     G-vecs:    dense   smooth      PW
     Min        3636    1818    468               639190   225950   29545
     Max        3637    1819    470               639197   225953   29547
     Sum       54553   27281   7033              9587919  3389267  443191


     negative rho (up, down):  2.013E-04 2.013E-04
     Reading collected, re-writing distributed wavefunctions

     Calculation of q =    0.0000000   0.0000000   0.0000000

     phonons (vibrational modes) for NH3                                        

     bravais-lattice index     =            0
     lattice parameter (alat)  =      37.7945  a.u.
     unit-cell volume          =   53986.6760 (a.u.)^3
     number of atoms/cell      =            4
     number of atomic types    =            2
     kinetic-energy cut-off    =      60.0000  Ry
     charge density cut-off    =     480.0000  Ry
     convergence threshold     =      1.0E-12
     beta                      =       0.7000
     number of iterations used =            4
     Exchange-correlation= PBE
                           (   1   4   3   4   0   0   0)


     celldm(1)=   37.79452  celldm(2)=    0.00000  celldm(3)=    0.00000
     celldm(4)=    0.00000  celldm(5)=    0.00000  celldm(6)=    0.00000

     crystal axes: (cart. coord. in units of alat)
               a(1) = (  1.0000  0.0000  0.0000 )  
               a(2) = (  0.0000  1.0000  0.0000 )  
               a(3) = (  0.0000  0.0000  1.0000 )  

     reciprocal axes: (cart. coord. in units 2 pi/alat)
               b(1) = (  1.0000  0.0000  0.0000 )  
               b(2) = (  0.0000  1.0000  0.0000 )  
               b(3) = (  0.0000  0.0000  1.0000 )  


     Atoms inside the unit cell: 

     Cartesian axes

     site n.  atom      mass           positions (alat units)
        1     N   14.0067   tau(    1) = (    0.50000    0.50000    0.00000  )
        2     H    1.0078   tau(    2) = (    0.50000    0.54691   -0.02029  )
        3     H    1.0078   tau(    3) = (    0.54063    0.47654   -0.02030  )
        4     H    1.0078   tau(    4) = (    0.45937    0.47654   -0.02030  )

     Computing dynamical matrix for 
                    q = (   0.0000000   0.0000000   0.0000000 )

      2 Sym.Ops. (with q -> -q+G )


     G cutoff =17367.5767  ( 639197 G-vectors)     FFT grid: (270,270,270)
     G cutoff = 8683.7884  ( 225950 G-vectors)  smooth grid: (192,192,192)

     number of k points=    20  Methfessel-Paxton smearing, width (Ry)=  0.0100
                       cart. coord. in units 2pi/alat
        k(    1) = (   0.0000000   0.0000000   0.0000000), wk =   0.0625000
        k(    2) = (   0.0000000   0.2500000   0.0000000), wk =   0.1250000
        k(    3) = (   0.0000000  -0.5000000   0.0000000), wk =   0.0625000
        k(    4) = (   0.2500000   0.0000000   0.0000000), wk =   0.1250000
        k(    5) = (   0.2500000   0.2500000   0.0000000), wk =   0.1250000
        k(    6) = (   0.2500000  -0.5000000   0.0000000), wk =   0.1250000
        k(    7) = (   0.2500000  -0.2500000   0.0000000), wk =   0.1250000
        k(    8) = (  -0.5000000   0.0000000   0.0000000), wk =   0.0625000
        k(    9) = (  -0.5000000   0.2500000   0.0000000), wk =   0.1250000
        k(   10) = (  -0.5000000  -0.5000000   0.0000000), wk =   0.0625000
        k(   11) = (   0.0000000   0.0000000   0.0000000), wk =   0.0625000
        k(   12) = (   0.0000000   0.2500000   0.0000000), wk =   0.1250000
        k(   13) = (   0.0000000  -0.5000000   0.0000000), wk =   0.0625000
        k(   14) = (   0.2500000   0.0000000   0.0000000), wk =   0.1250000
        k(   15) = (   0.2500000   0.2500000   0.0000000), wk =   0.1250000
        k(   16) = (   0.2500000  -0.5000000   0.0000000), wk =   0.1250000
        k(   17) = (   0.2500000  -0.2500000   0.0000000), wk =   0.1250000
        k(   18) = (  -0.5000000   0.0000000   0.0000000), wk =   0.0625000
        k(   19) = (  -0.5000000   0.2500000   0.0000000), wk =   0.1250000
        k(   20) = (  -0.5000000  -0.5000000   0.0000000), wk =   0.0625000

     PseudoPot. # 1 for N  read from file:
     ../../SSSP/N.pbe-n-radius_5.UPF
     MD5 check sum: 16739722b17309cd8fe442a2ace49922
     Pseudo is Ultrasoft + core correction, Zval =  5.0
     Generated using "atomic" code by A. Dal Corso  v.5.1
     Using radial grid of 1085 points,  4 beta functions with: 
                l(1) =   0
                l(2) =   0
                l(3) =   1
                l(4) =   1
     Q(r) pseudized with 0 coefficients 


     PseudoPot. # 2 for H  read from file:
     ../../SSSP/H.pbe-rrkjus_psl.1.0.0.UPF
     MD5 check sum: f52b6d4d1c606e5624b1dc7b2218f220
     Pseudo is Ultrasoft, Zval =  1.0
     Generated using "atomic" code by A. Dal Corso  v.5.1
     Using radial grid of  929 points,  2 beta functions with: 
                l(1) =   0
                l(2) =   0
     Q(r) pseudized with 0 coefficients 


     Mode symmetry, C_1 (1)     point group:


     Atomic displacements:
     There are   12 irreducible representations

     Representation     1      1 modes -  To be done

     Representation     2      1 modes -  To be done

     Representation     3      1 modes -  To be done

     Representation     4      1 modes -  To be done

     Representation     5      1 modes -  To be done

     Representation     6      1 modes -  To be done

     Representation     7      1 modes -  To be done

     Representation     8      1 modes -  To be done

     Representation     9      1 modes -  To be done

     Representation    10      1 modes -  To be done

     Representation    11      1 modes -  To be done

     Representation    12      1 modes -  To be done



     Alpha used in Ewald sum =   2.8000

     -------------------------------------------------
     Parameters for Dispersion (Grimme-D2) Correction:
     -------------------------------------------------
       atom      VdW radius       C_6     

        N          2.640         42.670
        H          1.892          4.857

     Calculating the D2 contribution to the dynamical matrix.
     D2 energy =       -0.00030072 Ry
     Done.


     negative rho (up, down):  2.013E-04 2.013E-04
     PHONON       :   3m30.74s CPU   3m39.78s WALL



     Representation #   1 mode #   1

     Self-consistent Calculation

     Pert. #  1: Fermi energy shift (Ry) =     0.0000E+00     0.0000E+00

      iter #   1 total cpu time :   265.1 secs   av.it.:   9.1
      thresh= 1.000E-02 alpha_mix =  0.700 |ddv_scf|^2 =  2.260E-07

     Pert. #  1: Fermi energy shift (Ry) =     0.0000E+00     0.0000E+00

      iter #   2 total cpu time :   313.1 secs   av.it.:  17.3
      thresh= 4.754E-05 alpha_mix =  0.700 |ddv_scf|^2 =  4.283E-08

     Pert. #  1: Fermi energy shift (Ry) =     0.0000E+00     0.0000E+00

      iter #   3 total cpu time :   363.0 secs   av.it.:  19.2
      thresh= 2.070E-05 alpha_mix =  0.700 |ddv_scf|^2 =  5.548E-09

     Pert. #  1: Fermi energy shift (Ry) =     0.0000E+00     0.0000E+00

      iter #   4 total cpu time :   414.6 secs   av.it.:  20.0
      thresh= 7.448E-06 alpha_mix =  0.700 |ddv_scf|^2 =  6.305E-13

     End of self-consistent calculation

     Convergence has been achieved 


     Representation #   2 mode #   2

     Self-consistent Calculation

     Pert. #  1: Fermi energy shift (Ry) =     0.0000E+00     0.0000E+00

      iter #   1 total cpu time :   478.4 secs   av.it.:   9.1
      thresh= 1.000E-02 alpha_mix =  0.700 |ddv_scf|^2 =  1.018E-06

     Pert. #  1: Fermi energy shift (Ry) =     0.0000E+00     0.0000E+00

      iter #   2 total cpu time :   523.0 secs   av.it.:  16.1
      thresh= 1.009E-04 alpha_mix =  0.700 |ddv_scf|^2 =  1.154E-07

     Pert. #  1: Fermi energy shift (Ry) =     0.0000E+00     0.0000E+00

      iter #   3 total cpu time :   569.4 secs   av.it.:  19.0
      thresh= 3.396E-05 alpha_mix =  0.700 |ddv_scf|^2 =  1.975E-09

     Pert. #  1: Fermi energy shift (Ry) =     0.0000E+00     0.0000E+00

      iter #   4 total cpu time :   622.0 secs   av.it.:  21.0
      thresh= 4.444E-06 alpha_mix =  0.700 |ddv_scf|^2 =  7.357E-12

     Pert. #  1: Fermi energy shift (Ry) =     0.0000E+00     0.0000E+00

      iter #   5 total cpu time :   673.4 secs   av.it.:  19.0
      thresh= 2.712E-07 alpha_mix =  0.700 |ddv_scf|^2 =  6.661E-13

     End of self-consistent calculation

     Convergence has been achieved 


     Representation #   3 mode #   3

     Self-consistent Calculation

     Pert. #  1: Fermi energy shift (Ry) =     0.0000E+00     0.0000E+00

      iter #   1 total cpu time :   738.2 secs   av.it.:   9.0
      thresh= 1.000E-02 alpha_mix =  0.700 |ddv_scf|^2 =  4.450E-07

     Pert. #  1: Fermi energy shift (Ry) =     0.0000E+00     0.0000E+00

      iter #   2 total cpu time :   782.3 secs   av.it.:  17.0
      thresh= 6.671E-05 alpha_mix =  0.700 |ddv_scf|^2 =  6.428E-08

     Pert. #  1: Fermi energy shift (Ry) =     0.0000E+00     0.0000E+00

      iter #   3 total cpu time :   828.7 secs   av.it.:  18.2
      thresh= 2.535E-05 alpha_mix =  0.700 |ddv_scf|^2 =  1.813E-08

     Pert. #  1: Fermi energy shift (Ry) =     0.0000E+00     0.0000E+00

      iter #   4 total cpu time :   878.3 secs   av.it.:  18.9
      thresh= 1.346E-05 alpha_mix =  0.700 |ddv_scf|^2 =  1.256E-09

     Pert. #  1: Fermi energy shift (Ry) =     0.0000E+00     0.0000E+00

      iter #   5 total cpu time :   928.8 secs   av.it.:  18.0
      thresh= 3.544E-06 alpha_mix =  0.700 |ddv_scf|^2 =  1.959E-11

     Pert. #  1: Fermi energy shift (Ry) =     0.0000E+00     0.0000E+00

      iter #   6 total cpu time :   978.8 secs   av.it.:  17.8
      thresh= 4.426E-07 alpha_mix =  0.700 |ddv_scf|^2 =  2.763E-12

     Pert. #  1: Fermi energy shift (Ry) =     0.0000E+00     0.0000E+00

      iter #   7 total cpu time :  1030.3 secs   av.it.:  18.6
      thresh= 1.662E-07 alpha_mix =  0.700 |ddv_scf|^2 =  7.814E-14

     End of self-consistent calculation

     Convergence has been achieved 


     Representation #   4 mode #   4

     Self-consistent Calculation

     Pert. #  1: Fermi energy shift (Ry) =     0.0000E+00     0.0000E+00

      iter #   1 total cpu time :  1091.4 secs   av.it.:   5.3
      thresh= 1.000E-02 alpha_mix =  0.700 |ddv_scf|^2 =  5.723E-09

     Pert. #  1: Fermi energy shift (Ry) =     0.0000E+00     0.0000E+00

      iter #   2 total cpu time :  1134.8 secs   av.it.:  16.3
      thresh= 7.565E-06 alpha_mix =  0.700 |ddv_scf|^2 =  4.903E-10

     Pert. #  1: Fermi energy shift (Ry) =     0.0000E+00     0.0000E+00

      iter #   3 total cpu time :  1181.1 secs   av.it.:  19.0
      thresh= 2.214E-06 alpha_mix =  0.700 |ddv_scf|^2 =  1.984E-11

     Pert. #  1: Fermi energy shift (Ry) =     0.0000E+00     0.0000E+00

      iter #   4 total cpu time :  1232.6 secs   av.it.:  20.0
      thresh= 4.454E-07 alpha_mix =  0.700 |ddv_scf|^2 =  5.125E-14

     End of self-consistent calculation

     Convergence has been achieved 


     Representation #   5 mode #   5

     Self-consistent Calculation

     Pert. #  1: Fermi energy shift (Ry) =     0.0000E+00     0.0000E+00

      iter #   1 total cpu time :  1297.1 secs   av.it.:   9.0
      thresh= 1.000E-02 alpha_mix =  0.700 |ddv_scf|^2 =  3.844E-08

     Pert. #  1: Fermi energy shift (Ry) =     0.0000E+00     0.0000E+00

      iter #   2 total cpu time :  1343.5 secs   av.it.:  19.4
      thresh= 1.961E-05 alpha_mix =  0.700 |ddv_scf|^2 =  1.091E-08

     Pert. #  1: Fermi energy shift (Ry) =     0.0000E+00     0.0000E+00

      iter #   3 total cpu time :  1390.1 secs   av.it.:  19.4
      thresh= 1.045E-05 alpha_mix =  0.700 |ddv_scf|^2 =  1.045E-08

     Pert. #  1: Fermi energy shift (Ry) =     0.0000E+00     0.0000E+00

      iter #   4 total cpu time :  1440.0 secs   av.it.:  18.9
      thresh= 1.022E-05 alpha_mix =  0.700 |ddv_scf|^2 =  1.921E-11

     Pert. #  1: Fermi energy shift (Ry) =     0.0000E+00     0.0000E+00

      iter #   5 total cpu time :  1492.2 secs   av.it.:  19.4
      thresh= 4.383E-07 alpha_mix =  0.700 |ddv_scf|^2 =  1.824E-12

     Pert. #  1: Fermi energy shift (Ry) =     0.0000E+00     0.0000E+00

      iter #   6 total cpu time :  1544.4 secs   av.it.:  20.0
      thresh= 1.350E-07 alpha_mix =  0.700 |ddv_scf|^2 =  1.526E-14

     End of self-consistent calculation

     Convergence has been achieved 


     Representation #   6 mode #   6

     Self-consistent Calculation

     Pert. #  1: Fermi energy shift (Ry) =     0.0000E+00     0.0000E+00

      iter #   1 total cpu time :  1610.1 secs   av.it.:   8.1
      thresh= 1.000E-02 alpha_mix =  0.700 |ddv_scf|^2 =  3.498E-09

     Pert. #  1: Fermi energy shift (Ry) =     0.0000E+00     0.0000E+00

      iter #   2 total cpu time :  1656.0 secs   av.it.:  20.0
      thresh= 5.915E-06 alpha_mix =  0.700 |ddv_scf|^2 =  3.344E-09

     Pert. #  1: Fermi energy shift (Ry) =     0.0000E+00     0.0000E+00

      iter #   3 total cpu time :  1703.2 secs   av.it.:  19.1
      thresh= 5.783E-06 alpha_mix =  0.700 |ddv_scf|^2 =  2.793E-10

     Pert. #  1: Fermi energy shift (Ry) =     0.0000E+00     0.0000E+00

      iter #   4 total cpu time :  1753.4 secs   av.it.:  20.0
      thresh= 1.671E-06 alpha_mix =  0.700 |ddv_scf|^2 =  1.867E-11

     Pert. #  1: Fermi energy shift (Ry) =     0.0000E+00     0.0000E+00

      iter #   5 total cpu time :  1805.0 secs   av.it.:  19.9
      thresh= 4.321E-07 alpha_mix =  0.700 |ddv_scf|^2 =  1.320E-12

     Pert. #  1: Fermi energy shift (Ry) =     0.0000E+00     0.0000E+00

      iter #   6 total cpu time :  1856.4 secs   av.it.:  19.2
      thresh= 1.149E-07 alpha_mix =  0.700 |ddv_scf|^2 =  2.040E-13

     End of self-consistent calculation

     Convergence has been achieved 


     Representation #   7 mode #   7

     Self-consistent Calculation

     Pert. #  1: Fermi energy shift (Ry) =     0.0000E+00     0.0000E+00

      iter #   1 total cpu time :  1921.2 secs   av.it.:   9.0
      thresh= 1.000E-02 alpha_mix =  0.700 |ddv_scf|^2 =  1.368E-08

     Pert. #  1: Fermi energy shift (Ry) =     0.0000E+00     0.0000E+00

      iter #   2 total cpu time :  1967.9 secs   av.it.:  20.0
      thresh= 1.170E-05 alpha_mix =  0.700 |ddv_scf|^2 =  7.170E-09

     Pert. #  1: Fermi energy shift (Ry) =     0.0000E+00     0.0000E+00

      iter #   3 total cpu time :  2015.5 secs   av.it.:  20.0
      thresh= 8.467E-06 alpha_mix =  0.700 |ddv_scf|^2 =  2.808E-09

     Pert. #  1: Fermi energy shift (Ry) =     0.0000E+00     0.0000E+00

      iter #   4 total cpu time :  2066.2 secs   av.it.:  19.8
      thresh= 5.299E-06 alpha_mix =  0.700 |ddv_scf|^2 =  1.534E-11

     Pert. #  1: Fermi energy shift (Ry) =     0.0000E+00     0.0000E+00

      iter #   5 total cpu time :  2118.3 secs   av.it.:  20.0
      thresh= 3.917E-07 alpha_mix =  0.700 |ddv_scf|^2 =  1.343E-12

     Pert. #  1: Fermi energy shift (Ry) =     0.0000E+00     0.0000E+00

      iter #   6 total cpu time :  2168.5 secs   av.it.:  20.0
      thresh= 1.159E-07 alpha_mix =  0.700 |ddv_scf|^2 =  7.578E-14

     End of self-consistent calculation

     Convergence has been achieved 


     Representation #   8 mode #   8

     Self-consistent Calculation

     Pert. #  1: Fermi energy shift (Ry) =     0.0000E+00     0.0000E+00

      iter #   1 total cpu time :  2234.0 secs   av.it.:   8.6
      thresh= 1.000E-02 alpha_mix =  0.700 |ddv_scf|^2 =  5.324E-09

     Pert. #  1: Fermi energy shift (Ry) =     0.0000E+00     0.0000E+00

      iter #   2 total cpu time :  2280.4 secs   av.it.:  20.6
      thresh= 7.297E-06 alpha_mix =  0.700 |ddv_scf|^2 =  2.487E-09

     Pert. #  1: Fermi energy shift (Ry) =     0.0000E+00     0.0000E+00

      iter #   3 total cpu time :  2329.0 secs   av.it.:  20.8
      thresh= 4.987E-06 alpha_mix =  0.700 |ddv_scf|^2 =  1.186E-09

     Pert. #  1: Fermi energy shift (Ry) =     0.0000E+00     0.0000E+00

      iter #   4 total cpu time :  2380.2 secs   av.it.:  19.9
      thresh= 3.445E-06 alpha_mix =  0.700 |ddv_scf|^2 =  1.207E-11

     Pert. #  1: Fermi energy shift (Ry) =     0.0000E+00     0.0000E+00

      iter #   5 total cpu time :  2433.1 secs   av.it.:  20.9
      thresh= 3.474E-07 alpha_mix =  0.700 |ddv_scf|^2 =  1.641E-12

     Pert. #  1: Fermi energy shift (Ry) =     0.0000E+00     0.0000E+00

      iter #   6 total cpu time :  2484.3 secs   av.it.:  19.4
      thresh= 1.281E-07 alpha_mix =  0.700 |ddv_scf|^2 =  1.264E-13

     End of self-consistent calculation

     Convergence has been achieved 


     Representation #   9 mode #   9

     Self-consistent Calculation

     Pert. #  1: Fermi energy shift (Ry) =     0.0000E+00     0.0000E+00

      iter #   1 total cpu time :  2548.1 secs   av.it.:   8.1
      thresh= 1.000E-02 alpha_mix =  0.700 |ddv_scf|^2 =  1.584E-08

     Pert. #  1: Fermi energy shift (Ry) =     0.0000E+00     0.0000E+00

      iter #   2 total cpu time :  2593.1 secs   av.it.:  18.3
      thresh= 1.259E-05 alpha_mix =  0.700 |ddv_scf|^2 =  3.783E-09

     Pert. #  1: Fermi energy shift (Ry) =     0.0000E+00     0.0000E+00

      iter #   3 total cpu time :  2642.5 secs   av.it.:  20.1
      thresh= 6.151E-06 alpha_mix =  0.700 |ddv_scf|^2 =  4.654E-09

     Pert. #  1: Fermi energy shift (Ry) =     0.0000E+00     0.0000E+00

      iter #   4 total cpu time :  2693.0 secs   av.it.:  18.9
      thresh= 6.822E-06 alpha_mix =  0.700 |ddv_scf|^2 =  1.909E-11

     Pert. #  1: Fermi energy shift (Ry) =     0.0000E+00     0.0000E+00

      iter #   5 total cpu time :  2744.8 secs   av.it.:  19.7
      thresh= 4.369E-07 alpha_mix =  0.700 |ddv_scf|^2 =  1.777E-12

     Pert. #  1: Fermi energy shift (Ry) =     0.0000E+00     0.0000E+00

      iter #   6 total cpu time :  2796.6 secs   av.it.:  19.0
      thresh= 1.333E-07 alpha_mix =  0.700 |ddv_scf|^2 =  2.241E-13

     End of self-consistent calculation

     Convergence has been achieved 


     Representation #  10 mode #  10

     Self-consistent Calculation

     Pert. #  1: Fermi energy shift (Ry) =     0.0000E+00     0.0000E+00

      iter #   1 total cpu time :  2859.8 secs   av.it.:   9.0
      thresh= 1.000E-02 alpha_mix =  0.700 |ddv_scf|^2 =  1.756E-08

     Pert. #  1: Fermi energy shift (Ry) =     0.0000E+00     0.0000E+00

      iter #   2 total cpu time :  2907.0 secs   av.it.:  20.0
      thresh= 1.325E-05 alpha_mix =  0.700 |ddv_scf|^2 =  7.541E-09

     Pert. #  1: Fermi energy shift (Ry) =     0.0000E+00     0.0000E+00

      iter #   3 total cpu time :  2954.8 secs   av.it.:  20.8
      thresh= 8.684E-06 alpha_mix =  0.700 |ddv_scf|^2 =  4.214E-09

     Pert. #  1: Fermi energy shift (Ry) =     0.0000E+00     0.0000E+00

      iter #   4 total cpu time :  3004.3 secs   av.it.:  19.0
      thresh= 6.491E-06 alpha_mix =  0.700 |ddv_scf|^2 =  1.239E-11

     Pert. #  1: Fermi energy shift (Ry) =     0.0000E+00     0.0000E+00

      iter #   5 total cpu time :  3056.8 secs   av.it.:  21.0
      thresh= 3.521E-07 alpha_mix =  0.700 |ddv_scf|^2 =  8.083E-13

     End of self-consistent calculation

     Convergence has been achieved 


     Representation #  11 mode #  11

     Self-consistent Calculation

     Pert. #  1: Fermi energy shift (Ry) =     0.0000E+00     0.0000E+00

      iter #   1 total cpu time :  3121.6 secs   av.it.:   9.0
      thresh= 1.000E-02 alpha_mix =  0.700 |ddv_scf|^2 =  2.307E-09

     Pert. #  1: Fermi energy shift (Ry) =     0.0000E+00     0.0000E+00

      iter #   2 total cpu time :  3168.0 secs   av.it.:  20.9
      thresh= 4.803E-06 alpha_mix =  0.700 |ddv_scf|^2 =  2.256E-09

     Pert. #  1: Fermi energy shift (Ry) =     0.0000E+00     0.0000E+00

      iter #   3 total cpu time :  3215.0 secs   av.it.:  20.0
      thresh= 4.750E-06 alpha_mix =  0.700 |ddv_scf|^2 =  1.956E-10

     Pert. #  1: Fermi energy shift (Ry) =     0.0000E+00     0.0000E+00

      iter #   4 total cpu time :  3266.2 secs   av.it.:  20.7
      thresh= 1.399E-06 alpha_mix =  0.700 |ddv_scf|^2 =  1.031E-11

     Pert. #  1: Fermi energy shift (Ry) =     0.0000E+00     0.0000E+00

      iter #   5 total cpu time :  3318.8 secs   av.it.:  20.8
      thresh= 3.210E-07 alpha_mix =  0.700 |ddv_scf|^2 =  1.575E-12

     Pert. #  1: Fermi energy shift (Ry) =     0.0000E+00     0.0000E+00

      iter #   6 total cpu time :  3370.5 secs   av.it.:  19.4
      thresh= 1.255E-07 alpha_mix =  0.700 |ddv_scf|^2 =  9.422E-14

     End of self-consistent calculation

     Convergence has been achieved 


     Representation #  12 mode #  12

     Self-consistent Calculation

     Pert. #  1: Fermi energy shift (Ry) =     0.0000E+00     0.0000E+00

      iter #   1 total cpu time :  3434.3 secs   av.it.:   8.5
      thresh= 1.000E-02 alpha_mix =  0.700 |ddv_scf|^2 =  8.780E-09

     Pert. #  1: Fermi energy shift (Ry) =     0.0000E+00     0.0000E+00

      iter #   2 total cpu time :  3480.0 secs   av.it.:  19.0
      thresh= 9.370E-06 alpha_mix =  0.700 |ddv_scf|^2 =  3.612E-09

     Pert. #  1: Fermi energy shift (Ry) =     0.0000E+00     0.0000E+00

      iter #   3 total cpu time :  3526.6 secs   av.it.:  20.0
      thresh= 6.010E-06 alpha_mix =  0.700 |ddv_scf|^2 =  2.141E-09

     Pert. #  1: Fermi energy shift (Ry) =     0.0000E+00     0.0000E+00

      iter #   4 total cpu time :  3577.4 secs   av.it.:  19.0
      thresh= 4.627E-06 alpha_mix =  0.700 |ddv_scf|^2 =  1.799E-11

     Pert. #  1: Fermi energy shift (Ry) =     0.0000E+00     0.0000E+00

      iter #   5 total cpu time :  3630.6 secs   av.it.:  19.9
      thresh= 4.241E-07 alpha_mix =  0.700 |ddv_scf|^2 =  1.373E-12

     Pert. #  1: Fermi energy shift (Ry) =     0.0000E+00     0.0000E+00

      iter #   6 total cpu time :  3682.4 secs   av.it.:  19.5
      thresh= 1.172E-07 alpha_mix =  0.700 |ddv_scf|^2 =  1.755E-13

     End of self-consistent calculation

     Convergence has been achieved 

     Number of q in the star =    1
     List of q in the star:
          1   0.000000000   0.000000000   0.000000000

     Diagonalizing the dynamical matrix

     q = (    0.000000000   0.000000000   0.000000000 ) 

 **************************************************************************
     freq (    1) =     -51.610967 [THz] =   -1721.556544 [cm-1]
     freq (    2) =     -49.595162 [THz] =   -1654.316521 [cm-1]
     freq (    3) =     -49.191718 [THz] =   -1640.859080 [cm-1]
     freq (    4) =     -46.144989 [THz] =   -1539.231163 [cm-1]
     freq (    5) =     -41.801002 [THz] =   -1394.331356 [cm-1]
     freq (    6) =     -41.690858 [THz] =   -1390.657342 [cm-1]
     freq (    7) =     -15.787146 [THz] =    -526.602513 [cm-1]
     freq (    8) =      31.258911 [THz] =    1042.685033 [cm-1]
     freq (    9) =      31.388754 [THz] =    1047.016128 [cm-1]
     freq (   10) =      85.125202 [THz] =    2839.471106 [cm-1]
     freq (   11) =      88.279092 [THz] =    2944.673540 [cm-1]
     freq (   12) =      88.468625 [THz] =    2950.995670 [cm-1]
 **************************************************************************

     Mode symmetry, C_1 (1)     point group:

     freq (   1-   1) =      -1721.6  [cm-1]   --> A               I+R
     freq (   2-   2) =      -1654.3  [cm-1]   --> A               I+R
     freq (   3-   3) =      -1640.9  [cm-1]   --> A               I+R
     freq (   4-   4) =      -1539.2  [cm-1]   --> A               I+R
     freq (   5-   5) =      -1394.3  [cm-1]   --> A               I+R
     freq (   6-   6) =      -1390.7  [cm-1]   --> A               I+R
     freq (   7-   7) =       -526.6  [cm-1]   --> A               I+R
     freq (   8-   8) =       1042.7  [cm-1]   --> A               I+R
     freq (   9-   9) =       1047.0  [cm-1]   --> A               I+R
     freq (  10-  10) =       2839.5  [cm-1]   --> A               I+R
     freq (  11-  11) =       2944.7  [cm-1]   --> A               I+R
     freq (  12-  12) =       2951.0  [cm-1]   --> A               I+R

     PHONON       :  54m10.23s CPU      1h 1m WALL

     INITIALIZATION: 
     phq_setup    :     12.85s CPU     14.40s WALL (       1 calls)
     phq_init     :    179.90s CPU    184.67s WALL (       1 calls)

     phq_init     :    179.90s CPU    184.67s WALL (       1 calls)
     set_drhoc    :     23.89s CPU     24.00s WALL (       3 calls)
     init_vloc    :      0.32s CPU      0.32s WALL (       1 calls)
     init_us_1    :      0.04s CPU      0.04s WALL (       1 calls)
     newd         :      1.35s CPU      1.41s WALL (       1 calls)
     dvanqq       :     73.67s CPU     74.52s WALL (       1 calls)
     drho         :     58.84s CPU     61.90s WALL (       1 calls)

     DYNAMICAL MATRIX:
     dynmat0      :     25.05s CPU     25.80s WALL (       1 calls)
     phqscf       :   3039.25s CPU   3480.77s WALL (       1 calls)
     dynmatrix    :      0.24s CPU      0.30s WALL (       1 calls)

     phqscf       :   3039.25s CPU   3480.77s WALL (       1 calls)
     solve_linter :   3021.89s CPU   3437.54s WALL (      12 calls)
     drhodv       :     17.35s CPU     17.82s WALL (      12 calls)

     dynmat0      :     25.05s CPU     25.80s WALL (       1 calls)
     dynmat_us    :      1.98s CPU      2.05s WALL (       1 calls)
     d2ionq       :      1.01s CPU      1.01s WALL (       1 calls)
     dynmatcc     :     22.00s CPU     22.66s WALL (       1 calls)

     dynmat_us    :      1.98s CPU      2.05s WALL (       1 calls)
     addusdynmat  :      0.00s CPU      0.00s WALL (       1 calls)

     phqscf       :   3039.25s CPU   3480.77s WALL (       1 calls)
     solve_linter :   3021.89s CPU   3437.54s WALL (      12 calls)

     solve_linter :   3021.89s CPU   3437.54s WALL (      12 calls)
     dvqpsi_us    :     24.78s CPU     25.25s WALL (      36 calls)
     ortho        :      5.55s CPU      5.67s WALL (     201 calls)
     cgsolve      :   1178.40s CPU   1192.10s WALL (     201 calls)
     incdrhoscf   :     55.24s CPU     56.31s WALL (     201 calls)
     addusddens   :    155.19s CPU    165.99s WALL (      79 calls)
     vpsifft      :     49.02s CPU     50.02s WALL (     165 calls)
     dv_of_drho   :    446.00s CPU    469.74s WALL (      67 calls)
     mix_pot      :     34.01s CPU     93.90s WALL (      67 calls)
     ef_shift     :     64.20s CPU     65.44s WALL (      79 calls)
     localdos     :     63.95s CPU     66.37s WALL (      12 calls)
     psymdvscf    :    356.49s CPU    552.05s WALL (      67 calls)
     newdq        :    213.02s CPU    223.13s WALL (      67 calls)
     adddvscf     :      1.77s CPU      1.79s WALL (     165 calls)
     drhodvus     :     12.00s CPU     60.17s WALL (      12 calls)

     dvqpsi_us    :     24.78s CPU     25.25s WALL (      36 calls)
     dvqpsi_us_on :      0.41s CPU      0.43s WALL (      36 calls)

     cgsolve      :   1178.40s CPU   1192.10s WALL (     201 calls)
     ch_psi       :   1142.85s CPU   1156.14s WALL (    5828 calls)

     ch_psi       :   1142.85s CPU   1156.14s WALL (    5828 calls)
     h_psi        :   1021.46s CPU   1033.41s WALL (    5828 calls)
     last         :     86.03s CPU     86.97s WALL (    5828 calls)

     h_psi        :   1021.46s CPU   1033.41s WALL (    5828 calls)
     add_vuspsi   :     26.66s CPU     27.00s WALL (    5828 calls)

     incdrhoscf   :     55.24s CPU     56.31s WALL (     201 calls)
     addusdbec    :      1.93s CPU      1.95s WALL (     237 calls)

     drhodvus     :     12.00s CPU     60.17s WALL (      12 calls)

      General routines
     calbec       :     59.04s CPU     60.02s WALL (   12304 calls)
     fft          :    770.29s CPU    785.64s WALL (    2769 calls)
     ffts         :     48.14s CPU     49.14s WALL (     654 calls)
     fftw         :    902.14s CPU    912.92s WALL (   32410 calls)
     davcio       :      0.42s CPU     97.42s WALL (    1583 calls)
     write_rec    :      0.13s CPU     47.92s WALL (      79 calls)


     PHONON       :  54m10.23s CPU      1h 1m WALL


   This run was terminated on:   0: 2:54  21Sep2022            

=------------------------------------------------------------------------------=
   JOB DONE.
=------------------------------------------------------------------------------=
