
     Program PHONON v.6.7MaX starts on 29Sep2022 at  0:52:25 

     This program is part of the open-source Quantum ESPRESSO suite
     for quantum simulation of materials; please cite
         "P. Giannozzi et al., J. Phys.:Condens. Matter 21 395502 (2009);
         "P. Giannozzi et al., J. Phys.:Condens. Matter 29 465901 (2017);
          URL http://www.quantum-espresso.org", 
     in publications or presentations arising from this work. More details at
     http://www.quantum-espresso.org/quote

     Parallel version (MPI), running on   120 processors

     MPI processes distributed on     1 nodes
     K-points division:     npool     =       8
     R & G space division:  proc/nbgrp/npool/nimage =      15
     Waiting for input...
     Reading input from standard input

     Reading xml data from directory:

     ./H2_ESM_VA8.save/

     IMPORTANT: XC functional enforced from input :
     Exchange-correlation= PBE
                           (   1   4   3   4   0   0   0)
     Any further DFT definition will be discarded
     Please, verify this is what you really want


     Parallelization info
     --------------------
     sticks:   dense  smooth     PW     G-vecs:    dense   smooth      PW
     Min        3636    1818    468               639190   225950   29545
     Max        3637    1819    470               639197   225953   29547
     Sum       54553   27281   7033              9587919  3389267  443191


     Adding external electric field
        E field amplitude [Ha a.u.]: -1.5762E-02
        Potential amp.       -1.0723 Ry
        Total length         34.0151 bohr


     negative rho (up, down):  6.323E-05 6.323E-05
     Reading collected, re-writing distributed wavefunctions

     Calculation of q =    0.0000000   0.0000000   0.0000000

     phonons (vibrational modes) for H2                                         

     bravais-lattice index     =            0
     lattice parameter (alat)  =      37.7945  a.u.
     unit-cell volume          =   53986.6760 (a.u.)^3
     number of atoms/cell      =            2
     number of atomic types    =            1
     kinetic-energy cut-off    =      60.0000  Ry
     charge density cut-off    =     480.0000  Ry
     convergence threshold     =      1.0E-12
     beta                      =       0.7000
     number of iterations used =            4
     Exchange-correlation= PBE
                           (   1   4   3   4   0   0   0)


     celldm(1)=   37.79452  celldm(2)=    0.00000  celldm(3)=    0.00000
     celldm(4)=    0.00000  celldm(5)=    0.00000  celldm(6)=    0.00000

     crystal axes: (cart. coord. in units of alat)
               a(1) = (  1.0000  0.0000  0.0000 )  
               a(2) = (  0.0000  1.0000  0.0000 )  
               a(3) = (  0.0000  0.0000  1.0000 )  

     reciprocal axes: (cart. coord. in units 2 pi/alat)
               b(1) = (  1.0000  0.0000  0.0000 )  
               b(2) = (  0.0000  1.0000  0.0000 )  
               b(3) = (  0.0000  0.0000  1.0000 )  


     Atoms inside the unit cell: 

     Cartesian axes

     site n.  atom      mass           positions (alat units)
        1     H    1.0078   tau(    1) = (    0.50000    0.50000    0.00000  )
        2     H    1.0078   tau(    2) = (    0.50000    0.50000   -0.03757  )

     Computing dynamical matrix for 
                    q = (   0.0000000   0.0000000   0.0000000 )

      2 Sym.Ops. (with q -> -q+G )


     G cutoff =17367.5767  ( 639197 G-vectors)     FFT grid: (270,270,270)
     G cutoff = 8683.7884  ( 225950 G-vectors)  smooth grid: (192,192,192)

     number of k points=    20  Methfessel-Paxton smearing, width (Ry)=  0.0100
                       cart. coord. in units 2pi/alat
        k(    1) = (   0.0000000   0.0000000   0.0000000), wk =   0.0625000
        k(    2) = (   0.0000000   0.2500000   0.0000000), wk =   0.1250000
        k(    3) = (   0.0000000  -0.5000000   0.0000000), wk =   0.0625000
        k(    4) = (   0.2500000   0.0000000   0.0000000), wk =   0.1250000
        k(    5) = (   0.2500000   0.2500000   0.0000000), wk =   0.1250000
        k(    6) = (   0.2500000  -0.5000000   0.0000000), wk =   0.1250000
        k(    7) = (   0.2500000  -0.2500000   0.0000000), wk =   0.1250000
        k(    8) = (  -0.5000000   0.0000000   0.0000000), wk =   0.0625000
        k(    9) = (  -0.5000000   0.2500000   0.0000000), wk =   0.1250000
        k(   10) = (  -0.5000000  -0.5000000   0.0000000), wk =   0.0625000
        k(   11) = (   0.0000000   0.0000000   0.0000000), wk =   0.0625000
        k(   12) = (   0.0000000   0.2500000   0.0000000), wk =   0.1250000
        k(   13) = (   0.0000000  -0.5000000   0.0000000), wk =   0.0625000
        k(   14) = (   0.2500000   0.0000000   0.0000000), wk =   0.1250000
        k(   15) = (   0.2500000   0.2500000   0.0000000), wk =   0.1250000
        k(   16) = (   0.2500000  -0.5000000   0.0000000), wk =   0.1250000
        k(   17) = (   0.2500000  -0.2500000   0.0000000), wk =   0.1250000
        k(   18) = (  -0.5000000   0.0000000   0.0000000), wk =   0.0625000
        k(   19) = (  -0.5000000   0.2500000   0.0000000), wk =   0.1250000
        k(   20) = (  -0.5000000  -0.5000000   0.0000000), wk =   0.0625000

     PseudoPot. # 1 for H  read from file:
     ../../SSSP/H.pbe-rrkjus_psl.1.0.0.UPF
     MD5 check sum: f52b6d4d1c606e5624b1dc7b2218f220
     Pseudo is Ultrasoft, Zval =  1.0
     Generated using "atomic" code by A. Dal Corso  v.5.1
     Using radial grid of  929 points,  2 beta functions with: 
                l(1) =   0
                l(2) =   0
     Q(r) pseudized with 0 coefficients 


     Mode symmetry, C_1 (1)     point group:


     Atomic displacements:
     There are    6 irreducible representations

     Representation     1      1 modes -  To be done

     Representation     2      1 modes -  To be done

     Representation     3      1 modes -  To be done

     Representation     4      1 modes -  To be done

     Representation     5      1 modes -  To be done

     Representation     6      1 modes -  To be done



     Alpha used in Ewald sum =   2.8000

     -------------------------------------------------
     Parameters for Dispersion (Grimme-D2) Correction:
     -------------------------------------------------
       atom      VdW radius       C_6     

        H          1.892          4.857

     Calculating the D2 contribution to the dynamical matrix.
     D2 energy =       -0.00000169 Ry
     Done.

     PHONON       :     56.12s CPU   1m 2.12s WALL



     Representation #   1 mode #   1

     Self-consistent Calculation

     Pert. #  1: Fermi energy shift (Ry) =     0.0000E+00     0.0000E+00

      iter #   1 total cpu time :    85.5 secs   av.it.:   5.0
      thresh= 1.000E-02 alpha_mix =  0.700 |ddv_scf|^2 =  7.178E-08

     Pert. #  1: Fermi energy shift (Ry) =     0.0000E+00     0.0000E+00

      iter #   2 total cpu time :   113.6 secs   av.it.:   8.0
      thresh= 2.679E-05 alpha_mix =  0.700 |ddv_scf|^2 =  6.626E-09

     Pert. #  1: Fermi energy shift (Ry) =     0.0000E+00     0.0000E+00

      iter #   3 total cpu time :   141.1 secs   av.it.:   8.0
      thresh= 8.140E-06 alpha_mix =  0.700 |ddv_scf|^2 =  4.237E-13

     End of self-consistent calculation

     Convergence has been achieved 


     Representation #   2 mode #   2

     Self-consistent Calculation

     Pert. #  1: Fermi energy shift (Ry) =     0.0000E+00     0.0000E+00

      iter #   1 total cpu time :   170.4 secs   av.it.:   5.0
      thresh= 1.000E-02 alpha_mix =  0.700 |ddv_scf|^2 =  7.178E-08

     Pert. #  1: Fermi energy shift (Ry) =     0.0000E+00     0.0000E+00

      iter #   2 total cpu time :   197.6 secs   av.it.:   8.0
      thresh= 2.679E-05 alpha_mix =  0.700 |ddv_scf|^2 =  6.626E-09

     Pert. #  1: Fermi energy shift (Ry) =     0.0000E+00     0.0000E+00

      iter #   3 total cpu time :   225.0 secs   av.it.:   8.0
      thresh= 8.140E-06 alpha_mix =  0.700 |ddv_scf|^2 =  4.237E-13

     End of self-consistent calculation

     Convergence has been achieved 


     Representation #   3 mode #   3

     Self-consistent Calculation

     Pert. #  1: Fermi energy shift (Ry) =     0.0000E+00     0.0000E+00

      iter #   1 total cpu time :   254.7 secs   av.it.:   7.0
      thresh= 1.000E-02 alpha_mix =  0.700 |ddv_scf|^2 =  5.996E-08

     Pert. #  1: Fermi energy shift (Ry) =     0.0000E+00     0.0000E+00

      iter #   2 total cpu time :   280.0 secs   av.it.:  12.0
      thresh= 2.449E-05 alpha_mix =  0.700 |ddv_scf|^2 =  8.396E-09

     Pert. #  1: Fermi energy shift (Ry) =     0.0000E+00     0.0000E+00

      iter #   3 total cpu time :   303.6 secs   av.it.:  11.0
      thresh= 9.163E-06 alpha_mix =  0.700 |ddv_scf|^2 =  1.883E-10

     Pert. #  1: Fermi energy shift (Ry) =     0.0000E+00     0.0000E+00

      iter #   4 total cpu time :   328.6 secs   av.it.:  12.0
      thresh= 1.372E-06 alpha_mix =  0.700 |ddv_scf|^2 =  2.761E-13

     End of self-consistent calculation

     Convergence has been achieved 


     Representation #   4 mode #   4

     Self-consistent Calculation

     Pert. #  1: Fermi energy shift (Ry) =     0.0000E+00     0.0000E+00

      iter #   1 total cpu time :   358.6 secs   av.it.:   5.0
      thresh= 1.000E-02 alpha_mix =  0.700 |ddv_scf|^2 =  9.811E-08

     Pert. #  1: Fermi energy shift (Ry) =     0.0000E+00     0.0000E+00

      iter #   2 total cpu time :   383.0 secs   av.it.:   8.0
      thresh= 3.132E-05 alpha_mix =  0.700 |ddv_scf|^2 =  9.158E-09

     Pert. #  1: Fermi energy shift (Ry) =     0.0000E+00     0.0000E+00

      iter #   3 total cpu time :   410.0 secs   av.it.:   8.0
      thresh= 9.570E-06 alpha_mix =  0.700 |ddv_scf|^2 =  2.774E-12

     Pert. #  1: Fermi energy shift (Ry) =     0.0000E+00     0.0000E+00

      iter #   4 total cpu time :   438.7 secs   av.it.:  10.0
      thresh= 1.666E-07 alpha_mix =  0.700 |ddv_scf|^2 =  8.147E-14

     End of self-consistent calculation

     Convergence has been achieved 


     Representation #   5 mode #   5

     Self-consistent Calculation

     Pert. #  1: Fermi energy shift (Ry) =     0.0000E+00     0.0000E+00

      iter #   1 total cpu time :   468.6 secs   av.it.:   5.0
      thresh= 1.000E-02 alpha_mix =  0.700 |ddv_scf|^2 =  9.811E-08

     Pert. #  1: Fermi energy shift (Ry) =     0.0000E+00     0.0000E+00

      iter #   2 total cpu time :   491.7 secs   av.it.:   8.0
      thresh= 3.132E-05 alpha_mix =  0.700 |ddv_scf|^2 =  9.157E-09

     Pert. #  1: Fermi energy shift (Ry) =     0.0000E+00     0.0000E+00

      iter #   3 total cpu time :   514.7 secs   av.it.:   8.0
      thresh= 9.569E-06 alpha_mix =  0.700 |ddv_scf|^2 =  2.774E-12

     Pert. #  1: Fermi energy shift (Ry) =     0.0000E+00     0.0000E+00

      iter #   4 total cpu time :   543.4 secs   av.it.:  10.0
      thresh= 1.666E-07 alpha_mix =  0.700 |ddv_scf|^2 =  8.147E-14

     End of self-consistent calculation

     Convergence has been achieved 


     Representation #   6 mode #   6

     Self-consistent Calculation

     Pert. #  1: Fermi energy shift (Ry) =     0.0000E+00     0.0000E+00

      iter #   1 total cpu time :   573.3 secs   av.it.:   7.0
      thresh= 1.000E-02 alpha_mix =  0.700 |ddv_scf|^2 =  5.871E-08

     Pert. #  1: Fermi energy shift (Ry) =     0.0000E+00     0.0000E+00

      iter #   2 total cpu time :   597.6 secs   av.it.:  12.0
      thresh= 2.423E-05 alpha_mix =  0.700 |ddv_scf|^2 =  6.617E-09

     Pert. #  1: Fermi energy shift (Ry) =     0.0000E+00     0.0000E+00

      iter #   3 total cpu time :   621.4 secs   av.it.:  10.5
      thresh= 8.134E-06 alpha_mix =  0.700 |ddv_scf|^2 =  6.617E-12

     Pert. #  1: Fermi energy shift (Ry) =     0.0000E+00     0.0000E+00

      iter #   4 total cpu time :   647.2 secs   av.it.:  12.0
      thresh= 2.572E-07 alpha_mix =  0.700 |ddv_scf|^2 =  2.913E-13

     End of self-consistent calculation

     Convergence has been achieved 

     Number of q in the star =    1
     List of q in the star:
          1   0.000000000   0.000000000   0.000000000

     Diagonalizing the dynamical matrix

     q = (    0.000000000   0.000000000   0.000000000 ) 

 **************************************************************************
     freq (    1) =      -2.575082 [THz] =     -85.895502 [cm-1]
     freq (    2) =      -2.575052 [THz] =     -85.894489 [cm-1]
     freq (    3) =       4.695455 [THz] =     156.623523 [cm-1]
     freq (    4) =      10.528933 [THz] =     351.207414 [cm-1]
     freq (    5) =      10.528940 [THz] =     351.207622 [cm-1]
     freq (    6) =     128.864196 [THz] =    4298.446883 [cm-1]
 **************************************************************************

     Mode symmetry, C_1 (1)     point group:

     freq (   1-   1) =        -85.9  [cm-1]   --> A               I+R
     freq (   2-   2) =        -85.9  [cm-1]   --> A               I+R
     freq (   3-   3) =        156.6  [cm-1]   --> A               I+R
     freq (   4-   4) =        351.2  [cm-1]   --> A               I+R
     freq (   5-   5) =        351.2  [cm-1]   --> A               I+R
     freq (   6-   6) =       4298.4  [cm-1]   --> A               I+R

     PHONON       :   8m54.54s CPU  10m58.62s WALL

     INITIALIZATION: 
     phq_setup    :     12.73s CPU     14.43s WALL (       1 calls)
     phq_init     :     26.42s CPU     28.37s WALL (       1 calls)

     phq_init     :     26.42s CPU     28.37s WALL (       1 calls)
     init_vloc    :      0.14s CPU      0.15s WALL (       1 calls)
     init_us_1    :      0.01s CPU      0.01s WALL (       1 calls)
     newd         :      0.68s CPU      0.70s WALL (       1 calls)
     dvanqq       :      6.98s CPU      7.11s WALL (       1 calls)
     drho         :     11.94s CPU     13.52s WALL (       1 calls)

     DYNAMICAL MATRIX:
     dynmat0      :      0.90s CPU      1.10s WALL (       1 calls)
     phqscf       :    478.36s CPU    590.94s WALL (       1 calls)
     dynmatrix    :      0.07s CPU      0.12s WALL (       1 calls)

     phqscf       :    478.36s CPU    590.94s WALL (       1 calls)
     solve_linter :    474.44s CPU    577.37s WALL (       6 calls)
     drhodv       :      3.91s CPU      4.05s WALL (       6 calls)

     dynmat0      :      0.90s CPU      1.10s WALL (       1 calls)
     dynmat_us    :      0.70s CPU      0.73s WALL (       1 calls)
     d2ionq       :      0.20s CPU      0.20s WALL (       1 calls)

     dynmat_us    :      0.70s CPU      0.73s WALL (       1 calls)
     addusdynmat  :      0.00s CPU      0.00s WALL (       1 calls)

     phqscf       :    478.36s CPU    590.94s WALL (       1 calls)
     solve_linter :    474.44s CPU    577.37s WALL (       6 calls)

     solve_linter :    474.44s CPU    577.37s WALL (       6 calls)
     dvqpsi_us    :      8.27s CPU      8.46s WALL (      18 calls)
     ortho        :      0.83s CPU      0.86s WALL (      66 calls)
     cgsolve      :     42.57s CPU     43.14s WALL (      66 calls)
     incdrhoscf   :      5.28s CPU      5.41s WALL (      66 calls)
     addusddens   :     16.25s CPU     18.41s WALL (      28 calls)
     vpsifft      :      3.37s CPU      3.50s WALL (      48 calls)
     dv_of_drho   :    171.71s CPU    176.95s WALL (      22 calls)
     mix_pot      :      5.86s CPU     17.12s WALL (      22 calls)
     ef_shift     :     22.80s CPU     23.22s WALL (      28 calls)
     localdos     :     12.94s CPU     13.64s WALL (       6 calls)
     psymdvscf    :    111.49s CPU    156.55s WALL (      22 calls)
     newdq        :     18.02s CPU     19.60s WALL (      22 calls)
     adddvscf     :      0.09s CPU      0.09s WALL (      48 calls)
     drhodvus     :      2.19s CPU     15.88s WALL (       6 calls)

     dvqpsi_us    :      8.27s CPU      8.46s WALL (      18 calls)
     dvqpsi_us_on :      0.09s CPU      0.09s WALL (      18 calls)

     cgsolve      :     42.57s CPU     43.14s WALL (      66 calls)
     ch_psi       :     41.74s CPU     42.29s WALL (     562 calls)

     ch_psi       :     41.74s CPU     42.29s WALL (     562 calls)
     h_psi        :     40.42s CPU     40.95s WALL (     562 calls)
     last         :      1.14s CPU      1.16s WALL (     562 calls)

     h_psi        :     40.42s CPU     40.95s WALL (     562 calls)
     add_vuspsi   :      0.42s CPU      0.42s WALL (     562 calls)

     incdrhoscf   :      5.28s CPU      5.41s WALL (      66 calls)
     addusdbec    :      0.51s CPU      0.52s WALL (      84 calls)

     drhodvus     :      2.19s CPU     15.88s WALL (       6 calls)

      General routines
     calbec       :      2.65s CPU      2.81s WALL (    1394 calls)
     fft          :    225.86s CPU    230.60s WALL (     805 calls)
     ffts         :     15.56s CPU     16.07s WALL (     192 calls)
     fftw         :     45.09s CPU     45.73s WALL (    1565 calls)
     davcio       :      0.11s CPU     23.86s WALL (     492 calls)
     write_rec    :      0.01s CPU     26.07s WALL (      28 calls)


     PHONON       :   8m54.54s CPU  10m58.62s WALL


   This run was terminated on:   1: 3:24  29Sep2022            

=------------------------------------------------------------------------------=
   JOB DONE.
=------------------------------------------------------------------------------=
