     Message from routine get_command_line:
     unexpected argument # 4     :-in

     Program PWSCF v.6.4.1 starts on  6Jun2022 at 18: 6: 2 

     This program is part of the open-source Quantum ESPRESSO suite
     for quantum simulation of materials; please cite
         "P. Giannozzi et al., J. Phys.:Condens. Matter 21 395502 (2009);
         "P. Giannozzi et al., J. Phys.:Condens. Matter 29 465901 (2017);
          URL http://www.quantum-espresso.org", 
     in publications or presentations arising from this work. More details at
     http://www.quantum-espresso.org/quote

     Parallel version (MPI), running on    20 processors

     MPI processes distributed on     1 nodes
     K-points division:     npool     =       4
     R & G space division:  proc/nbgrp/npool/nimage =       5
     Waiting for input...
     Reading input from standard input
Warning: card &CELL ignored
Warning: card / ignored

     Current dimensions of program PWSCF are:
     Max number of different atomic species (ntypx) = 10
     Max number of k-points (npk) =  40000
     Max angular momentum in pseudopotentials (lmaxx) =  3

     IMPORTANT: XC functional enforced from input :
     Exchange-correlation      = PBE ( 1  4  3  4 0 0)
     Any further DFT definition will be discarded
     Please, verify this is what you really want


     -------------------------------------------------
     Parameters for Dispersion (Grimme-D2) Correction:
     -------------------------------------------------
       atom      VdW radius       C_6     

        N          2.640         42.670

     Subspace diagonalization in iterative solution of the eigenvalue problem:
     a serial algorithm will be used


     Parallelization info
     --------------------
     sticks:   dense  smooth     PW     G-vecs:    dense   smooth      PW
     Min       10910    5456   1406              1917582   677852   88638
     Max       10911    5457   1408              1917585   677855   88639
     Sum       54553   27281   7033              9587919  3389267  443191



     bravais-lattice index     =            0
     lattice parameter (alat)  =      37.7945  a.u.
     unit-cell volume          =   53986.6767 (a.u.)^3
     number of atoms/cell      =            1
     number of atomic types    =            1
     number of electrons       =         5.00
     number of Kohn-Sham states=            7
     kinetic-energy cutoff     =      60.0000  Ry
     charge density cutoff     =     480.0000  Ry
     convergence threshold     =      1.0E-08
     mixing beta               =       0.2000
     number of iterations used =           10  local-TF  mixing
     Exchange-correlation      = PBE ( 1  4  3  4 0 0)
     nstep                     =           50


     celldm(1)=  37.794523  celldm(2)=   0.000000  celldm(3)=   0.000000
     celldm(4)=   0.000000  celldm(5)=   0.000000  celldm(6)=   0.000000

     crystal axes: (cart. coord. in units of alat)
               a(1) = (   1.000000   0.000000   0.000000 )  
               a(2) = (   0.000000   1.000000   0.000000 )  
               a(3) = (   0.000000   0.000000   1.000000 )  

     reciprocal axes: (cart. coord. in units 2 pi/alat)
               b(1) = (  1.000000  0.000000  0.000000 )  
               b(2) = (  0.000000  1.000000  0.000000 )  
               b(3) = (  0.000000  0.000000  1.000000 )  


     PseudoPot. # 1 for N  read from file:
     ../../SSSP/N.pbe-n-radius_5.UPF
     MD5 check sum: 16739722b17309cd8fe442a2ace49922
     Pseudo is Ultrasoft + core correction, Zval =  5.0
     Generated using "atomic" code by A. Dal Corso v.5.1
     Using radial grid of 1085 points,  4 beta functions with: 
                l(1) =   0
                l(2) =   0
                l(3) =   1
                l(4) =   1
     Q(r) pseudized with 0 coefficients 


     atomic species   valence    mass     pseudopotential
        N              5.00    14.00700     N ( 1.00)

     Starting magnetic structure 
     atomic species   magnetization
        N            0.100

     No symmetry found



   Cartesian axes

     site n.     atom                  positions (alat units)
         1           N   tau(   1) = (   0.5000000   0.5000000   0.5064965  )

     number of k points=    10  Methfessel-Paxton smearing, width (Ry)=  0.0100
                       cart. coord. in units 2pi/alat
        k(    1) = (   0.0000000   0.0000000   0.0000000), wk =   0.0625000
        k(    2) = (   0.0000000   0.2500000   0.0000000), wk =   0.1250000
        k(    3) = (   0.0000000  -0.5000000   0.0000000), wk =   0.0625000
        k(    4) = (   0.2500000   0.0000000   0.0000000), wk =   0.1250000
        k(    5) = (   0.2500000   0.2500000   0.0000000), wk =   0.1250000
        k(    6) = (   0.2500000  -0.5000000   0.0000000), wk =   0.1250000
        k(    7) = (   0.2500000  -0.2500000   0.0000000), wk =   0.1250000
        k(    8) = (  -0.5000000   0.0000000   0.0000000), wk =   0.0625000
        k(    9) = (  -0.5000000   0.2500000   0.0000000), wk =   0.1250000
        k(   10) = (  -0.5000000  -0.5000000   0.0000000), wk =   0.0625000

     Dense  grid:  9587919 G-vectors     FFT dimensions: ( 270, 270, 270)

     Smooth grid:  3389267 G-vectors     FFT dimensions: ( 192, 192, 192)

     Estimated max dynamical RAM per process >       1.64 GB

     Estimated total dynamical RAM >      32.82 GB
     Generating pointlists ...
     new r_m :   0.4125 (alat units) 15.5902 (a.u.) for type    1

     Initial potential from superposition of free atoms

     starting charge    4.99999, renormalised to    5.00000

     negative rho (up, down):  1.779E-04 1.966E-03
     Starting wfcs are    4 randomized atomic wfcs +    3 random wfcs

     total cpu time spent up to now is       45.2 secs

     Self-consistent Calculation

     iteration #  1     ecut=    60.00 Ry     beta= 0.20
     Davidson diagonalization with overlap
     c_bands:  2 eigenvalues not converged
     c_bands:  2 eigenvalues not converged
     c_bands:  1 eigenvalues not converged
     c_bands:  2 eigenvalues not converged
     c_bands:  2 eigenvalues not converged
     ethr =  1.00E-04,  avg # of iterations = 20.0

     negative rho (up, down):  1.061E-04 1.717E-02

     total cpu time spent up to now is      825.2 secs

     total energy              =     -19.70379241 Ry
     Harris-Foulkes estimate   =     -19.64642170 Ry
     estimated scf accuracy    <       0.07564052 Ry

     total magnetization       =     3.00 Bohr mag/cell
     absolute magnetization    =     3.00 Bohr mag/cell

     iteration #  2     ecut=    60.00 Ry     beta= 0.20
     Davidson diagonalization with overlap
     ethr =  1.51E-03,  avg # of iterations =  1.0

     negative rho (up, down):  3.652E-07 2.035E-01

     total cpu time spent up to now is     2061.1 secs

     total energy              =     -19.81459114 Ry
     Harris-Foulkes estimate   =     -19.70514698 Ry
     estimated scf accuracy    <       0.05163052 Ry

     total magnetization       =     3.00 Bohr mag/cell
     absolute magnetization    =     3.00 Bohr mag/cell

     iteration #  3     ecut=    60.00 Ry     beta= 0.20
     Davidson diagonalization with overlap
     ethr =  1.03E-03,  avg # of iterations =  1.0

     negative rho (up, down):  7.085E-08 5.364E-02

     total cpu time spent up to now is     3135.7 secs

     total energy              =     -19.81704241 Ry
     Harris-Foulkes estimate   =     -19.81708632 Ry
     estimated scf accuracy    <       0.00293750 Ry

     total magnetization       =     3.00 Bohr mag/cell
     absolute magnetization    =     3.00 Bohr mag/cell

     iteration #  4     ecut=    60.00 Ry     beta= 0.20
     Davidson diagonalization with overlap
     ethr =  5.88E-05,  avg # of iterations =  3.0

     negative rho (up, down):  5.917E-05 3.626E-01

     total cpu time spent up to now is     4919.7 secs

     total energy              =     -19.81780480 Ry
     Harris-Foulkes estimate   =     -19.81725019 Ry
     estimated scf accuracy    <       0.00120728 Ry

     total magnetization       =     3.00 Bohr mag/cell
     absolute magnetization    =     3.00 Bohr mag/cell

     iteration #  5     ecut=    60.00 Ry     beta= 0.20
     Davidson diagonalization with overlap
     ethr =  2.41E-05,  avg # of iterations =  3.5

     negative rho (up, down):  2.638E-07 1.093E-01

     total cpu time spent up to now is     6695.7 secs

     total energy              =     -19.81759844 Ry
     Harris-Foulkes estimate   =     -19.81798086 Ry
     estimated scf accuracy    <       0.00382056 Ry

     total magnetization       =     3.00 Bohr mag/cell
     absolute magnetization    =     3.00 Bohr mag/cell

     iteration #  6     ecut=    60.00 Ry     beta= 0.20
     Davidson diagonalization with overlap
     ethr =  2.41E-05,  avg # of iterations =  1.0

     negative rho (up, down):  6.303E-07 1.044E-01

     total cpu time spent up to now is     7924.6 secs

     total energy              =     -19.81760621 Ry
     Harris-Foulkes estimate   =     -19.81761979 Ry
     estimated scf accuracy    <       0.00266601 Ry

     total magnetization       =     3.00 Bohr mag/cell
     absolute magnetization    =     3.00 Bohr mag/cell

     iteration #  7     ecut=    60.00 Ry     beta= 0.20
     Davidson diagonalization with overlap
     ethr =  2.41E-05,  avg # of iterations =  1.0

     negative rho (up, down):  6.314E-08 6.811E-02

     total cpu time spent up to now is     8883.4 secs

     total energy              =     -19.81752813 Ry
     Harris-Foulkes estimate   =     -19.81761392 Ry
     estimated scf accuracy    <       0.00257681 Ry

     total magnetization       =     3.00 Bohr mag/cell
     absolute magnetization    =     3.00 Bohr mag/cell

     iteration #  8     ecut=    60.00 Ry     beta= 0.20
     Davidson diagonalization with overlap
     ethr =  2.41E-05,  avg # of iterations =  1.0

     negative rho (up, down):  7.961E-08 3.442E-02

     total cpu time spent up to now is     9571.7 secs

     total energy              =     -19.81710262 Ry
     Harris-Foulkes estimate   =     -19.81753110 Ry
     estimated scf accuracy    <       0.00228953 Ry

     total magnetization       =     3.00 Bohr mag/cell
     absolute magnetization    =     3.00 Bohr mag/cell

     iteration #  9     ecut=    60.00 Ry     beta= 0.20
     Davidson diagonalization with overlap
     ethr =  2.41E-05,  avg # of iterations =  2.8

     negative rho (up, down):  2.179E-05 7.369E-02

     total cpu time spent up to now is    10778.6 secs

     total energy              =     -19.81797581 Ry
     Harris-Foulkes estimate   =     -19.81801260 Ry
     estimated scf accuracy    <       0.00113864 Ry

     total magnetization       =     3.00 Bohr mag/cell
     absolute magnetization    =     3.00 Bohr mag/cell

     iteration # 10     ecut=    60.00 Ry     beta= 0.20
     Davidson diagonalization with overlap
     ethr =  2.28E-05,  avg # of iterations =  2.8

     negative rho (up, down):  3.281E-03 7.320E-02

     total cpu time spent up to now is    11297.3 secs

     total energy              =     -19.81682037 Ry
     Harris-Foulkes estimate   =     -19.81713073 Ry
     estimated scf accuracy    <       0.00105410 Ry

     total magnetization       =     3.00 Bohr mag/cell
     absolute magnetization    =     3.00 Bohr mag/cell

     iteration # 11     ecut=    60.00 Ry     beta= 0.20
     Davidson diagonalization with overlap
     ethr =  2.11E-05,  avg # of iterations =  4.2

     negative rho (up, down):  3.646E-03 7.000E-02

     total cpu time spent up to now is    11918.9 secs

     total energy              =     -19.81771268 Ry
     Harris-Foulkes estimate   =     -19.81776416 Ry
     estimated scf accuracy    <       0.00015949 Ry

     total magnetization       =     3.00 Bohr mag/cell
     absolute magnetization    =     3.00 Bohr mag/cell

     iteration # 12     ecut=    60.00 Ry     beta= 0.20
     Davidson diagonalization with overlap
     ethr =  3.19E-06,  avg # of iterations =  7.2

     negative rho (up, down):  2.207E-03 1.265E-01

     total cpu time spent up to now is    12453.4 secs

     total energy              =     -19.81774898 Ry
     Harris-Foulkes estimate   =     -19.81773569 Ry
     estimated scf accuracy    <       0.00003019 Ry

     total magnetization       =     3.00 Bohr mag/cell
     absolute magnetization    =     3.00 Bohr mag/cell

     iteration # 13     ecut=    60.00 Ry     beta= 0.20
     Davidson diagonalization with overlap
     ethr =  6.04E-07,  avg # of iterations =  6.0

     negative rho (up, down):  1.066E-03 2.024E-01

     total cpu time spent up to now is    13431.6 secs

     total energy              =     -19.81772222 Ry
     Harris-Foulkes estimate   =     -19.81774986 Ry
     estimated scf accuracy    <       0.00003542 Ry

     total magnetization       =     3.00 Bohr mag/cell
     absolute magnetization    =     3.00 Bohr mag/cell

     iteration # 14     ecut=    60.00 Ry     beta= 0.20
     Davidson diagonalization with overlap
     ethr =  6.04E-07,  avg # of iterations =  4.2

     negative rho (up, down):  7.464E-04 2.323E-01

     total cpu time spent up to now is    14210.3 secs

     total energy              =     -19.81772047 Ry
     Harris-Foulkes estimate   =     -19.81772814 Ry
     estimated scf accuracy    <       0.00000466 Ry

     total magnetization       =     3.00 Bohr mag/cell
     absolute magnetization    =     3.00 Bohr mag/cell

     iteration # 15     ecut=    60.00 Ry     beta= 0.20
     Davidson diagonalization with overlap
     ethr =  9.32E-08,  avg # of iterations =  1.9

     negative rho (up, down):  7.783E-04 2.313E-01

     total cpu time spent up to now is    15163.3 secs

     total energy              =     -19.81772182 Ry
     Harris-Foulkes estimate   =     -19.81772087 Ry
     estimated scf accuracy    <       0.00000894 Ry

     total magnetization       =     3.00 Bohr mag/cell
     absolute magnetization    =     3.00 Bohr mag/cell

     iteration # 16     ecut=    60.00 Ry     beta= 0.20
     Davidson diagonalization with overlap
     ethr =  9.32E-08,  avg # of iterations =  1.0

     negative rho (up, down):  7.954E-04 2.140E-01

     total cpu time spent up to now is    16093.0 secs

     total energy              =     -19.81772753 Ry
     Harris-Foulkes estimate   =     -19.81772182 Ry
     estimated scf accuracy    <       0.00000842 Ry

     total magnetization       =     3.00 Bohr mag/cell
     absolute magnetization    =     3.00 Bohr mag/cell

     iteration # 17     ecut=    60.00 Ry     beta= 0.20
     Davidson diagonalization with overlap
     ethr =  9.32E-08,  avg # of iterations =  2.0

     negative rho (up, down):  6.931E-04 2.191E-01

     total cpu time spent up to now is    16711.9 secs

     total energy              =     -19.81773441 Ry
     Harris-Foulkes estimate   =     -19.81772842 Ry
     estimated scf accuracy    <       0.00000697 Ry

     total magnetization       =     3.00 Bohr mag/cell
     absolute magnetization    =     3.00 Bohr mag/cell

     iteration # 18     ecut=    60.00 Ry     beta= 0.20
     Davidson diagonalization with overlap
     ethr =  9.32E-08,  avg # of iterations =  2.0

     negative rho (up, down):  3.256E-04 1.680E-01

     total cpu time spent up to now is    17341.4 secs

     total energy              =     -19.81773440 Ry
     Harris-Foulkes estimate   =     -19.81773492 Ry
     estimated scf accuracy    <       0.00000395 Ry

     total magnetization       =     3.00 Bohr mag/cell
     absolute magnetization    =     3.00 Bohr mag/cell

     iteration # 19     ecut=    60.00 Ry     beta= 0.20
     Davidson diagonalization with overlap
     ethr =  7.90E-08,  avg # of iterations =  6.0

     negative rho (up, down):  2.900E-04 1.495E-01

     total cpu time spent up to now is    18088.0 secs

     total energy              =     -19.81773578 Ry
     Harris-Foulkes estimate   =     -19.81773527 Ry
     estimated scf accuracy    <       0.00000031 Ry

     total magnetization       =     3.00 Bohr mag/cell
     absolute magnetization    =     3.00 Bohr mag/cell

     iteration # 20     ecut=    60.00 Ry     beta= 0.20
     Davidson diagonalization with overlap
     ethr =  6.28E-09,  avg # of iterations =  2.0

     negative rho (up, down):  2.917E-04 1.508E-01

     total cpu time spent up to now is    19091.3 secs

     total energy              =     -19.81773569 Ry
     Harris-Foulkes estimate   =     -19.81773581 Ry
     estimated scf accuracy    <       0.00000007 Ry

     total magnetization       =     3.00 Bohr mag/cell
     absolute magnetization    =     3.00 Bohr mag/cell

     iteration # 21     ecut=    60.00 Ry     beta= 0.20
     Davidson diagonalization with overlap
     ethr =  1.35E-09,  avg # of iterations =  1.5

     negative rho (up, down):  3.070E-04 1.501E-01

     total cpu time spent up to now is    19521.4 secs

     total energy              =     -19.81773574 Ry
     Harris-Foulkes estimate   =     -19.81773569 Ry
     estimated scf accuracy    <       0.00000009 Ry

     total magnetization       =     3.00 Bohr mag/cell
     absolute magnetization    =     3.00 Bohr mag/cell

     iteration # 22     ecut=    60.00 Ry     beta= 0.20
     Davidson diagonalization with overlap
     ethr =  1.35E-09,  avg # of iterations =  2.0

     negative rho (up, down):  3.000E-04 1.470E-01

     total cpu time spent up to now is    20096.2 secs

     total energy              =     -19.81773580 Ry
     Harris-Foulkes estimate   =     -19.81773576 Ry
     estimated scf accuracy    <       0.00000006 Ry

     total magnetization       =     3.00 Bohr mag/cell
     absolute magnetization    =     3.00 Bohr mag/cell

     iteration # 23     ecut=    60.00 Ry     beta= 0.20
     Davidson diagonalization with overlap
     ethr =  1.28E-09,  avg # of iterations =  1.0

     negative rho (up, down):  2.646E-04 1.224E-01

     total cpu time spent up to now is    20949.4 secs

     total energy              =     -19.81773632 Ry
     Harris-Foulkes estimate   =     -19.81773580 Ry
     estimated scf accuracy    <       0.00000004 Ry

     total magnetization       =     3.00 Bohr mag/cell
     absolute magnetization    =     3.00 Bohr mag/cell

     iteration # 24     ecut=    60.00 Ry     beta= 0.20
     Davidson diagonalization with overlap
     ethr =  8.54E-10,  avg # of iterations =  2.5

     negative rho (up, down):  2.821E-04 1.319E-01

     total cpu time spent up to now is    22355.9 secs

     total energy              =     -19.81773545 Ry
     Harris-Foulkes estimate   =     -19.81773633 Ry
     estimated scf accuracy    <       0.00000003 Ry

     total magnetization       =     3.00 Bohr mag/cell
     absolute magnetization    =     3.00 Bohr mag/cell

     iteration # 25     ecut=    60.00 Ry     beta= 0.20
     Davidson diagonalization with overlap
     ethr =  5.81E-10,  avg # of iterations =  2.5

     negative rho (up, down):  2.626E-04 1.166E-01

     total cpu time spent up to now is    23670.7 secs

     total energy              =     -19.81773559 Ry
     Harris-Foulkes estimate   =     -19.81773546 Ry
     estimated scf accuracy    <       0.00000004 Ry

     total magnetization       =     3.00 Bohr mag/cell
     absolute magnetization    =     3.00 Bohr mag/cell

     iteration # 26     ecut=    60.00 Ry     beta= 0.20
     Davidson diagonalization with overlap
     ethr =  5.81E-10,  avg # of iterations =  1.5

     negative rho (up, down):  2.572E-04 1.057E-01

     Magnetic moment per site:
     atom:    1    charge:    5.0000    magn:    3.0000    constr:    0.0000

     total cpu time spent up to now is    23712.2 secs

     End of self-consistent calculation

 ------ SPIN UP ------------


          k = 0.0000 0.0000 0.0000 (423701 PWs)   bands (ev):

   -19.9079  -8.3204  -8.3204  -8.3204  -0.3535  -0.0295   0.1925

          k = 0.0000 0.2500 0.0000 (423725 PWs)   bands (ev):

   -19.9079  -8.3204  -8.3204  -8.3204  -0.3472  -0.0401   0.1060

          k = 0.0000-0.5000 0.0000 (423542 PWs)   bands (ev):

   -19.9079  -8.3204  -8.3204  -8.3204  -0.3403  -0.0571   0.0870

          k = 0.2500 0.0000 0.0000 (423725 PWs)   bands (ev):

   -19.9079  -8.3204  -8.3204  -8.3204  -0.3472  -0.0401   0.1060

          k = 0.2500 0.2500 0.0000 (423766 PWs)   bands (ev):

   -19.9079  -8.3204  -8.3204  -8.3204  -0.3415  -0.0335   0.0699

          k = 0.2500-0.5000 0.0000 (423782 PWs)   bands (ev):

   -19.9079  -8.3204  -8.3204  -8.3204  -0.3354  -0.0337   0.0540

          k = 0.2500-0.2500 0.0000 (423766 PWs)   bands (ev):

   -19.9079  -8.3204  -8.3204  -8.3204  -0.3415  -0.0335   0.0699

          k =-0.5000 0.0000 0.0000 (423542 PWs)   bands (ev):

   -19.9079  -8.3204  -8.3204  -8.3204  -0.3403  -0.0571   0.0870

          k =-0.5000 0.2500 0.0000 (423782 PWs)   bands (ev):

   -19.9079  -8.3204  -8.3204  -8.3204  -0.3354  -0.0338   0.0540

          k =-0.5000-0.5000 0.0000 (423708 PWs)   bands (ev):

   -19.9079  -8.3204  -8.3204  -8.3204  -0.3303   0.0236   0.0495

 ------ SPIN DOWN ----------


          k = 0.0000 0.0000 0.0000 (423701 PWs)   bands (ev):

   -15.0896  -3.9010  -3.9008  -3.9007  -0.1490   0.1925   0.2384

          k = 0.0000 0.2500 0.0000 (423725 PWs)   bands (ev):

   -15.0896  -3.9010  -3.9008  -3.9007  -0.1259   0.0657   0.2334

          k = 0.0000-0.5000 0.0000 (423542 PWs)   bands (ev):

   -15.0896  -3.9010  -3.9008  -3.9007  -0.0716  -0.0347   0.2809

          k = 0.2500 0.0000 0.0000 (423725 PWs)   bands (ev):

   -15.0896  -3.9010  -3.9008  -3.9007  -0.1259   0.0657   0.2333

          k = 0.2500 0.2500 0.0000 (423766 PWs)   bands (ev):

   -15.0896  -3.9010  -3.9008  -3.9007  -0.1029   0.0802   0.1002

          k = 0.2500-0.5000 0.0000 (423782 PWs)   bands (ev):

   -15.0896  -3.9010  -3.9008  -3.9007  -0.0492  -0.0110   0.1490

          k = 0.2500-0.2500 0.0000 (423766 PWs)   bands (ev):

   -15.0896  -3.9010  -3.9008  -3.9007  -0.1029   0.0802   0.1002

          k =-0.5000 0.0000 0.0000 (423542 PWs)   bands (ev):

   -15.0896  -3.9010  -3.9008  -3.9007  -0.0716  -0.0347   0.2808

          k =-0.5000 0.2500 0.0000 (423782 PWs)   bands (ev):

   -15.0896  -3.9010  -3.9008  -3.9007  -0.0492  -0.0111   0.1516

          k =-0.5000-0.5000 0.0000 (423708 PWs)   bands (ev):

   -15.0896  -3.9010  -3.9008  -3.9007  -0.0013   0.0532   0.0652

     the Fermi energy is    -4.6302 ev

!    total energy              =     -19.81773569 Ry
     Harris-Foulkes estimate   =     -19.81773560 Ry
     estimated scf accuracy    <          5.8E-09 Ry

     The total energy is the sum of the following terms:

     one-electron contribution =     -27.50094122 Ry
     hartree contribution      =      14.67427888 Ry
     xc contribution           =      -5.11428185 Ry
     ewald contribution        =      -1.87679145 Ry
     Dispersion Correction     =      -0.00000005 Ry
     smearing contrib. (-TS)   =       0.00000000 Ry

     total magnetization       =     3.00 Bohr mag/cell
     absolute magnetization    =     3.00 Bohr mag/cell

     convergence has been achieved in  26 iterations

     negative rho (up, down):  2.572E-04 1.057E-01

     Forces acting on atoms (cartesian axes, Ry/au):

     atom    1 type  1   force =     0.00000000    0.00000000    0.00000000

     Total force =     0.000000     Total SCF correction =     0.000000

     BFGS Geometry Optimization

     bfgs converged in   1 scf cycles and   0 bfgs steps
     (criteria: energy <  7.3E-07 Ry, force <  3.9E-04 Ry/Bohr)

     End of BFGS Geometry Optimization

     Final energy   =     -19.8177356924 Ry
Begin final coordinates

ATOMIC_POSITIONS (angstrom)
N       10.000000000  10.000000000  10.129929000    0   0   0
End final coordinates



     Writing output data file N.save/

     init_run     :     38.16s CPU     41.76s WALL (       1 calls)
     electrons    :  23418.43s CPU  23668.41s WALL (       1 calls)
     forces       :     17.32s CPU     19.15s WALL (       1 calls)

     Called by init_run:
     wfcinit      :      7.25s CPU      7.69s WALL (       1 calls)
     potinit      :     18.48s CPU     20.68s WALL (       1 calls)
     hinit0       :      2.51s CPU      2.75s WALL (       1 calls)

     Called by electrons:
     c_bands      :    530.20s CPU    542.18s WALL (      26 calls)
     sum_band     :    218.55s CPU    230.57s WALL (      26 calls)
     v_of_rho     :    359.13s CPU    397.00s WALL (      27 calls)
     newd         :     40.75s CPU     50.62s WALL (      27 calls)
     mix_rho      :  21864.48s CPU  22036.42s WALL (      26 calls)

     Called by c_bands:
     init_us_2    :      5.75s CPU      5.89s WALL (     270 calls)
     cegterg      :    495.26s CPU    503.86s WALL (     130 calls)

     Called by sum_band:
     sum_band:bec :      0.00s CPU      0.00s WALL (     130 calls)
     addusdens    :     60.28s CPU     67.93s WALL (      26 calls)

     Called by *egterg:
     h_psi        :    465.97s CPU    471.05s WALL (     540 calls)
     s_psi        :      2.95s CPU      3.01s WALL (     540 calls)
     g_psi        :      1.43s CPU      1.47s WALL (     405 calls)
     cdiaghg      :      0.16s CPU      0.45s WALL (     535 calls)

     Called by h_psi:
     h_psi:pot    :    464.51s CPU    467.79s WALL (     540 calls)
     h_psi:calbec :      4.13s CPU      4.19s WALL (     540 calls)
     vloc_psi     :    457.33s CPU    460.49s WALL (     540 calls)
     add_vuspsi   :      3.04s CPU      3.10s WALL (     540 calls)

     General routines
     calbec       :      5.23s CPU      5.29s WALL (     690 calls)
     fft          :    338.58s CPU    370.97s WALL (     688 calls)
     ffts         :  12328.14s CPU  12391.38s WALL (   70657 calls)
     fftw         :    473.94s CPU    476.94s WALL (    5916 calls)
     interpolate  :     33.68s CPU     38.47s WALL (      54 calls)
     davcio       :      0.16s CPU     20.34s WALL (     893 calls)

     Parallel routines
     fft_scatt_xy :   1899.42s CPU   1907.06s WALL (   77261 calls)
     fft_scatt_yz :   6564.29s CPU   6607.96s WALL (   77261 calls)

     PWSCF        :      6h31m CPU      6h35m WALL


   This run was terminated on:   0:41:37   7Jun2022            

=------------------------------------------------------------------------------=
   JOB DONE.
=------------------------------------------------------------------------------=
